12
 energy: -21.565011800860 gnorm: 0.000523165748 xtb: 6.2.3 (830e466)
C         1.21183572407378    1.49044507037192   -2.20312935883433
C         0.22494464067526    0.40558521381065   -1.77956749565800
C         0.78656787886715   -0.47857045702621   -0.69926713200323
O         1.30528123432244    2.39894290100598   -1.12997000217912
O         2.25913261230636    3.40494320705591   -1.46806885863529
O         0.63731498322405   -1.66444250072325   -0.63642495306581
H         2.29146511210414    3.93389671791520   -0.66027678887403
H         0.84953862266159    2.01015886939743   -3.09938313283131
H         2.20041249964743    1.06520154050855   -2.41949853554495
H         1.35720146148662    0.07691067442056    0.06719941141736
H        -0.66383032307484    0.89239211526515   -1.36779645387620
H        -0.07085444629383   -0.19576335200220   -2.63940669991504
12
Properties=species:S:1:pos:R:3 6.2.3=T gnorm:=T pbc="F F F" energy:=T 0.000692836342=T xtb:=T 830e466=T -21.591020664875=T
C       1.09198682       1.57997728      -2.31796121 
C      -0.13937568       2.47135009      -2.33962677 
C       2.15566597      -0.71450261       0.12419287 
O       1.04300901       0.88109140      -1.08735856 
O       2.17665502       0.02681117      -0.98285482 
O       3.02291416      -1.48666711       0.37911146 
H      -0.11318929       3.16499111      -1.50391231 
H       2.01151331       2.17470867      -2.37071700 
H       1.07838406       0.86673903      -3.15064697 
H       1.26226049      -0.52316793       0.74722914 
H      -0.16186904       3.03126372      -3.26980054 
H      -1.03894484       1.86710517      -2.26324527 
