12
 energy: -21.564973333151 gnorm: 0.000691682811 xtb: 6.2.3 (830e466)
C         1.11804036281729    1.45335883015659   -2.27779778941417
C         0.67717639604796    0.10769795369864   -1.71282686419693
C         1.32149407431152   -0.19950908099572   -0.38771688335403
O         0.35818352125880    2.42903095195629   -1.59025240161723
O         0.86535727629122    3.72076667524699   -1.84074716333918
O         2.19535828651294    0.43403432759615    0.12752975457819
H         1.30437101814904    3.96831316909608   -1.01283569519652
H         2.18805620921559    1.60999047598656   -2.09052874021198
H         0.92686212945173    1.51597076536926   -3.35620871277102
H         0.91259117695915   -1.11096597929853    0.09100472057782
H         0.92818386166267   -0.69857519349991   -2.40519841544605
H        -0.40667431267777    0.10948710468770   -1.58022180960882
12
Properties=species:S:1:pos:R:3 -21.511805440727=T gnorm:=T pbc="F F F" energy:=T 0.000309269779=T xtb:=T 6.2.3=T 830e466=T
C       0.56782662       1.59082390      -1.84760984 
C       0.82795544       1.15108640      -0.61315444 
C       0.97192069      -0.26353423      -0.32656282 
O       0.40906663       2.84733428      -2.26658972 
O       0.53512968       3.81269060      -1.23175236 
O       1.21729045      -0.73208107       0.75674428 
H       0.41240995       4.64551978      -1.70920110 
H       2.57370482      -0.61978098      -3.19500324 
H       0.44933764       0.93764214      -2.70467508 
H       0.83442625      -0.91716763      -1.21300018 
H       2.65141664      -0.95743343      -3.89161122 
H       0.93851519       1.84450023       0.20661573 
