12
 energy: -21.564480985392 gnorm: 0.000795316568 xtb: 6.2.3 (830e466)
C         1.38541443622668    1.51993026080654   -1.74535248451671
C         0.55066784029559    0.52514046959425   -0.94656555709254
C         1.16570439985683   -0.84411355669942   -0.90714482439219
O         0.57598205444316    2.65804587267091   -1.92582736838926
O         1.31084070760970    3.62400458979255   -2.67628772801936
O         1.14025626366774   -1.58244313757793    0.03390415563689
H         0.69704633380467    4.36907140567982   -2.70421209058405
H         2.30153925860752    1.79394973462894   -1.20699772696735
H         1.66244536287505    1.10411718224729   -2.72387727019787
H         1.64591405939721   -1.14290081050686   -1.86017746007191
H        -0.42183724134769    0.42686472715255   -1.44004587735579
H         0.37502652456352    0.88813326221143    0.06667423195014
12
Properties=species:S:1:pos:R:3 6.2.3=T gnorm:=T pbc="F F F" -21.510315397935=T 0.000736596314=T energy:=T xtb:=T 830e466=T
C       0.78903672       1.89430628      -1.03035495 
C      -0.06387258       0.99860980      -0.55996909 
C       1.82635861      -0.70675367      -1.80252649 
O       0.55217664       2.53392167      -2.20657466 
O       1.66308586       3.33646442      -2.58154155 
O       2.51887698      -0.99002320      -0.87075667 
H       1.27026316       3.97852859      -3.18791702 
H       1.70531052       2.17957219      -0.53234211 
H       2.12778044       0.02357121      -2.56996212 
H       0.85168216      -1.18612960      -1.98828156 
H      -0.96788505       0.75595318      -1.08869262 
H       0.11618652       0.52177913       0.38300883 
