12
 energy: -21.567208047388 gnorm: 0.000549846701 xtb: 6.2.3 (830e466)
C         1.17599031407578    1.34811948595904   -2.56216207031938
C         0.48230900730555    0.29898141379065   -1.68956110412548
C         1.16170813228649    0.17924123937180   -0.34925113626613
O         0.76145624846280    2.65664585394023   -2.24394948747519
O         0.97753311369466    2.94093949954251   -0.87912467240806
O         2.33548396528972    0.33033067962251   -0.16103905439584
H         1.87985065392695    3.29304124345081   -0.82949984055544
H         2.26541040037334    1.24577750813778   -2.45590174260656
H         0.89533795944633    1.25387521763991   -3.61245860226942
H         0.47991693158997   -0.09189937028694    0.47765993444322
H         0.54099165074584   -0.67772636499056   -2.17451082979980
H        -0.56688837719749    0.56218359382231   -1.55601139422207
12
Properties=species:S:1:pos:R:3 -21.513236048619=T gnorm:=T pbc="F F F" 0.000776180738=T energy:=T xtb:=T 6.2.3=T 830e466=T
C       1.50120903       1.55914260      -2.84334302 
C       1.03480761       0.49657836      -1.87665954 
C       1.71953570       0.16733389      -0.82744397 
O       1.04322111       2.84716339      -2.51276930 
O       1.75410074       3.31696047      -1.36618461 
O       2.35983323      -0.17101525       0.08008113 
H       1.27019165       4.12174441      -1.14155637 
H       2.59472522       1.56390753      -2.91092287 
H       1.06652806       1.38895855      -3.83027436 
H      -1.32622768      -1.17078840       0.74312438 
H       0.03053330       0.12671585      -1.98985231 
H      -0.65935798      -0.90719141       0.43999084 
