12
 energy: -21.568775336462 gnorm: 0.000734409221 xtb: 6.2.3 (830e466)
C         1.34177012237609    1.45039200190280   -2.19355291214703
C         0.63630003400346    0.54873807782601   -1.17953183352087
C         1.39238343984738   -0.71399295299153   -0.90765440244976
O         0.63454351314994    2.63304299158551   -2.45403768981097
O         0.63037888028595    3.45456397987836   -1.28369004542498
O         2.43779191959084   -1.02538559688908   -1.40306150756824
H         0.52561645814773    4.34066509102968   -1.65389398691956
H         2.35716964561642    1.67576470448322   -1.84545332166242
H         1.39803028630144    0.96848442726294   -3.17234278500554
H         0.88687891583086   -1.37399563998351   -0.17421518171331
H        -0.36597002169126    0.29007631558430   -1.53086361777373
H         0.51401680654116    1.09125660031129   -0.23751271600362
12
Properties=species:S:1:pos:R:3 6.2.3=T gnorm:=T pbc="F F F" 0.000890283482=T -21.596380966904=T energy:=T xtb:=T 830e466=T
C       2.11422563       1.77302431      -3.23280742 
C       0.10109877       0.96754755      -0.27334273 
C       1.00999071      -0.08029711      -0.85398866 
O       0.98049065       2.17347104      -3.23887423 
O       0.46021625       2.29313752      -0.48892700 
O       1.90895549       0.08390080      -1.63592379 
H       0.54443248       2.45717280      -1.44531712 
H       2.88956979       2.20087022      -2.58183493 
H       2.46913162       1.00540285      -3.93364925 
H       0.75750454      -1.09765212      -0.49385994 
H      -0.90728154       0.74225692      -0.66970641 
H       0.06057561       0.82077523       0.81242148 
