12
 energy: -21.568764869560 gnorm: 0.000327053240 xtb: 6.2.3 (830e466)
C         1.35338309649353    1.42576187433111   -2.19001322354390
C         0.57892010412783    0.57527616312482   -1.18250644153674
C         1.25805839079785   -0.72520736859801   -0.88588427452914
O         0.72084821978578    2.64633892645253   -2.47252704025366
O         0.73898222205053    3.48138163971089   -1.31569389387970
O         2.29809088765284   -1.09441829786526   -1.35259739189275
H         0.93014997511507    4.35389652455459   -1.68355797712280
H         2.37455066748404    1.59286215091603   -1.82578155616310
H         1.39801641911889    0.93301267984522   -3.16405715573865
H         0.69815550325448   -1.35384402883208   -0.16449668002684
H        -0.42987240476922    0.37165842031990   -1.55088727980984
H         0.46972691888842    1.13258131604027   -0.24759708550289
12
Properties=species:S:1:pos:R:3 -21.561986097977=T gnorm:=T pbc="F F F" energy:=T 0.000699087226=T xtb:=T 6.2.3=T 830e466=T
C       1.82146820       2.41206865      -2.76289081 
C       0.05899338       0.61679196      -0.56843698 
C       1.14505617      -0.43265554      -0.66306367 
O       0.53757164       1.97183572      -2.39328938 
O       0.42429273       1.90593352      -0.97242947 
O       2.26208090      -0.26486455      -1.05093509 
H       2.01957076       3.41551702      -2.37737567 
H       2.59460278       1.71949549      -2.42000097 
H       1.78718838       2.43054267      -3.85086532 
H       0.78484568      -1.42616527      -0.32697983 
H      -0.81649223       0.26103174      -1.13154903 
H      -0.23016839       0.72976858       0.48221622 
