56
 energy: -94.153367194863 gnorm: 0.000156866377 xtb: 6.4.0 (d4b70c2)
c         0.96554716999974   -2.74177403999975    0.17727162000002
c         1.16832473000018   -4.23932533000001   -0.00732709000009
c        -0.46061281000015   -2.35403843000006   -0.23247500999993
o        -0.76651547000013   -2.21196530999986   -1.41317611000005
o         0.78974222000022   -0.08232139999975   -0.23277365000020
o         1.13933489000016   -1.67997875000005   -3.47719251999990
n         1.87833775000024   -1.99667252000018   -0.67016258000001
c         1.62665881000004   -0.68879063999998   -0.88332230000005
c         2.37922721999985   -0.08253094999992   -2.04904987999982
c         1.46157352000017   -0.33046621999991   -3.28822829999975
n         2.66627241999974    1.31187143000019   -1.80260605999978
n        -1.33469471000015   -2.24546139999986    0.76859922000021
c        -2.73149367999982   -1.90189817000006    0.56162553000010
c        -3.56891233999997   -2.45022377999994    1.70579585000026
c        -2.90516107999983   -0.36998390999976    0.44567554999984
o        -3.52031218999983    0.28546418999994    1.25867307000022
n        -2.33310336000025    0.14155747000007   -0.65984389999975
o        -0.12435088000003    2.47852208999980   -1.42526253999986
o        -0.74487029000024    2.09218530999977    0.71258858999994
c        -2.31928166999980    1.56416543000019   -0.93812610999987
c        -0.92534579000004    2.10978061999980   -0.61017734999978
c        -2.68748764000025    1.83544721999977   -2.38973752999977
h         1.13595318000016   -2.44910077999997    1.21971923000010
h         0.95804688999974   -4.51991736000002   -1.03782475000005
h         0.49839099000004   -4.78977758999985    0.64786629000004
h         2.19326217999990   -4.50971496000007    0.23480977000026
h         0.44076954000011   -1.93833372999997   -2.84620459000008
h         2.40667669000014   -2.50954704999985   -1.36001871000015
h         3.32503996999977   -0.61673320999980   -2.19997117999999
h         1.99583327000015   -0.00862597000007   -4.18793456000020
h         0.56381566999979    0.29166647000004   -3.17294626000024
h         1.81710516000007    1.78003880000006   -1.49465940000000
h         2.96744853000006    1.76219508000006   -2.66061170000012
h        -0.99018959999988   -2.21185341000025    1.71986703000014
h        -3.03182981000008   -2.34691827000014   -0.39498053999977
h        -4.61736501999986   -2.22765621999982    1.53113047000019
h        -3.27527027000016   -1.97537407000008    2.63888434999983
h        -3.44003035000001   -3.52618875000004    1.79034292000024
h        -1.76995086999990   -0.46097822999995   -1.24883763999995
h        -3.03797923000001    2.01625060999982   -0.24373634000014
h        -2.70025139999993    2.90535559000015   -2.57711561000004
h        -3.66832728000007    1.42247481000020   -2.60820543000005
h        -1.95399454999982    1.38066160999975   -3.05122923999977
c         0.51722359000018    2.23847331999974    1.26055915999984
c         0.94182573999997    1.24207740000020    2.15356321000010
c         1.35182380000023    3.29404990999991    0.93955873000014
c         2.21983145999983    1.32383645000026    2.69986159999995
c         3.04958205999986    2.38213519999983    2.38473633000010
c         2.61435277999983    3.36264490999989    1.50796419000002
h         1.02288834000024    4.04841453999992    0.24236526999977
h         4.03869646000010    2.44036060000025    2.81264321000020
h         3.26398492000011    4.18573378000004    1.25238262000009
h         2.53920017000005    0.54118575999993    3.37183802000003
c         0.06254597999988    0.10514940999985    2.41603171999990
o         0.40688003000009   -0.97371238999989    2.84721420000026
h        -0.99395227999993    0.30077797999989    2.17213985000023
56
 energy: -94.067259657388 gnorm: 0.099914469555 xtb: 6.4.0 (d4b70c2)
c         1.01042683719878   -2.66978341998130    0.20051622355667
c         1.39727880063567   -4.12612187565401    0.41795391836598
c        -0.42688889908422   -2.37021873354092   -0.24282108427638
o        -0.71120587851223   -2.31800646261636   -1.43624223052997
o         0.98558170967553   -0.05361024624262   -0.19981792293241
o         0.93591782461913   -1.47505301295332   -3.72351812617303
n         1.86832793995512   -2.03440428004286   -0.78274706228946
c         1.70598104977943   -0.70470335780304   -0.94045981710429
c         2.32647661901357   -0.08809474521443   -2.17642497958644
c         1.26911080956887   -0.17548077397992   -3.32248980996195
n         2.61930259703087    1.28807096838957   -1.84793087562283
n        -1.32532853877547   -2.23490310116347    0.73311623439740
c        -2.72579033765023   -1.88336851300764    0.56864328483522
c        -3.44680691179448   -2.34915148294369    1.82332971419233
c        -2.86846229964372   -0.36467248401630    0.31650610964883
o        -3.43620054218477    0.35194603589838    1.11219402476604
n        -2.37456098063731    0.10537100990059   -0.84376044791166
o        -0.09946747874637    2.49449704887420   -1.44501439562864
o        -0.73636159721006    1.89425514957704    0.65490899760970
c        -2.29503750984482    1.54234653082088   -1.01760758227056
c        -0.88939397700216    2.03939008248973   -0.66346414154268
c        -2.80410021765459    2.02834960941686   -2.36705241199967
h         1.12584019082313   -2.09326327353087    1.12555521969021
h         1.00532089194190   -4.72164051514879   -0.40460345510778
h         0.93941239223468   -4.43211264940661    1.35487188190534
h         2.47782685776348   -4.05897381990092    0.51867443478025
h         0.32969437995659   -1.75368304633613   -3.01095581214279
h         2.34934116734387   -2.60581326190429   -1.46112885033944
h         3.28408738580402   -0.56542341875469   -2.41694526684728
h         1.72408797680527    0.26436252086396   -4.21580925713255
h         0.37887542397587    0.36009105279432   -2.96618661506708
h         1.90309938347413    1.79513893765115   -1.33311838672266
h         2.86131496708844    1.77742641544289   -2.70328657736591
h        -1.09590513501335   -2.05827610567078    1.70311186413997
h        -3.12719245216497   -2.25739321254738   -0.38126288008220
h        -4.50226855776851   -2.10409010241684    1.75092135714646
h        -2.98385324917361   -1.86971861741383    2.68250379169987
h        -3.22988722576783   -3.41331777564084    1.77911045670909
h        -1.81975906998075   -0.57279106731658   -1.35306847519526
h        -3.01305138130762    2.02875360049907   -0.34608051629874
h        -3.18635325971550    3.04277324412639   -2.29773658508848
h        -3.44777818838116    1.24448966729951   -2.75636346876143
h        -1.96621885601751    2.08508290079221   -3.05781250573796
c         0.50504170692394    2.08810540969681    1.23447169198227
c         0.87658498291422    1.15020267086098    2.21060808403905
c         1.41230540869900    3.05470020634803    0.83898726321862
c         2.11113932124837    1.23941276515733    2.84805797026310
c         2.98724092390832    2.24980127083485    2.50259110613821
c         2.63153666305653    3.13092363411188    1.49429991937387
h         1.34972675325586    3.84017018157428    0.10246561351583
h         3.91518581993474    2.44007768550488    3.01984827552399
h         3.41911434569022    3.75090329548218    1.09409273631605
h         2.33240610014444    0.58043774792335    3.67442578875429
c        -0.05617676981537    0.09755626486752    2.60623297134880
o         0.23458693826286   -0.97545947389370    3.08843706665125
h        -1.13602309662237    0.25658623728068    2.45595397636986
56
 energy: -94.052657988369 gnorm: 0.115063040765 xtb: 6.4.0 (d4b70c2)
c         1.16531251238093   -2.33577766359411    0.26404864735095
c         1.57264592783270   -3.70207548402034    0.79805712714052
c        -0.31699619034573   -2.25335712270875   -0.12082962011874
o        -0.63814497586308   -2.32565386653470   -1.30381438335132
o         1.05814772806863    0.08953893232843   -0.56379140430668
o         0.53437369227430   -1.20865761302103   -3.92903949111487
n         1.95703178986557   -1.93625409818222   -0.88489398000778
c         1.72307521904350   -0.66191743707091   -1.25994701011958
c         2.30001275557701   -0.14575444437969   -2.56131155109968
c         0.96161616756783   -0.00558302635526   -3.35388326271769
n         2.99484176010133    1.10734225517501   -2.37570761564377
n        -1.17730539624794   -2.10596837891258    0.88718942852219
c        -2.57872419185483   -1.85402456853077    0.59655072909761
c        -3.49532399776602   -2.50108284760175    1.62232706734470
c        -2.80018194180889   -0.33540210187312    0.40917852419407
o        -3.37700831293120    0.33505962757265    1.23787658662308
n        -2.28285442670855    0.09664143465430   -0.75564270617099
o        -0.07265411388874    2.48326987393329   -1.41749839477228
o        -0.74258340666121    1.95472361632219    0.68285410689921
c        -2.26823083256557    1.52193008990266   -1.01980898019057
c        -0.88593260717167    2.06356874865687   -0.64009502570940
c        -2.69993778034781    1.79419523054157   -2.45363112524750
h         1.32256028780610   -1.66226593307660    1.11437091494921
h         1.58875307006733   -4.43019358648093   -0.01092907549313
h         1.04239112112573   -4.02260858518198    1.69090406032764
h         2.62867370128075   -3.60645978865661    1.03868250033230
h         0.25901388131984   -1.83549108569713   -3.23323536355953
h         2.52612493835916   -2.61654899025863   -1.36595078923241
h         2.89918561060076   -0.90974528504346   -3.07123403554653
h         1.17229777668224    0.54638366491668   -4.27552962293211
h         0.17401709974206    0.56929499250809   -2.84840214255548
h         2.38998690875927    1.74037681830581   -1.85752355704174
h         3.25747950476251    1.55042877685087   -3.24998895906899
h        -0.91827856645557   -2.18141957786306    1.86286147432939
h        -2.85064411622512   -2.10576504470655   -0.43593469275519
h        -4.56417328771945   -2.47817550488950    1.43171283012821
h        -3.41946839060213   -2.12566159828411    2.64000426368749
h        -3.20939411322286   -3.54973717576545    1.62758005192189
h        -1.88317406461630   -0.64030891209956   -1.32508402349212
h        -2.99923332206750    2.04431475884480   -0.39065562070549
h        -3.77430094328628    1.88878690024319   -2.58314399900271
h        -2.56718252977233    0.88726504100976   -3.03687593276425
h        -2.03802421301260    2.55781378933211   -2.85509154507443
c         0.51564198479731    1.98237131682929    1.25788212470504
c         0.67070519438815    1.14562950302955    2.37428993441235
c         1.61030927669342    2.72900497748710    0.86028652299480
c         1.84700921802732    1.13635042782662    3.11903667002485
c         2.90348770215919    1.92178939490590    2.70103546983332
c         2.81448671458641    2.68085785385296    1.54542003407596
h         1.46168830049647    3.24298728486234   -0.07623746734148
h         3.75159771944897    1.83166896334796    3.36241997268457
h         3.66530609261068    3.28464546707800    1.26907603034257
h         1.70079712274319    0.57027697909189    4.02693182349053
c        -0.39005452536216    0.24446527662646    2.81849662212468
o        -0.18853211299355   -0.86623545924634    3.25913206852721
h        -1.43562528647467    0.58529532286061    2.75097649138114
56
 energy: -94.066869390018 gnorm: 0.135940703002 xtb: 6.4.0 (d4b70c2)
c         1.31616423407885   -1.74837732116691    0.34688856426182
c         2.04236220590563   -2.63805973980221    1.34636692446685
c        -0.11355378082888   -2.08865509786347   -0.09160993396076
o        -0.29022380977683   -2.17738865408700   -1.30352179465547
o         1.19860797190492    0.52638616040700   -1.11025458653469
o        -0.36696932252224   -0.73482895447983   -3.79810279952600
n         2.13010884058524   -1.54349225925307   -0.83718235179291
c         1.71998645839170   -0.48179458582009   -1.56101385979140
c         1.98648456997321   -0.45108384673635   -3.05127102691223
c         0.79004991958910    0.04363259504839   -3.92472574181700
n         3.16768942895677    0.36823808554532   -3.19602652438760
n        -1.02334798314216   -2.28878689679173    0.86242336382023
c        -2.40374045626365   -2.04348528931509    0.47997740116584
c        -3.29393283787869   -2.61675048678092    1.57084001966454
c        -2.62444603059637   -0.51776780425269    0.36232839332030
o        -3.27237390782605    0.06468208118987    1.20490164169557
n        -2.16763150847405    0.03330732827926   -0.77729197652992
o        -0.16059269377574    2.88940356338644   -1.18193271576279
o        -0.62980322096464    1.68718731101392    0.71913070610567
c        -2.12521902168071    1.46796794379210   -0.98075098677906
c        -0.82201511050993    2.13277846617112   -0.52469159714493
c        -2.45366855579359    1.71255251476642   -2.44657651538505
h         1.24140092826466   -0.82016987761912    0.92501852986992
h         1.86096969176872   -3.68892695375797    1.12808055314974
h         1.57247936181637   -2.53073269784684    2.32041943404214
h         3.08629667277244   -2.40987391568484    1.54728891662623
h        -0.20313681478384   -1.47713956550790   -3.18571364387898
h         2.44760452346586   -2.35643640882188   -1.34354398315651
h         2.24378232348536   -1.44988674300377   -3.42396620106934
h         1.09824267824094    0.02491306927872   -4.97503654557468
h         0.43636408219365    1.04817778809751   -3.65620484144738
h         2.94187173502124    1.33363876221434   -2.96776183161734
h         3.37149103471018    0.31613549701150   -4.18871093704256
h        -0.86605718350539   -2.08054791516816    1.84049281352248
h        -2.65921097744616   -2.55829988293776   -0.45438901896882
h        -4.32311662493475   -2.66512922549315    1.22771093690118
h        -3.28069990700475   -2.13648736878484    2.54630621081318
h        -3.00777083379912   -3.64397183824304    1.78152223309504
h        -1.72726769911323   -0.73340882078557   -1.27259965610306
h        -3.02006592981089    1.81216354568387   -0.44796325626836
h        -1.51343009532256    1.48106490257507   -2.93885946773929
h        -2.80937142591651    2.72016102138333   -2.64284522296229
h        -2.99106645793163    0.83972759309896   -2.80961026344522
c         0.56220536481684    1.73764998421287    1.41993171934261
c         0.40505983194145    1.07408531671066    2.64693433284273
c         1.80421842674155    2.16573315364852    0.98635448433565
c         1.54863230234000    0.85808889244990    3.41114160888375
c         2.82382499270658    1.16886643982958    2.98092396201726
c         2.90193790034164    1.79622717246362    1.74809382700541
h         2.00724280071825    2.64572583680137    0.04203915687945
h         3.64332521832051    0.93417865719914    3.64287777331083
h         3.86081699654973    2.15617648312558    1.40779021550793
h         1.39129202832122    0.41652934851567    4.38395198969112
c        -0.94851934790112    0.70494294425790    3.05459264498262
o        -1.14397183501984   -0.33761225826918    3.64051419735878
h        -1.82234398051228    1.35917400197542    2.90507799068618
56
 energy: -94.067232258171 gnorm: 0.120112774037 xtb: 6.4.0 (d4b70c2)
c         1.62385438613054   -1.20404554882759    0.13936899937386
c         2.37835006084171   -1.76956588095563    1.33468416968935
c         0.28425771966768   -1.92880921396960   -0.04052529963848
o         0.01799981263686   -2.41106645557734   -1.13795457541180
o         1.19905323244334    0.68277103398190   -1.82506370994927
o        -0.50649234904238   -0.41821226776368   -3.49768489253829
n         2.34394887206074   -1.15199932597920   -1.11970320183210
c         1.80755548472569   -0.34930913561596   -2.06167188691208
c         1.85256316308227   -0.93099849523679   -3.45897023022779
c         0.67837079559439   -0.23975920447164   -4.22224208009175
n         3.14672640863027   -0.86582644899855   -4.09801766463698
n        -0.65045589311818   -1.72324306969886    0.88792008467605
c        -2.05046470525731   -1.86404444516602    0.52450363737689
c        -2.87720238877654   -2.60337386782606    1.56419280026899
c        -2.60766354220585   -0.46514806066224    0.17381217788475
o        -3.41411720570023   -0.00785419453900    0.95451885931048
n        -2.07624292063399    0.13495227225144   -0.90719182277427
o        -0.44232617281168    3.19742970633402   -0.41722050677878
o        -0.69145576107158    1.29018543320155    0.75100098209043
c        -2.19971443135842    1.57764597125084   -0.97672716803790
c        -0.97774762168445    2.13722467618333   -0.24053939213725
c        -2.23573028747386    1.98610913418638   -2.44240308978075
h         1.51370298458316   -0.13771258866561    0.36782813194700
h         2.74033836492144   -2.71367200998284    0.93156858540917
h         1.79938269447482   -1.82863631421850    2.25250482370252
h         3.24150288029386   -1.11483702730251    1.42706886205032
h        -0.44016473899396   -1.35130507444458   -3.21871343424726
h         2.80260882614749   -1.94361818877430   -1.54520812753497
h         1.58861160047639   -1.99486890364607   -3.42403611083422
h         0.56480145936424   -0.71781000635077   -5.20053417528124
h         0.90621917459061    0.81521242701815   -4.42578118848226
h         3.61854115444352    0.03140893029324   -4.01166726068007
h         3.13791452016086   -1.15171208691064   -5.07160067340181
h        -0.36727918424590   -1.31249289678795    1.76872595877734
h        -2.02002826543083   -2.36693538602306   -0.44992655759313
h        -3.91988859585733   -2.62325733663440    1.26136039581911
h        -2.79471800300318   -1.99989978730634    2.46495771304512
h        -2.45753319511006   -3.60077777072140    1.66677262459148
h        -1.40267376677210   -0.32708789091549   -1.50713109694751
h        -3.16259862444166    1.78174500725724   -0.49270031971166
h        -2.96679015451257    2.78177774856510   -2.55393924569863
h        -2.36036911304688    1.06004454998197   -2.99665067877407
h        -1.24793208729116    2.25499248461629   -2.80896797453643
c         0.35896796179256    1.46846315063902    1.63382603757866
c         0.08322616546691    0.92245359125565    2.89730862202668
c         1.68360696717944    1.65749601688351    1.28248723669130
c         1.12535569569066    0.51688632193082    3.72670988272682
c         2.42593537216785    0.64732605846024    3.28031959308646
c         2.74372250770162    1.30682475126838    2.10404323327877
h         1.92356973568013    2.10715984061636    0.33192759758143
h         3.22820558710685    0.27930790434543    3.90142100551988
h         3.79498157255945    1.29634375369974    1.85998645408563
h         0.90933851795006    0.06544580685966    4.68359486975060
c        -1.29056569390883    0.87655558235865    3.39250282072042
o        -1.63397848582902    0.09166254400659    4.24949620776207
h        -1.94814622143094    1.63025512100407    2.93047765788777
56
 energy: -94.077934948168 gnorm: 0.105254091583 xtb: 6.4.0 (d4b70c2)
c         1.94975338212849   -1.39410752483334   -0.22215659079322
c         2.77778960602973   -2.21136854534661    0.75982901299828
c         0.52237176547571   -1.92456864706515   -0.40479342435674
o         0.30578075839290   -2.74757539344734   -1.28998522783506
o         1.79463229663211    0.56787637896149   -2.31714167873860
o        -0.73314222761997   -0.93401942230041   -3.99831931527071
n         2.50770221103310   -1.44515713343590   -1.56103473471059
c         2.01621363381548   -0.61809408575204   -2.50641299867476
c         1.73522755048407   -1.34935916306675   -3.80222510827072
c         0.53314975307505   -0.67574040448773   -4.53732381302246
n         2.92990444959326   -1.59346724405609   -4.57723856162536
n        -0.36877727767166   -1.32468540709972    0.38511241631506
c        -1.78205358620946   -1.64587881240528    0.27831335374442
c        -2.14916402682677   -2.28783961708942    1.60653508266024
c        -2.51724527679747   -0.30052832448513    0.07858524692298
o        -3.46770269094391   -0.03542003751937    0.78238662166870
n        -2.02885017338708    0.45464836884013   -0.92255224142903
o        -0.59955212904298    3.42430161319528    0.09517735224845
o        -1.06452189764642    1.51990664922241    1.21652376361612
c        -2.19064777868656    1.89279579959051   -0.83889245946242
c        -1.22609344839310    2.40936251021758    0.23399961222026
c        -1.92395678892654    2.44418849430513   -2.23215740022350
h         1.78432149265542   -0.34843980463523    0.06175215243593
h         2.68963506118465   -3.24684524671604    0.43596042566256
h         2.18183345385710   -2.05012796879946    1.65421428401507
h         3.81413475511851   -1.89709716708160    0.85709062098838
h        -0.91212637977465   -1.87635500898817   -3.81706003383622
h         2.82743750178937   -2.32634935661653   -1.93433543024363
h         1.37639167574946   -2.30066702766392   -3.39117618950546
h         0.58500512007795   -0.98022393794316   -5.58760319501936
h         0.64694515869538    0.41587026430014   -4.49555129091261
h         3.29361779660310   -0.69304494830649   -4.88063460286877
h         2.73552806641911   -2.15177535212005   -5.40197003036520
h        -0.13048971027276   -0.61057557408527    1.06186192466690
h        -1.83120501549032   -2.37769995883075   -0.53738377355056
h        -3.17920628943618   -2.62744758216418    1.55197590509558
h        -1.99419841010120   -1.57134542597322    2.40964391313553
h        -1.46112847586953   -3.12751162680659    1.66146584133550
h        -1.22316128581891    0.13412204067653   -1.44717774468331
h        -3.15702776822074    2.14286339312108   -0.38429343395939
h        -1.82424194987488    1.71549396626940   -3.03155631155585
h        -0.94912231165298    2.92256975480018   -2.19795287743935
h        -2.64763456707132    3.20533963372559   -2.51385363245619
c         0.01144315462323    1.42929862404845    2.08176499809761
c        -0.24701533685362    0.86492469729991    3.34082396485358
c         1.29251802458330    1.80983884843537    1.72416583375094
c         0.81016889428774    0.72789638803568    4.23637404442409
c         2.09271803366998    1.14877561889122    3.94360335419265
c         2.27725780857666    1.72226441300594    2.69596200881607
h         1.49606494857215    2.22038864289584    0.74776385773217
h         2.91715636695264    0.97071453461042    4.61698103916143
h         3.23690078664748    2.08481316104483    2.36060707766706
h         0.46608863205612    0.33460290387119    5.18137130944016
c        -1.59540474848752    0.49138317226982    3.76146717249909
o        -1.85598995744348    0.37237224536971    4.93890457492484
h        -2.27934421414466    0.38421946887449    2.90432941302857
56
 energy: -94.076207243004 gnorm: 0.114983235366 xtb: 6.4.0 (d4b70c2)
c         2.27507559568118   -1.77959568928358   -0.67467937389525
c         3.09756854347802   -2.71607935126280    0.19959689356527
c         0.78867920291293   -2.14077761816118   -0.56360789223620
o         0.27908397843754   -2.95946387704314   -1.32379327446792
o         1.63928104596754   -0.08817945412567   -2.73433489044365
o        -0.58871503731472   -1.14578157093931   -4.14535207671823
n         2.59510015980794   -2.02949332511982   -2.06810791268044
c         2.02060274494451   -1.22148266716029   -2.98266018846405
c         1.74079444792930   -1.77113331946592   -4.36556376162106
c         0.51197660209167   -1.05042665080194   -5.00565123050733
n         2.92163591011820   -1.67603953783710   -5.19264182015028
n        -0.01899117508133   -1.31697597372712    0.10495561900928
c        -1.44735161000655   -1.58467562233367    0.11162920279344
c        -1.89296862066180   -2.32186028127769    1.36424285917113
c        -2.27394448422018   -0.28616639911429   -0.03322967854760
o        -3.25780040789370   -0.08963275480848    0.64676306038294
n        -1.71572006934741    0.67167423669655   -0.79613511681325
o        -0.92007727366757    3.71719487228833    0.64272632457344
o        -1.25757631374522    1.74598829032972    1.57695958786559
c        -2.13116395035242    2.05224723748715   -0.64490671350799
c        -1.40605107003182    2.62094906579507    0.57946788691599
c        -1.74695771635135    2.89888340581884   -1.84987059239909
h         2.43936047698599   -0.71783850587525   -0.45771157117143
h         2.89874573911926   -3.78327824538833    0.11940900311205
h         3.10861650754389   -2.49274835247439    1.26312332931224
h         4.10773275095613   -2.47112834179459   -0.11947185210694
h        -0.83205306642680   -2.08817160238220   -4.07069121708360
h         2.38886244823037   -2.97916543329680   -2.33953505355981
h         1.52449347005931   -2.83171384093020   -4.18922914726238
h         0.31298939584363   -1.45747291758800   -6.00224714151824
h         0.78681071769518    0.00970477013318   -5.08869199947853
h         3.03247501760347   -0.67434484768901   -5.33199499456159
h         2.68647349216177   -2.02770430987107   -6.11497724862044
h         0.37781525299686   -0.71191232212410    0.81288665567770
h        -1.72030644145931   -2.16178915284679   -0.78043328961117
h        -2.96914962338028   -2.26502507174830    1.49803951626842
h        -1.47688208085976   -1.89283171234915    2.27263073937725
h        -1.64963761634426   -3.37539698372553    1.47519253924582
h        -0.89515185636436    0.51235670134693   -1.36918778588793
h        -3.20363567803542    2.10389044343197   -0.42080465305382
h        -0.75057207229945    3.31017977647351   -1.71560099075636
h        -2.32773071014175    3.78558363938971   -2.08816928040254
h        -1.85063780735467    2.18580217096127   -2.66422858530538
c        -0.26866814508441    1.81361741915601    2.54238175052370
c        -0.58952301827919    1.38083342938553    3.83864499174756
c         1.02886543488655    2.20641928962955    2.26678392734745
c         0.43477855537811    1.31104688877681    4.77904987383636
c         1.73583525990775    1.70188804413527    4.52948835765849
c         2.01966675166435    2.08555797697062    3.22879995384567
h         1.33664509366453    2.45081279911996    1.26235035583419
h         2.45850614649316    1.61270754334274    5.32612845902080
h         3.00088199568922    2.42489278813884    2.93403274479132
h         0.23063129608028    0.91723146314328    5.76359247849310
c        -1.90937729184783    0.87837260133501    4.21300552553507
o        -2.10436501094063    0.18224711323857    5.18553634253748
h        -2.63540169328642    1.22532534506561    3.46037364072190
56
 energy: -94.064126671139 gnorm: 0.116109221165 xtb: 6.4.0 (d4b70c2)
c         2.28541675375706   -2.23099881785169   -1.12828111890284
c         3.14530313475198   -3.20744061640974   -0.33770403612439
c         0.79217993238581   -2.53370688149724   -0.95285268273265
o         0.28465305680073   -3.53284894894630   -1.45479681533349
o         1.43140831913147   -0.42558078750784   -3.04119614082167
o        -0.56890186513011   -1.52045702956433   -4.45203876210253
n         2.38045400078676   -2.42729026779136   -2.56318363744036
c         1.92081534826421   -1.48234891166916   -3.40885054367400
c         1.86848272733633   -1.99596799031902   -4.83232782108408
c         0.48038165892898   -1.53414768264015   -5.37915576265264
n         2.94515875738813   -1.44241283228084   -5.62089165257210
n         0.18973713087050   -1.54028711867983   -0.29853042119358
c        -1.23335771552272   -1.58969164038317   -0.00821776186949
c        -1.53694434093163   -2.27864118222041    1.31247918060548
c        -1.91729584499872   -0.20746230342027    0.10149455341550
o        -3.00851789032278   -0.04655680211377    0.60382109407982
n        -1.22098385223011    0.81419936296296   -0.42997034832592
o        -1.29032442519989    4.04944065828065    1.11339735728098
o        -1.12804451397561    1.92969345795115    1.85830347361042
c        -1.82206885116340    2.12935049569345   -0.32740447603494
c        -1.34242286603777    2.86402876499249    0.92897568314753
c        -1.71061367721342    2.93526400741709   -1.61364951871781
h         2.34636993044112   -1.14557318883979   -0.98853568838762
h         2.95446392042812   -4.23562145486649   -0.63986069095939
h         2.82915701873097   -3.07000441938632    0.69295119156205
h         4.22815384875986   -3.22370115479532   -0.43469638732594
h        -0.71359636912523   -2.44945412285909   -4.18952302356859
h         2.56998863711326   -3.34640333674668   -2.93384735383986
h         1.94063689587217   -3.08985597247931   -4.86255879748744
h         0.34987965315252   -2.11791713928751   -6.29603548750790
h         0.62041461078166   -0.49503182101980   -5.70616828384824
h         3.12917860071468   -0.47057822398955   -5.38262487136943
h         2.94868310838457   -1.56650566364458   -6.62799674440399
h         0.78041806182305   -0.90967444430676    0.22886641035012
h        -1.65402636070914   -2.22160759126708   -0.80008895655932
h        -2.60350749922208   -2.43063679711852    1.44899914936435
h        -1.19608836368389   -1.74598715186586    2.19704627912880
h        -1.13324967799142   -3.28679746048591    1.26653429925743
h        -0.40855861472158    0.90080661036523   -1.02961028100551
h        -2.89896708672461    2.07409984993115   -0.12660133979220
h        -1.99667373911055    3.93472391015622   -1.29864646825788
h        -2.33586644250404    2.47812472146454   -2.37549168474334
h        -0.66148695780039    3.12012263244494   -1.83176361976537
c        -0.30013262862961    2.15052055360485    2.94474265336673
c        -0.77877912481340    1.65044347540893    4.16595857829674
c         0.97222462676621    2.67979819478630    2.82303485286580
c         0.01942484861262    1.75331017496461    5.30205445238918