[Molden Format]
[Geometries] (XYZ)
12

C        0.766878       1.115723      -2.630970
C        0.255875       0.488708      -1.328081
C        1.354039       0.456987      -0.296647
O        1.154794       2.451777      -2.454657
O        2.288249       2.497799      -1.595703
O        1.261286       0.892285       0.816160
H        2.103800       3.250074      -1.015902
H        1.602808       0.529497      -3.033158
H       -0.028822       1.181047      -3.375940
H        2.276348      -0.042350      -0.647926
H       -0.053768      -0.537489      -1.532310
H       -0.592408       1.055542      -0.940566
12

C        0.777170       1.252999      -2.712816
C        0.372886       0.543689      -1.405373
C        1.430058       0.600075      -0.311106
O        1.163631       2.591362      -2.565707
O        2.177729       2.509338      -1.564375
O        1.341703       1.183410       0.726559
H        2.433931       3.250511      -1.031561
H        1.622423       0.700223      -3.169514
H       -0.072892       1.252078      -3.407415
H        2.234945      -0.153589      -0.442975
H        0.203219      -0.488465      -1.684461
H       -0.529159       0.972830      -0.973457
12

C        0.789286       1.327246      -2.771607
C        0.437475       0.600224      -1.442785
C        1.497548       0.683377      -0.330787
O        1.168219       2.684237      -2.668223
O        1.992932       2.581980      -1.512236
O        1.496222       1.354677       0.658208
H        2.591372       3.135281      -1.079034
H        1.672354       0.818430      -3.201312
H       -0.054213       1.268694      -3.466793
H        2.116923      -0.247679      -0.334185
H        0.343950      -0.421930      -1.785292
H       -0.484151       0.920759      -0.969766
12

C        0.763898       1.430485      -2.786120
C        0.443533       0.701650      -1.443649
C        1.532110       0.811764      -0.312142
O        1.160454       2.774596      -2.702570
O        1.714641       2.685464      -1.451278
O        1.594829       1.512312       0.611576
H        2.634757       2.958940      -1.104917
H        1.675961       0.954115      -3.179868
H       -0.058531       1.360216      -3.495074
H        2.009136      -0.203063      -0.227545
H        0.404567      -0.314253      -1.831156
H       -0.488319       0.932140      -0.948074
12

C        0.703430       1.624130      -2.743282
C        0.404046       0.868718      -1.404027
C        1.498154       1.022968      -0.259302
O        1.045328       2.977317      -2.588962
O        1.332287       2.938302      -1.299959
O        1.576297       1.789981       0.608366
H        2.652025       2.698008      -1.157232
H        1.633366       1.176407      -3.128222
H       -0.097231       1.537953      -3.469874
H        1.899896      -0.014478      -0.102752
H        0.409460      -0.156587      -1.773608
H       -0.545552       1.075236      -0.929833
12

C        0.639127       1.753972      -2.665485
C        0.361130       0.971504      -1.355442
C        1.461340       1.176344      -0.240038
O        0.892789       3.131349      -2.436831
O        0.979204       3.184455      -1.125074
O        1.526635       2.060198       0.575608
H        2.555126       2.259916      -1.175153
H        1.586023       1.354074      -3.050389
H       -0.139480       1.659941      -3.413102
H        1.790642       0.142391       0.021839
H        0.395650      -0.070532      -1.694083
H       -0.604857       1.174615      -0.897951
12

C        0.587546       1.825538      -2.580922
C        0.323238       1.028044      -1.318051
C        1.464901       1.286183      -0.277974
O        0.751820       3.207881      -2.227079
O        0.665621       3.281332      -0.927137
O        1.466426       2.329840       0.448152
H        2.456705       1.785355      -1.125877
H        1.543845       1.462886      -2.974149
H       -0.174045       1.766425      -3.358773
H        1.705322       0.306447       0.143971
H        0.370698      -0.026145      -1.615100
H       -0.649581       1.229716      -0.873112
12

C        0.670531       1.634218      -2.635670
C        0.465935       0.750488      -1.425333
C        1.599373       1.051508      -0.438006
O        0.787420       3.011190      -2.171765
O        0.603871       3.066415      -0.843199
O        1.590191       2.333642       0.086384
H        2.520573       1.067989      -1.102505
H        1.617402       1.353387      -3.109417
H       -0.133031       1.600849      -3.374984
H        1.669573       0.240341       0.282943
H        0.534909      -0.298555      -1.719779
H       -0.511701       0.926856      -0.974765
12

C        0.732853       1.308780      -2.715126
C        0.516477       0.488800      -1.442612
C        1.673619       0.746408      -0.476628
O        1.077474       2.663804      -2.398437
O        0.962480       2.890683      -1.026658
O        1.936002       2.150527      -0.355145
H        2.598354       0.293187      -0.851219
H        1.570781       0.907334      -3.296129
H       -0.169849       1.317382      -3.335318
H        1.450140       0.348906       0.519178
H        0.461677      -0.569980      -1.685574
H       -0.420928       0.793769      -0.972032
[GEOCONV]
energy
0.0
10.8569981574
31.9389101281
46.5129484547
75.9222211321
125.527266281
109.94273961
43.317948546
29.4934259273
max-force
3.83123130875e-05
0.00331149207153
0.0075472873069
0.00590229660614
0.0113885578913
0.00930722475089
0.00994902259127
0.00559173662671
3.37271213624e-05
max-step
1000.0
1000.0
1000.0
1000.0
1000.0
1000.0
1000.0
1000.0
1000.0
