[Molden Format]
[Geometries] (XYZ)
12

C        0.766878       1.115723      -2.630970
C        0.255875       0.488708      -1.328081
C        1.354039       0.456987      -0.296647
O        1.154794       2.451777      -2.454657
O        2.288249       2.497799      -1.595703
O        1.261286       0.892285       0.816160
H        2.103800       3.250074      -1.015902
H        1.602808       0.529497      -3.033158
H       -0.028822       1.181047      -3.375940
H        2.276348      -0.042350      -0.647926
H       -0.053768      -0.537489      -1.532310
H       -0.592408       1.055542      -0.940566
12

C        0.724386       1.273779      -2.661345
C        0.324847       0.562448      -1.358192
C        1.382844       0.615078      -0.261855
O        1.107210       2.607731      -2.506023
O        2.109126       2.516156      -1.501096
O        1.291569       1.211677       0.776816
H        2.385147       3.268642      -0.988718
H        1.566612       0.721133      -3.112656
H       -0.123211       1.277532      -3.354928
H        2.188954      -0.138857      -0.388693
H        0.156891      -0.472527      -1.641227
H       -0.581827       0.988828      -0.929681
12

C        0.693261       1.382274      -2.692533
C        0.343155       0.657097      -1.358056
C        1.398850       0.735694      -0.242856
O        1.074978       2.736906      -2.579880
O        1.868758       2.627341      -1.407662
O        1.397556       1.399521       0.708388
H        2.521956       3.214488      -1.006367
H        1.562460       0.850662      -3.119976
H       -0.154548       1.328373      -3.383592
H        2.020167      -0.186928      -0.239493
H        0.252611      -0.365784      -1.684170
H       -0.582782       0.985303      -0.901350
12

C        0.651584       1.495364      -2.672903
C        0.330705       0.754047      -1.359819
C        1.411182       0.850191      -0.238893
O        1.054412       2.842388      -2.576173
O        1.603757       2.814506      -1.292847
O        1.510537       1.589134       0.748970
H        2.483238       3.041419      -1.074113
H        1.542643       1.001129      -3.084856
H       -0.167870       1.404484      -3.381748
H        1.858001      -0.187326      -0.132850
H        0.314632      -0.275901      -1.742758
H       -0.602032       0.986866      -0.863709
12

C        0.721612       1.502524      -2.742077
C        0.422434       0.733700      -1.415142
C        1.489625       0.871423      -0.274789
O        1.072504       2.851231      -2.581501
O        1.343716       2.862415      -1.255435
O        1.621012       1.678490       0.621061
H        2.576423       2.469230      -1.248659
H        1.640348       1.053593      -3.165288
H       -0.099446       1.412194      -3.456561
H        1.867782      -0.175326      -0.102875
H        0.426574      -0.297496      -1.760445
H       -0.529935       0.952810      -0.957006
12

C        0.754638       1.491430      -2.766768
C        0.513416       0.703231      -1.448837
C        1.566391       0.869830      -0.310627
O        1.008388       2.878329      -2.525865
O        1.103336       2.999544      -1.209649
O        1.684395       1.767351       0.528370
H        2.497490       1.792922      -1.284602
H        1.686773       1.125534      -3.239322
H       -0.066581       1.381255      -3.478294
H        1.856836      -0.159571       0.016558
H        0.559386      -0.338797      -1.759318
H       -0.461753       0.900744      -1.006234
12

C        0.822197       1.425640      -2.750169
C        0.546827       0.631346      -1.491113
C        1.689816       0.871118      -0.486226
O        1.023112       2.824266      -2.369328
O        0.935689       2.930448      -1.067690
O        1.722488       1.960804       0.227887
H        2.613736       1.307874      -1.309513
H        1.762994       1.048879      -3.157714
H        0.056685       1.387401      -3.521978
H        1.919608      -0.099384      -0.039880
H        0.562051      -0.427168      -1.781069
H       -0.420883       0.857594      -1.038741
12

C        0.823887       1.417435      -2.746029
C        0.605917       0.535048      -1.533004
C        1.748480       0.816937      -0.567340
O        0.995148       2.798427      -2.281744
O        0.826749       2.878374      -0.953756
O        1.758793       2.110115      -0.038805
H        2.663424       0.821394      -1.219084
H        1.758561       1.108980      -3.227152
H        0.013766       1.402177      -3.477805
H        1.814451       0.008816       0.158781
H        0.649792      -0.513194      -1.832471
H       -0.364412       0.728435      -1.070667
12

C        0.732853       1.308780      -2.715126
C        0.516477       0.488800      -1.442612
C        1.673619       0.746408      -0.476628
O        1.077474       2.663804      -2.398437
O        0.962480       2.890683      -1.026658
O        1.936002       2.150527      -0.355145
H        2.598354       0.293187      -0.851219
H        1.570781       0.907334      -3.296129
H       -0.169849       1.317382      -3.335318
H        1.450140       0.348906       0.519178
H        0.461677      -0.569980      -1.685574
H       -0.420928       0.793769      -0.972032
[GEOCONV]
energy
0.0
10.7422249176
30.2105687288
38.5739218101
65.0226854252
120.639044175
95.0363643781
41.2507756503
29.4934259273
max-force
3.83123130875e-05
0.00283008108915
0.0112426452876
0.00988463238556
0.0107367628559
0.00422638532766
0.0103967888618
0.00588171292994
3.37271213624e-05
max-step
1000.0
1000.0
1000.0
1000.0
1000.0
1000.0
1000.0
1000.0
1000.0
