[Molden Format]
[Geometries] (XYZ)
9

C       -2.504405      -0.123218       1.421637
C       -1.051982      -0.099928       1.762327
C       -0.081462       0.116161       0.895325
H       -0.820068      -0.277331       2.805197
H       -2.660085       0.061799       0.361586
H       -3.036788       0.635826       1.994734
H       -2.934898      -1.091105       1.678359
H       -0.284213       0.295331      -0.148300
H        0.955290       0.123965       1.186044
9

C       -2.495743      -0.005716       1.380408
C       -1.095810      -0.190501       1.785475
C       -0.167726       0.103001       0.896638
H       -0.841035      -0.342754       2.818487
H       -2.783160       0.041012       0.341443
H       -2.994292       0.730607       1.996157
H       -2.775150      -1.206318       1.605461
H       -0.334451       0.187019      -0.157371
H        0.863356       0.164771       1.224051
9

C       -2.478514       0.106264       1.348275
C       -1.150098      -0.285153       1.810138
C       -0.239618       0.083173       0.892666
H       -0.870568      -0.402705       2.836197
H       -2.878405       0.054640       0.352638
H       -2.929148       0.852001       1.986808
H       -2.562967      -1.372310       1.540950
H       -0.357548       0.076292      -0.165660
H        0.782002       0.205171       1.257118
9

C       -2.372598       0.199166       1.321505
C       -1.225980      -0.409725       1.871944
C       -0.346547       0.078075       0.861055
H       -0.968105      -0.518878       2.905668
H       -2.784397       0.116745       0.340462
H       -2.783540       1.000450       1.950546
H       -2.274759      -1.547990       1.568140
H       -0.434720      -0.002496      -0.199683
H        0.640250       0.282488       1.260026
9

C       -2.259602       0.289566       1.288151
C       -1.275223      -0.538333       1.905412
C       -0.465939       0.081134       0.860658
H       -1.030303      -0.630388       2.945288
H       -2.727547       0.168575       0.336163
H       -2.605016       1.133617       1.902554
H       -2.028556      -1.622632       1.592816
H       -0.501344      -0.084474      -0.194504
H        0.468274       0.408752       1.283652
9

C       -2.160625       0.380762       1.259133
C       -1.343081      -0.635063       1.895391
C       -0.562764       0.099876       0.872593
H       -1.094498      -0.664148       2.940674
H       -2.755778       0.222832       0.385579
H       -2.422645       1.246499       1.870260
H       -1.858272      -1.661187       1.571844
H       -0.492921      -0.175109      -0.160764
H        0.303475       0.576320       1.294907
9

C       -2.060142       0.481232       1.218345
C       -1.434606      -0.713726       1.866719
C       -0.644950       0.112846       0.900934
H       -1.184338      -0.655197       2.914998
H       -2.813176       0.318061       0.462459
H       -2.237454       1.358321       1.821943
H       -1.759908      -1.694489       1.554857
H       -0.430110      -0.302283      -0.071956
H        0.146074       0.736735       1.288609
[GEOCONV]
energy
0.0
19.5083275853
72.3658150235
144.704831232
74.0374462143
18.8621266311
-3.71835602513
max-force
3.02729021078e-05
0.00708761144733
0.00694082042067
0.00724328892507
0.00716175843017
0.00819188266094
2.09299574196e-05
max-step
1000.0
1000.0
1000.0
1000.0
1000.0
1000.0
1000.0
