[Molden Format]
[Geometries] (XYZ)
9

C       -2.504405      -0.123218       1.421637
C       -1.051982      -0.099928       1.762327
C       -0.081462       0.116161       0.895325
H       -0.820068      -0.277331       2.805197
H       -2.660085       0.061799       0.361586
H       -3.036788       0.635826       1.994734
H       -2.934898      -1.091105       1.678359
H       -0.284213       0.295331      -0.148300
H        0.955290       0.123965       1.186044
9

C       -2.534927       0.001651       1.420432
C       -1.082842      -0.202840       1.732823
C       -0.094243       0.097837       0.908360
H       -0.855123      -0.294490       2.786131
H       -2.818700       0.039022       0.374833
H       -3.045651       0.674976       2.081107
H       -2.767004      -1.103431       1.583634
H       -0.249113       0.165868      -0.155604
H        0.927788       0.203630       1.236801
9

C       -2.539357       0.144423       1.404395
C       -1.138711      -0.277866       1.733920
C       -0.125874       0.053799       0.913865
H       -0.880120      -0.367926       2.776608
H       -2.943398       0.057628       0.409773
H       -3.044315       0.802609       2.076181
H       -2.353795      -1.320575       1.520907
H       -0.234739       0.059795      -0.153412
H        0.888565       0.160249       1.277021
9

C       -2.530802       0.268871       1.404492
C       -1.224407      -0.387600       1.768983
C       -0.167035       0.031444       0.867896
H       -0.954909      -0.490928       2.814162
H       -2.887872       0.181791       0.400495
H       -3.039106       0.978954       2.030345
H       -1.767984      -1.417297       1.545456
H       -0.270593      -0.008790      -0.195801
H        0.818396       0.176610       1.280320
9

C       -2.304778       0.307500       1.299110
C       -1.235551      -0.533070       1.871281
C       -0.444572       0.128967       0.860771
H       -1.000331      -0.668269       2.908402
H       -2.686325       0.197273       0.302956
H       -2.731782       1.114018       1.887438
H       -1.798062      -1.589826       1.631118
H       -0.541841       0.026808      -0.198960
H        0.503923       0.423299       1.283937
9

C       -2.147774       0.382613       1.265030
C       -1.297442      -0.675823       1.865445
C       -0.619020       0.175387       0.879360
H       -1.058636      -0.713326       2.915907
H       -2.660229       0.233426       0.331964
H       -2.459242       1.245680       1.832197
H       -1.714280      -1.663787       1.645885
H       -0.579838      -0.036107      -0.173818
H        0.230629       0.669151       1.321537
9

C       -2.060142       0.481232       1.218345
C       -1.434606      -0.713726       1.866719
C       -0.644950       0.112846       0.900934
H       -1.184338      -0.655197       2.914998
H       -2.813176       0.318061       0.462459
H       -2.237454       1.358321       1.821943
H       -1.759908      -1.694489       1.554857
H       -0.430110      -0.302283      -0.071956
H        0.146074       0.736735       1.288609
[GEOCONV]
energy
0.0
13.696133578
72.6733456006
100.016052077
65.472815039
10.823307795
-3.71835602513
max-force
3.02729021078e-05
0.00155295740499
0.00497210038903
0.00475975293095
0.00753582116329
0.0014299657574
2.09299574196e-05
max-step
1000.0
1000.0
1000.0
1000.0
1000.0
1000.0
1000.0
