[Molden Format]
[Geometries] (XYZ)
12

C        1.341777       1.450400      -2.193539
C        0.636293       0.548760      -1.179516
C        1.392381      -0.714000      -0.907638
O        0.634546       2.633019      -2.454045
O        0.630371       3.454602      -1.283695
O        2.437822      -1.025380      -1.403114
H        0.525618       4.340591      -1.653898
H        2.357173       1.675778      -1.845444
H        1.398040       0.968468      -3.172319
H        0.886877      -1.374014      -0.174225
H       -0.366003       0.290109      -1.530861
H        0.514015       1.091276      -0.237515
12

C        1.428807       1.481235      -2.230899
C        0.570679       0.652349      -1.077301
C        1.363736      -0.616903      -0.932154
O        0.650816       2.583304      -2.517664
O        0.622689       3.309137      -1.201387
O        2.379423      -0.892788      -1.506763
H        0.523928       4.153507      -1.659778
H        2.389787       1.735077      -1.783957
H        1.533805       0.847705      -3.107243
H        0.908108      -1.333268      -0.211408
H       -0.425454       0.413685      -1.432915
H        0.520171       1.050437      -0.076228
12

C        1.535100       1.528133      -2.343553
C        0.504888       0.738713      -0.978700
C        1.328596      -0.521735      -0.939720
O        0.676561       2.522363      -2.610961
O        0.614605       3.136728      -1.081167
O        2.331541      -0.778186      -1.543354
H        0.521676       3.918272      -1.634194
H        2.454314       1.810191      -1.839208
H        1.667829       0.802094      -3.138734
H        0.895752      -1.280104      -0.244113
H       -0.488321       0.514076      -1.340430
H        0.483409       1.018450       0.060481
12

C        1.616817       1.599642      -2.531402
C        0.432091       0.769861      -0.897886
C        1.287425      -0.449492      -0.909288
O        0.743233       2.459486      -2.766255
O        0.586774       3.003433      -0.938105
O        2.298423      -0.705034      -1.495782
H        0.507433       3.745153      -1.529534
H        2.518814       1.866605      -1.984423
H        1.789371       0.881272      -3.338616
H        0.852446      -1.216862      -0.233321
H       -0.563874       0.552290      -1.261817
H        0.398150       1.039325       0.157814
12

C        1.695878       1.652515      -2.688135
C        0.362833       0.837330      -0.810091
C        1.237749      -0.352542      -0.887802
O        0.799716       2.424885      -2.891298
O        0.558784       2.783855      -0.813691
O        2.247487      -0.581926      -1.487005
H        0.495938       3.468345      -1.463883
H        2.574850       1.911680      -2.094000
H        1.905284       0.939283      -3.497802
H        0.812745      -1.141527      -0.239781
H       -0.634028       0.630955      -1.175532
H        0.324778       1.064606       0.261349
12

C        1.795496       1.670966      -2.793283
C        0.310162       0.910674      -0.698471
C        1.189723      -0.253632      -0.874475
O        0.832524       2.384039      -2.971220
O        0.561031       2.542877      -0.714389
O        2.177320      -0.404441      -1.538262
H        0.521100       3.138296      -1.471103
H        2.635957       1.951709      -2.150489
H        2.055586       0.955524      -3.589941
H        0.806248      -1.089623      -0.264886
H       -0.687875       0.718569      -1.059274
H        0.279734       1.052445       0.384434
12

C        1.922711       1.672648      -2.917994
C        0.234071       0.943222      -0.555503
C        1.127163      -0.176085      -0.867433
O        0.890293       2.301922      -3.037683
O        0.557180       2.371778      -0.643150
O        2.082911      -0.179400      -1.598351
H        0.559054       2.822296      -1.516355
H        2.743120       1.987172      -2.263972
H        2.220751       0.965902      -3.708609
H        0.815176      -1.094154      -0.335454
H       -0.772396       0.761558      -0.908189
H        0.209708       1.002821       0.535102
12

C        2.036915       1.704020      -3.065072
C        0.159370       0.963559      -0.410297
C        1.057586      -0.123315      -0.856974
O        0.948324       2.228425      -3.130963
O        0.520182       2.325374      -0.580793
O        1.979080      -0.036044      -1.625084
H        0.568689       2.608755      -1.527232
H        2.838567       2.073141      -2.413901
H        2.358109       0.966055      -3.814922
H        0.784468      -1.096663      -0.406091
H       -0.846927       0.767597      -0.779555
H        0.131482       0.922292       0.679749
12

C        2.114252       1.773028      -3.232803
C        0.101108       0.967550      -0.273340
C        1.009990      -0.080302      -0.853976
O        0.980465       2.173461      -3.238874
O        0.460210       2.293133      -0.488939
O        1.908895       0.083877      -1.635955
H        0.544415       2.457163      -1.445317
H        2.889580       2.200887      -2.581832
H        2.469178       1.005412      -3.933633
H        0.757485      -1.097650      -0.493863
H       -0.907267       0.742252      -0.669678
H        0.060599       0.820797       0.812400
[GEOCONV]
energy
0.0
14.952360475
65.6207920076
124.789646139
88.1412703443
36.8455905701
2.61322180675
-13.0883324512
-17.3227888639
max-force
5.9608409375e-05
0.00626544597884
0.00577684050096
0.00798519421317
0.00800512625346
0.00785074109852
0.00550415873694
0.00387478622293
7.50749956562e-05
max-step
1000.0
1000.0
1000.0
1000.0
1000.0
1000.0
1000.0
1000.0
1000.0
