[Molden Format]
[Geometries] (XYZ)
12

C        1.341777       1.450400      -2.193539
C        0.636293       0.548760      -1.179516
C        1.392381      -0.714000      -0.907638
O        0.634546       2.633019      -2.454045
O        0.630371       3.454602      -1.283695
O        2.437822      -1.025380      -1.403114
H        0.525618       4.340591      -1.653898
H        2.357173       1.675778      -1.845444
H        1.398040       0.968468      -3.172319
H        0.886877      -1.374014      -0.174225
H       -0.366003       0.290109      -1.530861
H        0.514015       1.091276      -0.237515
12

C        1.425368       1.464664      -2.213099
C        0.579225       0.656565      -1.081773
C        1.364906      -0.621260      -0.941400
O        0.649832       2.581795      -2.506050
O        0.622028       3.295197      -1.210229
O        2.376951      -0.903154      -1.519118
H        0.518706       4.139049      -1.671564
H        2.381628       1.721039      -1.761051
H        1.529126       0.818954      -3.079639
H        0.907457      -1.336719      -0.220566
H       -0.416567       0.421543      -1.439391
H        0.535171       1.045873      -0.078929
12

C        1.531966       1.519583      -2.342321
C        0.515405       0.744471      -0.983081
C        1.326500      -0.526349      -0.949706
O        0.676963       2.517915      -2.611820
O        0.600749       3.121089      -1.082392
O        2.332409      -0.794237      -1.542261
H        0.505836       3.904529      -1.635762
H        2.449155       1.794592      -1.830222
H        1.662952       0.781581      -3.125857
H        0.879493      -1.281463      -0.258294
H       -0.480670       0.531413      -1.345333
H        0.499316       1.026941       0.055845
12

C        1.617488       1.592570      -2.547791
C        0.454155       0.770686      -0.887155
C        1.283674      -0.458226      -0.923449
O        0.751508       2.442380      -2.803627
O        0.546147       3.034338      -0.918475
O        2.295252      -0.744086      -1.491165
H        0.460320       3.787309      -1.508539
H        2.500760       1.839860      -1.961109
H        1.792427       0.832971      -3.319151
H        0.816106      -1.221015      -0.250077
H       -0.544901       0.584843      -1.257995
H        0.434518       1.057775       0.160764
12

C        1.692294       1.638284      -2.695788
C        0.375951       0.856096      -0.826250
C        1.238719      -0.340356      -0.895253
O        0.809800       2.433455      -2.897306
O        0.537689       2.741253      -0.801568
O        2.251488      -0.598135      -1.474127
H        0.467508       3.460838      -1.420989
H        2.571889       1.871644      -2.087932
H        1.881477       0.902163      -3.493758
H        0.787659      -1.115914      -0.240477
H       -0.621098       0.669180      -1.201443
H        0.331384       1.106612       0.239472
12

C        1.782352       1.675482      -2.819722
C        0.301019       0.934024      -0.717256
C        1.175753      -0.236162      -0.878012
O        0.822530       2.395186      -2.993034
O        0.549946       2.506778      -0.712290
O        2.177041      -0.397996      -1.517638
H        0.512381       3.131748      -1.448674
H        2.623206       1.942781      -2.171651
H        2.038651       0.957742      -3.617499
H        0.771116      -1.066304      -0.268301
H       -0.700281       0.751964      -1.078618
H        0.257819       1.086202       0.366472
12

C        1.914623       1.669978      -2.943508
C        0.209359       0.968950      -0.564026
C        1.109128      -0.154289      -0.869098
O        0.893154       2.316096      -3.054847
O        0.536082       2.366315      -0.636125
O        2.062746      -0.160603      -1.603038
H        0.537007       2.827287      -1.492890
H        2.741156       1.954493      -2.283037
H        2.187303       0.947619      -3.728514
H        0.797111      -1.068300      -0.331585
H       -0.796495       0.792461      -0.934942
H        0.162112       1.027509       0.531679
12

C        2.032788       1.692133      -3.073263
C        0.144996       0.981895      -0.414689
C        1.046732      -0.106908      -0.859911
O        0.950747       2.229073      -3.136273
O        0.509862       2.326388      -0.579370
O        1.965187      -0.020433      -1.633987
H        0.558386       2.612083      -1.517525
H        2.839861       2.044640      -2.419348
H        2.338388       0.944358      -3.819315
H        0.775980      -1.078776      -0.405714
H       -0.862062       0.790550      -0.792347
H        0.106982       0.945221       0.678524
12

C        2.114252       1.773028      -3.232803
C        0.101108       0.967550      -0.273340
C        1.009990      -0.080302      -0.853976
O        0.980465       2.173461      -3.238874
O        0.460210       2.293133      -0.488939
O        1.908895       0.083877      -1.635955
H        0.544415       2.457163      -1.445317
H        2.889580       2.200887      -2.581832
H        2.469178       1.005412      -3.933633
H        0.757485      -1.097650      -0.493863
H       -0.907267       0.742252      -0.669678
H        0.060599       0.820797       0.812400
[GEOCONV]
energy
0.0
12.9992217071
64.3063395984
120.885240978
82.0163341306
32.049418506
0.623610845269
-13.5855866522
-17.3227888639
max-force
5.9608409375e-05
0.00523669045102
0.00594519917701
0.00473205698226
0.00395091399968
0.00758779307989
0.00346416170186
0.00218645961623
7.50749956562e-05
max-step
1000.0
1000.0
1000.0
1000.0
1000.0
1000.0
1000.0
1000.0
1000.0
