56
 energy: -94.154627100372 gnorm: 0.000156866377 xtb: 6.4.0 (d4b70c2)
c         0.96554716999974   -2.74177403999975    0.17727162000002
c         1.16832473000018   -4.23932533000001   -0.00732709000009
c        -0.46061281000015   -2.35403843000006   -0.23247500999993
o        -0.76651547000013   -2.21196530999986   -1.41317611000005
o         0.78974222000022   -0.08232139999975   -0.23277365000020
o         1.13933489000016   -1.67997875000005   -3.47719251999990
n         1.87833775000024   -1.99667252000018   -0.67016258000001
c         1.62665881000004   -0.68879063999998   -0.88332230000005
c         2.37922721999985   -0.08253094999992   -2.04904987999982
c         1.46157352000017   -0.33046621999991   -3.28822829999975
n         2.66627241999974    1.31187143000019   -1.80260605999978
n        -1.33469471000015   -2.24546139999986    0.76859922000021
c        -2.73149367999982   -1.90189817000006    0.56162553000010
c        -3.56891233999997   -2.45022377999994    1.70579585000026
c        -2.90516107999983   -0.36998390999976    0.44567554999984
o        -3.52031218999983    0.28546418999994    1.25867307000022
n        -2.33310336000025    0.14155747000007   -0.65984389999975
o        -0.12435088000003    2.47852208999980   -1.42526253999986
o        -0.74487029000024    2.09218530999977    0.71258858999994
c        -2.31928166999980    1.56416543000019   -0.93812610999987
c        -0.92534579000004    2.10978061999980   -0.61017734999978
c        -2.68748764000025    1.83544721999977   -2.38973752999977
h         1.13595318000016   -2.44910077999997    1.21971923000010
h         0.95804688999974   -4.51991736000002   -1.03782475000005
h         0.49839099000004   -4.78977758999985    0.64786629000004
h         2.19326217999990   -4.50971496000007    0.23480977000026
h         0.44076954000011   -1.93833372999997   -2.84620459000008
h         2.40667669000014   -2.50954704999985   -1.36001871000015
h         3.32503996999977   -0.61673320999980   -2.19997117999999
h         1.99583327000015   -0.00862597000007   -4.18793456000020
h         0.56381566999979    0.29166647000004   -3.17294626000024
h         1.81710516000007    1.78003880000006   -1.49465940000000
h         2.96744853000006    1.76219508000006   -2.66061170000012
h        -0.99018959999988   -2.21185341000025    1.71986703000014
h        -3.03182981000008   -2.34691827000014   -0.39498053999977
h        -4.61736501999986   -2.22765621999982    1.53113047000019
h        -3.27527027000016   -1.97537407000008    2.63888434999983
h        -3.44003035000001   -3.52618875000004    1.79034292000024
h        -1.76995086999990   -0.46097822999995   -1.24883763999995
h        -3.03797923000001    2.01625060999982   -0.24373634000014
h        -2.70025139999993    2.90535559000015   -2.57711561000004
h        -3.66832728000007    1.42247481000020   -2.60820543000005
h        -1.95399454999982    1.38066160999975   -3.05122923999977
c         0.51722359000018    2.23847331999974    1.26055915999984
c         0.94182573999997    1.24207740000020    2.15356321000010
c         1.35182380000023    3.29404990999991    0.93955873000014
c         2.21983145999983    1.32383645000026    2.69986159999995
c         3.04958205999986    2.38213519999983    2.38473633000010
c         2.61435277999983    3.36264490999989    1.50796419000002
h         1.02288834000024    4.04841453999992    0.24236526999977
h         4.03869646000010    2.44036060000025    2.81264321000020
h         3.26398492000011    4.18573378000004    1.25238262000009
h         2.53920017000005    0.54118575999993    3.37183802000003
c         0.06254597999988    0.10514940999985    2.41603171999990
o         0.40688003000009   -0.97371238999989    2.84721420000026
h        -0.99395227999993    0.30077797999989    2.17213985000023
56
 energy: -94.098373290353 gnorm: 0.099181161295 xtb: 6.4.0 (d4b70c2)
c         1.00615343695604   -2.61325998945742    0.27447865970422
c         1.27989831625665   -4.10753156519488    0.37483564442127
c        -0.44780982681039   -2.35474344491290   -0.13943390312083
o        -0.67470667095840   -2.30452636831151   -1.34517534808069
o         0.79807866536647   -0.02404792064474   -0.37264105406745
o         1.07778123329791   -1.67695966531377   -3.54811783851036
n         1.81909859638703   -1.99807464800547   -0.75856288755413
c         1.60055286976418   -0.69058232480197   -1.00763311253938
c         2.36751361371879   -0.12218082092724   -2.18301465777307
c         1.39579343856079   -0.32258853803630   -3.38913240550660
n         2.76800467003425    1.22831386549842   -1.86167601835792
n        -1.33972366544261   -2.22374594645117    0.84305641079407
c        -2.72673886808735   -1.96858364596898    0.49233954667520
c        -3.70131169629262   -2.64238835855941    1.44483722616954
c        -3.00165245904477   -0.45364678624200    0.35178668976040
o        -3.86831457115693    0.10196777245922    0.99145647680914
n        -2.32462963687861    0.20155805646152   -0.60917364149481
o        -0.27265591854060    2.70429783627658   -1.34650359870884
o        -0.71473684247006    2.10139931211906    0.78936741904288
c        -2.34556369082177    1.62233794478622   -0.89621342396556
c        -0.98666806504491    2.21777216672597   -0.51259324660193
c        -2.69319031788138    1.93840664569502   -2.34383269011843
h         1.30398623808885   -2.15822095373671    1.22612354960882
h         1.05061540506180   -4.59791931253408   -0.56952831928338
h         0.60010134067989   -4.45274918007740    1.14929555159541
h         2.34266716312057   -4.28856224277720    0.51621409481262
h         0.42496695307738   -1.82594547711990   -2.83781976357076
h         2.27878110175394   -2.53912802290600   -1.47552666026943
h         3.31578367974438   -0.65203891834669   -2.33383022029036
h         1.93638465386539   -0.09094788656433   -4.31249026080221
h         0.48885128992669    0.25258494140685   -3.15904633787656
h         2.12894586425850    1.66566294760173   -1.20180747756203
h         2.61272246788667    1.75435878553322   -2.71539511596212
h        -0.99303614510071   -1.96070574040943    1.75702652973647
h        -2.79312900599156   -2.46777553055074   -0.48220636249196
h        -4.26887737237158   -3.38716319847443    0.89485813710805
h        -4.38464455994688   -1.87254424707332    1.79520606093714
h        -3.25367640539672   -3.07331038600899    2.33668265609484
h        -1.58132742966064   -0.28549857754589   -1.09639161259913
h        -3.05404010628588    2.04734931629113   -0.17474901019887
h        -3.75230734835834    2.17722280603796   -2.37869453375494
h        -2.54342729424480    1.02613398083572   -2.91449061622122
h        -2.04459603441964    2.77918342623790   -2.57799762940053
c         0.56426822010834    2.23920485042914    1.29898356882327
c         1.03078521316978    1.16917573305256    2.07869356075726
c         1.44641152561997    3.23619111714720    0.92257643179300
c         2.30324559099059    1.20945984944671    2.64229527467531
c         3.17197737822402    2.22046206140523    2.28040322342561
c         2.69564859089705    3.27766375172808    1.52212314111591
h         1.11785836062839    3.95267673692764    0.18633975850734
h         4.20341493132074    2.25693589987571    2.59607398278015
h         3.45331371387158    3.88624620446381    1.05266589216829
h         2.61341026560287    0.40551082560642    3.29310602511174
c         0.12042488992461    0.14704203945685    2.58968738239629
o         0.48299579930855   -0.88726345704672    3.10658344002107
h        -0.96084800494525    0.35826452191964    2.57640765216835
56
 energy: -94.090070890008 gnorm: 0.106160719981 xtb: 6.4.0 (d4b70c2)
c         0.95227477292388   -2.45290518819987    0.43012501141548
c         1.27801705183991   -3.90832265199129    0.73591459827302
c        -0.43170632739014   -2.39106460557572   -0.22785338174108
o        -0.53128957006251   -2.40823924954010   -1.45161991068327
o         0.75633121946161    0.13459448297101   -0.36975176026252
o         1.08935970266724   -1.72496532401891   -3.82239773229809
n         1.90188814187600   -1.83330237978314   -0.47587413885191
c         1.52885333021543   -0.62202144023638   -0.93736941671859
c         2.26638526203803   -0.15959954462182   -2.17633812694516
c         1.35604611572734   -0.41045523119164   -3.42031458827683
n         2.59868647485834    1.24632164694999   -2.19752803519046
n        -1.43191561957790   -2.21485714414083    0.63614318741301
c        -2.80701545656834   -2.00460177963436    0.21565026476677
c        -3.72876633326960   -2.71630999426983    1.19284188178246
c        -3.09889848763208   -0.48722771879689    0.26805581134469
o        -4.03062960469480    0.04826255130214    0.82851578155299
n        -2.17182758489045    0.23436616301623   -0.38840416846189
o        -0.22781750254668    2.78478509355815   -1.20543967971425
o        -0.67187644742187    2.08858246107173    0.92180630216832
c        -2.30295703296458    1.65391842448145   -0.65131462041473
c        -0.91742524101276    2.25000096114321   -0.38059173847760
c        -2.82321835326897    1.93123112621739   -2.05444362739047
h         1.04785655990334   -1.84484159622590    1.33705150318366
h         1.11658973357010   -4.49030510945977   -0.16968560404968
h         0.64457814128564   -4.33660136429474    1.50819677779736
h         2.22265147511385   -3.98608404916693    1.26869650558576
h         0.43679952895234   -2.12239023978243   -3.21485738960009
h         2.33666464347355   -2.38993442556590   -1.19643916874808
h         3.22887090842422   -0.67127461639183   -2.29684147478876
h         1.85736211230229   -0.03167159973647   -4.31680285620191
h         0.52295780423248    0.30514523607868   -3.43402692413067
h         3.59418799943039    1.40787264124138   -2.06345768479739
h         2.07275711050428    1.66344302511698   -1.43655485726143
h        -1.22625889121650   -2.31466422126356    1.62228089507756
h        -2.76997525523875   -2.26623546327422   -0.84901667832528
h        -3.28576885719763   -2.99240265853353    2.14511464483053
h        -4.30959044591957   -3.53847325124694    0.78168133807063
h        -4.43623825403857   -1.94503097673238    1.48622141563201
h        -1.35905501751497   -0.20555124613368   -0.80430927708886
h        -3.01300176717109    2.10918492660493    0.04986527655824
h        -2.45166151388331    1.22480158323290   -2.79124767168544
h        -2.72494346660487    2.98397307226188   -2.30423810503781
h        -3.88731783946672    1.71223449050779   -2.10076973700627
c         0.65566166065281    2.14929061758004    1.30717639869792
c         1.10321650140878    1.15706539250267    2.19359165252728
c         1.54241796450167    3.12405209582191    0.88605385462247
c         2.41097948139118    1.21134261683051    2.66818118466479
c         3.30338687337573    2.12144671646255    2.13610421233129
c         2.89291797577587    3.04557488483220    1.18897397636111
h         1.22125820430839    3.79473117966757    0.10477971216472
h         4.35470726585720    1.99556438588919    2.34519965349911
h         3.49586984094747    3.82970786758275    0.75722902922462
h         2.77795595233182    0.63199896041788    3.50231549415283
c         0.08381433630666    0.20060640850859    2.61860161212447
o         0.29588481998242   -0.88851376972781    3.10570576448630
h        -0.96252170342559    0.52003171233074    2.48786991117261
56
 energy: -94.082253850589 gnorm: 0.121514639589 xtb: 6.4.0 (d4b70c2)
c         0.99240868130468   -2.37444736086623    0.40233977249913
c         1.54350208183940   -3.67074493013584    0.98006286660153
c        -0.43078851427845   -2.42279203203141   -0.16716531588081
o        -0.60411802849482   -2.52518872932056   -1.37848199774580
o         0.74159186242017    0.13156685279535   -0.53436830480412
o         1.13856361425561   -1.90707596515916   -3.43262299971454
n         1.86781009134604   -1.86071758953590   -0.63509058315693
c         1.58062833630694   -0.60373801189042   -1.03115036789020
c         2.31360020024576   -0.13729396564309   -2.27131689563460
c         1.33344224783271   -0.52046230042210   -3.42526480806842
n         2.57175868684412    1.28426887726682   -2.27043286016300
n        -1.41943864023551   -2.14342994491904    0.68282616784366
c        -2.75581132652893   -2.00724608158710    0.12831451014520
c        -3.77421467639447   -2.93552465214036    0.77035051728068
c        -3.14686185284960   -0.51239453810999    0.18183492396655
o        -4.22429001587081   -0.11638399511228    0.57082371987521
n        -2.27068863890215    0.33691000207551   -0.38570378208573
o        -0.34186716586610    2.83275412842336   -1.25208840060927
o        -0.55198980394570    2.26572967253696    0.94635466621754
c        -2.35922950881981    1.78348364645834   -0.41780732276229
c        -0.93505324022783    2.34239042876943   -0.33035054734433
c        -3.03182224730829    2.13791438171308   -1.73626968924554
h         1.00655990846562   -1.58822991793752    1.16591998818281
h         1.80931622099001   -4.40991414101131    0.22650742220907
h         0.74979888830463   -4.02398215377890    1.63301460875056
h         2.56077307887866   -3.54017490704836    1.34110133654187
h         0.45167802244990   -2.23447872039564   -2.82116389936645
h         2.29014554365795   -2.58966524705755   -1.19038499191842
h         3.27930554767728   -0.60996125349485   -2.48744155804726
h         1.73929732056930   -0.14465274547066   -4.37000541789832
h         0.32786096486867   -0.14258649990686   -3.19651963769449
h         2.56932557696515    1.69566803166937   -1.33992671660975
h         1.84213784220915    1.80093882002580   -2.75040964172477
h        -1.23520205119426   -2.08678606472032    1.67659277647095
h        -2.48961828398366   -2.19732707623712   -0.91875298563977
h        -4.56532334032024   -2.35205883179565    1.23188281001953
h        -3.33571121645759   -3.53379385911502    1.56542959262077
h        -4.18735196286996   -3.55242918176454   -0.02350449313784
h        -1.36326295139459   -0.03488677468814   -0.64153459349808
h        -2.90797880707063    2.19497139442184    0.43813448566049
h        -2.79899784252921    3.12953032852239   -2.11371900631402
h        -4.11520552930490    2.18880309220437   -1.67293063641309
h        -2.91016015736414    1.36367728536693   -2.49003928213163
c         0.77701075322963    2.22673116887527    1.32948571142780
c         1.05258779114776    1.19978516601594    2.24599380115045
c         1.80192919262417    3.03516983981444    0.87143584452452
c         2.39502644003240    1.01688023476709    2.56666375209241
c         3.42087669595453    1.76527473093743    2.02322738355271
c         3.14132880149907    2.77258146491147    1.11397535167547
h         1.47650374534676    3.77431487420898    0.15651900095007
h         4.46595051829188    1.64893595450966    2.26638936044665
h         3.86287662778059    3.44039714808647    0.66876747586186
h         2.64524737985240    0.30075934362738    3.33520202753398
c        -0.03786583210665    0.41639811583980    2.82205227085340
o         0.23692406280473   -0.70924335059517    3.17680403903872
h        -1.05347754067842    0.83408331505150    2.91157454024388
56
 energy: -94.089988026753 gnorm: 0.119032839420 xtb: 6.4.0 (d4b70c2)
c         1.06777379088732   -2.20663490756935    0.60650851570168
c         1.61141052204250   -3.50662377503451    1.18300079554451
c        -0.27259442543681   -2.43948251633653   -0.10155825244046
o        -0.25116340540997   -2.88324322756452   -1.24629990506568
o         0.55132133584592    0.24276816412720   -0.64584891928605
o         1.53710087773337   -2.23033727313039   -3.44065525392912
n         1.91422686827445   -1.55455021646721   -0.37573910977550
c         1.47938924038567   -0.45487941199073   -1.02456477177801
c         2.20950649897258   -0.09073948761290   -2.30016726923657
c         1.49248086777305   -0.83117384372745   -3.47351912695696
n         2.07339981654147    1.31134167528196   -2.62130725312171
n        -1.40612001214959   -2.10627525796861    0.51654403572852
c        -2.64996186493107   -1.87955670274037   -0.19995950321544
c        -3.72269632941598   -2.86574585594557    0.23331689983354
c        -3.12919622697354   -0.42694752992682    0.02504516941838
o        -4.29028048069574   -0.19597265439746    0.28489521098106
n        -2.18724910897168    0.51842987671849   -0.14843416369071
o        -0.57862679632505    2.82395387220406   -1.12378854461773
o        -0.50161440505381    2.47115132193307    1.13559324887076
c        -2.49008667674861    1.93407658544379   -0.07307329237449
c        -1.05705935449010    2.47694562746729   -0.07850647761556
c        -3.35937631000217    2.40361998830244   -1.23074756106552
h         0.91601577251061   -1.40139191637535    1.33448248558392
h         1.41596466821130   -4.31087298938622    0.47599428495687
h         1.25988576590810   -3.84193158182145    2.15515628478886
h         2.61907834191100   -3.24550405395846    1.49710212504825
h         0.98538682136014   -2.70444374143462   -2.78971649425043
h         2.60687545528261   -2.18019199164457   -0.75900678288110
h         3.26620237601356   -0.38291937288529   -2.32729279650277
h         1.98938538305542   -0.56041143453577   -4.41067418520187
h         0.44977624847686   -0.49222008759882   -3.53821549079845
h         1.88103777939758    1.74820575554281   -1.72283995271511
h         1.29130683274154    1.50775305608136   -3.23728229512300
h        -1.28242919652996   -1.65043486379390    1.41188410433153
h        -2.35365091289626   -1.92546510254451   -1.25515242365975
h        -4.57432877514948   -2.69890117670512   -0.41950954580904
h        -4.06045824653963   -2.70332351792853    1.25405091754052
h        -3.35884691911223   -3.88135567692938    0.10061538719623
h        -1.34466389714607    0.17164121449763   -0.59215864634802
h        -2.94689236194478    2.05059331703375    0.91729874951053
h        -4.16899637309553    3.01823046042351   -0.84767223685753
h        -3.78182727757850    1.52093658855624   -1.70268615260510
h        -2.73571954420375    3.04106004907654   -1.85294990607778
c         0.83676842573622    2.17932240557781    1.33083747254408
c         1.11903525890711    1.13753638302460    2.22836493417819
c         1.90997267234050    2.68983972036191    0.62270923979857
c         2.44290936338428    0.77559089583952    2.46241204989385
c         3.50085782764918    1.37014934308464    1.80284278401108
c         3.23346231471590    2.40391424200706    0.92001605176165
h         1.61762597674397    3.43225075172497   -0.10303353779539
h         4.51380749630736    1.14529339247141    2.09985220845566
h         3.94625911305817    2.74790346199115    0.18625088406569
h         2.72049947721481    0.04712401497115    3.20965402735091
c        -0.00156313638437    0.57793308736837    2.98051611170981
o        -0.01082486489127   -0.59246249153653    3.29438791052683
h        -0.80194975443389    1.29492977431132    3.22390759095072
56
 energy: -94.091495471161 gnorm: 0.106165794958 xtb: 6.4.0 (d4b70c2)
c         1.06991258628386   -2.09846863567082    0.62553280664165
c         1.78727655029670   -3.31086987178472    1.20287801743473
c        -0.20607752886436   -2.34008414304506   -0.19033158079022
o        -0.17068768691694   -2.88049461286612   -1.29238439333381
o         0.39880195751525    0.25942134445688   -0.78549728061368
o         2.19218014829767   -2.59581103744254   -2.80868023005564
n         1.88328151548107   -1.39540345408958   -0.34947385724208
c         1.40844292836029   -0.36309977291797   -1.07625567479062
c         2.12317739802653   -0.12041553502199   -2.38892083719338
c         1.79759579631934   -1.34571964029585   -3.30092404129494
n         1.62593467193814    1.07040878524016   -3.03867049389575
n        -1.32241938651627   -1.81638232909278    0.31708841499244
c        -2.57655239599090   -1.71735072693127   -0.41041713893189
c        -3.49305333318033   -2.88015345257286   -0.06549310721590
c        -3.16103819551827   -0.32233148217852   -0.09000526939025
o        -4.33874802322859   -0.23634472675345    0.18311363568541
n        -2.29963479156177    0.68901258888882   -0.30509887860258
o        -0.64828927492401    3.19654185905497   -0.83944055468504
o        -0.52920873476090    2.39885027491193    1.28187095246355
c        -2.53909266163179    2.05019581335769    0.13226325171259
c        -1.11369025678880    2.61191134231326    0.10052546955200
c        -3.56351773827605    2.77748272507319   -0.72677819654135
h         0.80040177702955   -1.45885908975823    1.47385846889772
h         2.18538365811787   -3.95537652455066    0.42121569024144
h         1.05073953443436   -3.87195439405071    1.77189880621531
h         2.69120501229385   -3.07804383545324    1.76050061746638
h         1.34457441717961   -2.85604634627905   -2.40035594659083
h         2.65004349714611   -2.01065971413601   -0.57667333998713
h         3.20732160301942   -0.13304888066953   -2.22404877125284
h         2.37477149840450   -1.17892039592465   -4.21609189671265
h         0.75724531514946   -1.31132208361116   -3.65134646652518
h         2.13574932448571    1.92302072456490   -2.81903723259965
h         0.65314427119404    1.23385605358074   -2.80068741675673
h        -1.26688266483253   -1.61461733189153    1.30750766260125
h        -2.26786564764971   -1.73098242399356   -1.46296953042078
h        -3.82058686168492   -3.38108308163218   -0.97163252044659
h        -4.40127690223473   -2.64776375335737    0.48540347461547
h        -3.05204863297394   -3.63108608174158    0.58494861811075
h        -1.40102306289788    0.37947578633808   -0.65693345480337
h        -2.90577127875063    1.98025788836071    1.16364089746383
h        -4.47274101730572    2.68024932005341   -0.14040282391729
h        -3.65174469523069    2.38168077847321   -1.73468576451677
h        -3.26552997844743    3.82324089012324   -0.72932930420021
c         0.81800982191219    2.10361982096493    1.39320003777856
c         1.13349150587400    1.06863593851248    2.28753102108394
c         1.78047417884291    2.59341280906564    0.52855787714367
c         2.44375054661117    0.60021101288932    2.33469650944461
c         3.40759248627373    1.04393984879264    1.45044554995341
c         3.05826025854966    2.05763404177246    0.57298082299036
h         1.44824905488105    3.15044921788485   -0.33323108646137
h         4.27931184358981    0.42984194453357    1.28361942201439
h         3.76043090255259    2.43723948155384   -0.15343178591544
h         2.78854560755628   -0.12262187502605    3.05907198571734
c         0.03468608639661    0.59300901466728    3.12480857338046
o        -0.09911694494602   -0.53504525893820    3.54672966880847
h        -0.72461579197597    1.36227177921913    3.33843877196229
56
 energy: -94.083264288553 gnorm: 0.118152531986 xtb: 6.4.0 (d4b70c2)
c         1.06423766232561   -1.99784807213476    0.58036941741565
c         1.60731380645511   -3.36837113734813    0.96061950166842
c        -0.21578248620528   -2.18468346425626   -0.24352648974555
o        -0.20794775273728   -2.73591624046882   -1.34074905205817
o         0.35502939747037    0.16848681591986   -1.03081911401602
o         2.51543474088652   -2.69421094455967   -2.36595791456001
n         1.94602040509528   -1.22669679595604   -0.27653930307207
c         1.42586537544640   -0.39348643861661   -1.20094918071223
c         2.23674525666777   -0.26390252087151   -2.47315696634639
c         2.34007291962983   -1.61799446865576   -3.24444275197760
n         1.54436397196784    0.66123194338557   -3.34046422648125
n        -1.35369154200638   -1.72248731800161    0.27560304447530
c        -2.59567224302600   -1.55112371954244   -0.45927084642069
c        -3.48238210290547   -2.76011328737288   -0.20798103619176
c        -3.24172573663408   -0.21709396100227   -0.01956006227014
o        -4.30349456338987   -0.21734825636430    0.56493542756688
n        -2.49861614420858    0.81917003300134   -0.44972626732398
o        -0.83089277208753    3.57438517548464   -0.51079866018911
o        -0.65096070368345    2.12743499876650    1.26588951020648
c        -2.65640057988642    2.13583109301420    0.13589578574296
c        -1.25015574009116    2.73586032847193    0.23954904875461
c        -3.66427729939312    2.89661180765084   -0.71365845915037
h         0.81861397538834   -1.54627538767054    1.54843139202085
h         1.58399938425870   -3.98907552963704    0.06671985344111
h         1.16333152982573   -3.98116045846552    1.74065556511850
h         2.63859938694540   -3.25413621741013    1.28563953740060
h         1.59931335448772   -2.89099859163466   -2.09231062485543
h         2.81448845255124   -1.69222191194669   -0.49364162976710
h         3.24652813673523    0.09132971141288   -2.23470434876333
h         3.33229594805101   -1.61631130325773   -3.70701881149594
h         1.41537854261819   -1.70745124061728   -3.83031473974433
h         2.12576533192538    1.41457427610201   -3.70038735193180
h         0.64626633102413    0.93973908708443   -2.95898484806064
h        -1.27238138746768   -1.42812817230516    1.24072742695005
h        -2.27926533690515   -1.44964469880096   -1.50470307287858
h        -3.51676496284423   -3.44377421820626   -1.05102486011076
h        -4.49865456926935   -2.41138885523733   -0.04081761917086
h        -3.16935329028646   -3.37939944263755    0.62865330088959
h        -1.60789272898685    0.44517414603569   -0.75606351113757
h        -2.93650258871740    2.04929571255561    1.19284368258778
h        -4.00039560720773    2.30187458885800   -1.55822314518255
h        -3.27146896143877    3.81586462631255   -1.13909553555705
h        -4.50825700120809    3.33654927810829   -0.18776242471856
c         0.71885876874362    1.97230586706246    1.38455959753796
c         1.11502413020474    1.01702449057831    2.33379019353252
c         1.65354652248774    2.54012787694199    0.53734189000845
c         2.43918154856467    0.58840312132509    2.29751237882636
c         3.30872308605324    1.04276028300314    1.32527609001422
c         2.93449508611508    2.02310498037357    0.42060435858260
h         1.27526891962790    3.15568836779679   -0.26349182713637
h         4.28312078730814    0.60316635110078    1.17645364145097
h         3.62200669963923    2.41347501022228   -0.31407802531190
h         2.68774668778918   -0.13793494676614    3.05694586287491
c         0.13979981912922    0.45815149549064    3.26718535504776
o         0.32800236583050   -0.62688743688853    3.77285067250506
h        -0.75725470276486    1.04041261684812    3.53215247798597
56
 energy: -94.087689011703 gnorm: 0.112178456610 xtb: 6.4.0 (d4b70c2)
c         0.92899997452229   -2.01909814983718    0.46723520401535
c         1.55123567408941   -3.32287709886422    0.94769174725700
c        -0.37002131906781   -2.27307806762722   -0.30749145944480
o        -0.38252902612054   -2.84621019804442   -1.39339174716414
o         0.35434779882450    0.04370029922821   -1.44713833243058
o         2.53704389965460   -2.81434177670721   -2.48125842293527
n         1.85519617399942   -1.35122626738897   -0.42865285283283
c         1.43450820393567   -0.52478799969322   -1.40811995870922
c         2.43969792316515   -0.35350113051042   -2.52753287408789
c         2.58654762823933   -1.69253495022150   -3.31781571810736
n         2.17998511070908    0.73980023627017   -3.43567872573278
n        -1.47031349337490   -1.79636870722027    0.27565783299567
c        -2.77511023728614   -1.62906593904703   -0.34194756572528
c        -3.87131631491076   -2.64720959286568   -0.07218385391973
c        -3.26115294085226   -0.26076756843174    0.18898383444136
o        -4.17536646456062   -0.12173702002723    0.97248381872092
n        -2.56044472769684    0.78234491992075   -0.29270303100645
o        -1.05473610586976    3.85227305898500    0.14392254184619
o        -0.74327904274147    1.82179974238285    1.14390360055434
c        -2.77693792718809    2.16898736664192    0.07033813477360
c        -1.39878798243444    2.73691867866627    0.42595082790413
c        -3.41528038233460    2.96425854258781   -1.05944408058850
h         0.60048188346763   -1.54099923393320    1.39722991780350
h         1.65209472727361   -3.93862236998727    0.05575043768726
h         0.85212533204271   -3.81660596076665    1.61744081589574
h         2.44120062662622   -3.16342323609822    1.55165734190294
h         1.61742509498168   -3.01205156667655   -2.22030113666186
h         2.73645683519357   -1.84134972444570   -0.46390129206831
h         3.41673913991604   -0.14914436569775   -2.07328642949419
h         3.56222600103167   -1.61698759275059   -3.80856034967447
h         1.92414175515231   -1.81461212002397   -4.18535466109764
h         1.72791899019797    1.42461047486415   -2.83420717339137
h         1.52905692109150    0.54734556891817   -4.18995043577576
h        -1.39544360083859   -1.64394842124364    1.27359885369030
h        -2.47513775760500   -1.51300806013867   -1.39070251519344
h        -3.43191062053973   -3.63824262675043   -0.00835987183326
h        -4.54700264481586   -2.54625005159511   -0.91812547030582
h        -4.42191718988770   -2.33388717376062    0.81106420418567
h        -1.96626551584399    0.55184294688052   -1.08069004849661
h        -3.48132801591121    2.21313463178900    0.90996304580628
h        -2.77607279513831    3.52337535994101   -1.73677666518549
h        -4.01636020792350    3.79318943500024   -0.69626718384913
h        -3.94411543840879    2.18570863489439   -1.60406034423553
c         0.63215012991026    1.76989504563748    1.28551408761509
c         1.19005508430208    0.92385394969157    2.25685582289049
c         1.51701371003927    2.37755466349029    0.41281304199625
c         2.57854595783930    0.85243432298310    2.33045999390679