9
 energy: -15.722949139103 gnorm: 0.000501073863 xtb: 6.4.0 (d4b70c2)
C         1.88050024658525   -0.56490324196154    0.27063677112783
O         0.68992947897638   -0.65935829927210    0.11132920025364
N         2.73780551684879   -0.00517503976265   -0.59474155464782
H         6.03306856198065    0.69110032534996    0.66425148296532
H         2.37435301640851    0.37372120891691   -1.45470329697537
H         2.39285975980135   -0.94194267847153    1.17680052902514
O         5.63594396356617    0.12054054931762    0.00286216037328
H         3.72865183275621    0.05306839855131   -0.41641523003139
H         6.27817762307674   -0.55896122266800   -0.21313006209061
