9
 energy: -15.722949139104 gnorm: 0.000501040908 xtb: 6.4.0 (d4b70c2)
C         1.88050025000000   -0.56490324000000    0.27063677000000
O         0.68992948000000   -0.65935830000000    0.11132920000000
N         2.73780552000000   -0.00517504000000   -0.59474155000000
H         6.03306856000000    0.69110033000000    0.66425148000000
H         2.37435302000000    0.37372121000000   -1.45470330000000
H         2.39285976000000   -0.94194268000000    1.17680053000000
O         5.63594396000000    0.12054055000000    0.00286216000000
H         3.72865183000000    0.05306840000000   -0.41641523000000
H         6.27817762000000   -0.55896122000000   -0.21313006000000
