[Molden Format]
[Geometries] (XYZ)
12

C        1.291010       1.551125      -2.198428
C        0.422459       0.676060      -1.293910
C        1.103487      -0.596906      -0.898767
O        0.663166       2.754185      -2.556290
O        0.513928       3.584574      -1.405074
O        2.205992      -0.932219      -1.227202
H        0.717477       4.465008      -1.748224
H        2.254485       1.745483      -1.710982
H        1.469255       1.063527      -3.159650
H        0.480110      -1.239282      -0.245134
H       -0.520802       0.432689      -1.789885
H        0.170431       1.233345      -0.386973
12

C        1.257367       1.475917      -2.186051
C        0.339519       0.644886      -1.290498
C        1.220418      -0.802229      -0.985168
O        0.696177       2.706595      -2.572448
O        0.588475       3.561893      -1.432523
O        2.356233      -1.016027      -1.220467
H        0.688807       4.440805      -1.820285
H        2.220096       1.639363      -1.688322
H        1.427067       0.971172      -3.140481
H        0.479892      -1.226554      -0.324878
H       -0.592520       0.444498      -1.813771
H        0.103570       1.181189      -0.374144
12

C        1.218974       1.430698      -2.175280
C        0.265413       0.636877      -1.290332
C        1.321170      -1.000298      -1.034881
O        0.707814       2.679056      -2.585404
O        0.624066       3.552070      -1.455345
O        2.478052      -1.056040      -1.223973
H        0.686191       4.424697      -1.864186
H        2.179309       1.572319      -1.667612
H        1.384366       0.911807      -3.123461
H        0.472890      -1.157945      -0.398940
H       -0.659725       0.465922      -1.831939
H        0.032677       1.164853      -0.370346
12

C        1.191329       1.414919      -2.158266
C        0.210703       0.653023      -1.283615
C        1.417164      -1.141047      -1.055753
O        0.714518       2.671212      -2.587334
O        0.639336       3.557876      -1.466725
O        2.573288      -1.095874      -1.229752
H        0.692060       4.424857      -1.888442
H        2.148268       1.542225      -1.639967
H        1.357286       0.884144      -3.100535
H        0.473026      -1.040024      -0.474607
H       -0.710769       0.495799      -1.834929
H       -0.023387       1.183759      -0.364547
12

C        1.169336       1.406790      -2.133237
C        0.163111       0.675643      -1.267760
C        1.512428      -1.247394      -1.066794
O        0.721820       2.665333      -2.578171
O        0.651291       3.564104      -1.466808
O        2.649273      -1.097945      -1.242360
H        0.698373       4.426144      -1.899302
H        2.121988       1.521655      -1.603824
H        1.337370       0.864464      -3.069253
H        0.458502      -0.881868      -0.549599
H       -0.755550       0.527360      -1.825893
H       -0.071846       1.213205      -0.351493
12

C        1.157802       1.405294      -2.098213
C        0.126441       0.701351      -1.242242
C        1.617242      -1.358888      -1.042232
O        0.734684       2.663387      -2.559744
O        0.660773       3.574036      -1.458372
O        2.705300      -1.084326      -1.280858
H        0.692692       4.431084      -1.902012
H        2.104089       1.511096      -1.554490
H        1.332748       0.852764      -3.026979
H        0.428076      -0.684089      -0.629423
H       -0.790005       0.559687      -1.806162
H       -0.106576       1.254002      -0.334238
12

C        1.153070       1.425884      -2.060844
C        0.099345       0.740386      -1.214456
C        1.726896      -1.465123      -0.985282
O        0.747631       2.681774      -2.540034
O        0.662146       3.603577      -1.448787
O        2.763396      -1.145985      -1.329681
H        0.660140       4.454893      -1.904292
H        2.090778       1.528587      -1.500669
H        1.340463       0.865349      -2.981911
H        0.402586      -0.484218      -0.703604
H       -0.814089       0.604210      -1.785542
H       -0.131201       1.313122      -0.318840
12

C        1.149299       1.464228      -2.028359
C        0.076940       0.789099      -1.190698
C        1.835274      -1.584318      -0.910811
O        0.757635       2.717993      -2.524571
O        0.659939       3.649757      -1.442654
O        2.816185      -1.263805      -1.376465
H        0.600914       4.492547      -1.909926
H        2.078048       1.567768      -1.452639
H        1.350630       0.897836      -2.942389
H        0.394432      -0.296181      -0.777901
H       -0.832717       0.660717      -1.770766
H       -0.150276       1.382123      -0.308086
12

C        1.145352       1.501139      -2.013673
C        0.058038       0.842548      -1.173144
C        1.926523      -1.726115      -0.826517
O        0.770063       2.751926      -2.532283
O        0.673475       3.700467      -1.464670
O        2.845473      -1.437183      -1.415337
H        0.544406       4.527370      -1.946175
H        2.069157       1.606304      -1.429982
H        1.351973       0.922816      -2.918647
H        0.395285      -0.138085      -0.836510
H       -0.850719       0.725886      -1.758149
H       -0.158028       1.460515      -0.305433
[GEOCONV]
energy
0.0
18.7025173437
57.6891788792
87.843883188
92.8047780577
75.8207028565
55.9887594865
41.9126905084
37.6738143833
max-force
8.45221954253e-05
0.00639989356594
0.00806574859096
0.00875850065618
0.00862805364671
0.00507022276244
0.00754317936274
0.00568775568091
6.74875798882e-05
max-step
1000.0
1000.0
1000.0
1000.0
1000.0
1000.0
1000.0
1000.0
1000.0
