[Molden Format]
[Geometries] (XYZ)
12

C        1.291010       1.551125      -2.198428
C        0.422459       0.676060      -1.293910
C        1.103487      -0.596906      -0.898767
O        0.663166       2.754185      -2.556290
O        0.513928       3.584574      -1.405074
O        2.205992      -0.932219      -1.227202
H        0.717477       4.465008      -1.748224
H        2.254485       1.745483      -1.710982
H        1.469255       1.063527      -3.159650
H        0.480110      -1.239282      -0.245134
H       -0.520802       0.432689      -1.789885
H        0.170431       1.233345      -0.386973
12

C        1.242970       1.504165      -2.179874
C        0.330046       0.667925      -1.283703
C        1.187335      -0.760514      -0.979433
O        0.677594       2.734775      -2.562756
O        0.571959       3.588148      -1.421242
O        2.326120      -0.968237      -1.209776
H        0.661196       4.468003      -1.809292
H        2.206704       1.669541      -1.684367
H        1.411463       1.002324      -3.135781
H        0.452969      -1.189595      -0.315268
H       -0.602499       0.466445      -1.805156
H        0.098612       1.201950      -0.365964
12

C        1.208401       1.473076      -2.164532
C        0.265976       0.668385      -1.278862
C        1.271743      -0.941986      -1.015342
O        0.687564       2.722266      -2.567841
O        0.605556       3.591033      -1.434638
O        2.431567      -0.980553      -1.202992
H        0.653291       4.464957      -1.842148
H        2.171085       1.619240      -1.661336
H        1.371905       0.960944      -3.115990
H        0.442829      -1.106155      -0.379697
H       -0.660884       0.493054      -1.815939
H        0.042483       1.192193      -0.356298
12

C        1.200762       1.451050      -2.148959
C        0.238747       0.672216      -1.274833
C        1.344807      -1.082492      -1.010436
O        0.705450       2.709707      -2.569623
O        0.624444       3.589216      -1.445123
O        2.497392      -1.010222      -1.228979
H        0.656917       4.458092      -1.864573
H        2.161021       1.588062      -1.635682
H        1.367565       0.932900      -3.097642
H        0.457294      -0.994341      -0.457531
H       -0.688703       0.500135      -1.814556
H        0.023396       1.203605      -0.352934
12

C        1.172476       1.425096      -2.125936
C        0.180016       0.687658      -1.262539
C        1.456815      -1.187876      -1.051293
O        0.711797       2.687752      -2.563256
O        0.642194       3.582487      -1.449565
O        2.596890      -1.024449      -1.218185
H        0.695814       4.444925      -1.879867
H        2.130500       1.545894      -1.602742
H        1.338547       0.893125      -3.067589
H        0.467916      -0.841905      -0.554455
H       -0.742263       0.516254      -1.807822
H       -0.041766       1.221211      -0.342392
12

C        1.151359       1.404940      -2.089403
C        0.122381       0.704457      -1.235737
C        1.590195      -1.305277      -1.055404
O        0.725767       2.664980      -2.548209
O        0.655060       3.574973      -1.446392
O        2.679889      -1.016183      -1.263132
H        0.699688       4.431865      -1.888976
H        2.100378       1.510874      -1.547767
H        1.324356       0.855051      -3.019919
H        0.427408      -0.657336      -0.632683
H       -0.794876       0.551731      -1.795139
H       -0.106963       1.253452      -0.325605
12

C        1.144182       1.414256      -2.056296
C        0.089630       0.734267      -1.211370
C        1.712412      -1.428156      -1.007525
O        0.739786       2.671030      -2.534768
O        0.657317       3.593306      -1.443756
O        2.751471      -1.096495      -1.326375
H        0.667454       4.444671      -1.898919
H        2.083260       1.515513      -1.496905
H        1.329746       0.853723      -2.977691
H        0.391011      -0.463895      -0.710000
H       -0.823996       0.592650      -1.780439
H       -0.139700       1.304747      -0.314497
12

C        1.143119       1.449175      -2.029218
C        0.069921       0.777586      -1.192322
C        1.827471      -1.565234      -0.930843
O        0.752419       2.703371      -2.525117
O        0.656306       3.635393      -1.443262
O        2.811110      -1.236755      -1.383123
H        0.604802       4.478613      -1.910417
H        2.072508       1.551639      -1.453855
H        1.343359       0.882573      -2.943346
H        0.383141      -0.285329      -0.787433
H       -0.839895       0.646620      -1.771373
H       -0.156786       1.369573      -0.309023
12

C        1.145352       1.501139      -2.013673
C        0.058038       0.842548      -1.173144
C        1.926523      -1.726115      -0.826517
O        0.770063       2.751926      -2.532283
O        0.673475       3.700467      -1.464670
O        2.845473      -1.437183      -1.415337
H        0.544406       4.527370      -1.946175
H        2.069157       1.606304      -1.429982
H        1.351973       0.922816      -2.918647
H        0.395285      -0.138085      -0.836510
H       -0.850719       0.725886      -1.758149
H       -0.158028       1.460515      -0.305433
[GEOCONV]
energy
0.0
16.1920453438
52.4537903691
78.8758805771
88.4387088685
74.4693963703
54.1496389012
40.7678725909
37.6738143833
max-force
8.45221954253e-05
0.00665946737815
0.00800545282676
0.00553746719613
0.00473990733385
0.0057481738047
0.00748728606003
0.00493266062142
6.74875798882e-05
max-step
1000.0
1000.0
1000.0
1000.0
1000.0
1000.0
1000.0
1000.0
1000.0
