56
 energy: -94.151687320852 gnorm: 0.000156866377 xtb: 6.4.0 (d4b70c2)
c         0.96554716999974   -2.74177403999975    0.17727162000002
c         1.16832473000018   -4.23932533000001   -0.00732709000009
c        -0.46061281000015   -2.35403843000006   -0.23247500999993
o        -0.76651547000013   -2.21196530999986   -1.41317611000005
o         0.78974222000022   -0.08232139999975   -0.23277365000020
o         1.13933489000016   -1.67997875000005   -3.47719251999990
n         1.87833775000024   -1.99667252000018   -0.67016258000001
c         1.62665881000004   -0.68879063999998   -0.88332230000005
c         2.37922721999985   -0.08253094999992   -2.04904987999982
c         1.46157352000017   -0.33046621999991   -3.28822829999975
n         2.66627241999974    1.31187143000019   -1.80260605999978
n        -1.33469471000015   -2.24546139999986    0.76859922000021
c        -2.73149367999982   -1.90189817000006    0.56162553000010
c        -3.56891233999997   -2.45022377999994    1.70579585000026
c        -2.90516107999983   -0.36998390999976    0.44567554999984
o        -3.52031218999983    0.28546418999994    1.25867307000022
n        -2.33310336000025    0.14155747000007   -0.65984389999975
o        -0.12435088000003    2.47852208999980   -1.42526253999986
o        -0.74487029000024    2.09218530999977    0.71258858999994
c        -2.31928166999980    1.56416543000019   -0.93812610999987
c        -0.92534579000004    2.10978061999980   -0.61017734999978
c        -2.68748764000025    1.83544721999977   -2.38973752999977
h         1.13595318000016   -2.44910077999997    1.21971923000010
h         0.95804688999974   -4.51991736000002   -1.03782475000005
h         0.49839099000004   -4.78977758999985    0.64786629000004
h         2.19326217999990   -4.50971496000007    0.23480977000026
h         0.44076954000011   -1.93833372999997   -2.84620459000008
h         2.40667669000014   -2.50954704999985   -1.36001871000015
h         3.32503996999977   -0.61673320999980   -2.19997117999999
h         1.99583327000015   -0.00862597000007   -4.18793456000020
h         0.56381566999979    0.29166647000004   -3.17294626000024
h         1.81710516000007    1.78003880000006   -1.49465940000000
h         2.96744853000006    1.76219508000006   -2.66061170000012
h        -0.99018959999988   -2.21185341000025    1.71986703000014
h        -3.03182981000008   -2.34691827000014   -0.39498053999977
h        -4.61736501999986   -2.22765621999982    1.53113047000019
h        -3.27527027000016   -1.97537407000008    2.63888434999983
h        -3.44003035000001   -3.52618875000004    1.79034292000024
h        -1.76995086999990   -0.46097822999995   -1.24883763999995
h        -3.03797923000001    2.01625060999982   -0.24373634000014
h        -2.70025139999993    2.90535559000015   -2.57711561000004
h        -3.66832728000007    1.42247481000020   -2.60820543000005
h        -1.95399454999982    1.38066160999975   -3.05122923999977
c         0.51722359000018    2.23847331999974    1.26055915999984
c         0.94182573999997    1.24207740000020    2.15356321000010
c         1.35182380000023    3.29404990999991    0.93955873000014
c         2.21983145999983    1.32383645000026    2.69986159999995
c         3.04958205999986    2.38213519999983    2.38473633000010
c         2.61435277999983    3.36264490999989    1.50796419000002
h         1.02288834000024    4.04841453999992    0.24236526999977
h         4.03869646000010    2.44036060000025    2.81264321000020
h         3.26398492000011    4.18573378000004    1.25238262000009
h         2.53920017000005    0.54118575999993    3.37183802000003
c         0.06254597999988    0.10514940999985    2.41603171999990
o         0.40688003000009   -0.97371238999989    2.84721420000026
h        -0.99395227999993    0.30077797999989    2.17213985000023
56
 energy: -94.069430501360 gnorm: 0.101145470041 xtb: 6.4.0 (d4b70c2)
c         0.82478890536590   -2.90051866136989    0.09498281415292
c         0.68117577954009   -4.28962612411337   -0.51132652944021
c        -0.53311317148338   -2.25885868107755   -0.21572271135948
o        -0.78946635203946   -1.93538333730729   -1.37221008807449
o         0.82572538055908   -0.20576297117504    0.01143544592794
o         1.34473697218748   -1.59543507700062   -3.40482017576038
n         1.89870809225684   -2.12358298268139   -0.49626686120002
c         1.65818545911279   -0.80542828438093   -0.65102934271971
c         2.44480163677513   -0.10991180863913   -1.74204842556861
c         1.58319223955655   -0.26604125385834   -3.03525228121765
n         2.61325647752128    1.31493679896097   -1.57199868508001
n        -1.43361805868434   -2.17985040036134    0.76448461601122
c        -2.82933143647933   -1.93427656377518    0.44261688362925
c        -3.66482114343791   -2.67928029159044    1.47119994596215
c        -3.12288572927188   -0.41677063132853    0.47959954805568
o        -3.83677780111075    0.14677056373350    1.28070348763248
n        -2.46613605609251    0.20227350544700   -0.51868003704804
o        -0.11632406856272    2.51612857291133   -1.34239863031579
o        -0.73865672440667    1.94981641419766    0.75625226767057
c        -2.31481612845985    1.58242840841049   -0.93547758156214
c        -0.92910989948371    2.11467661396214   -0.55490733246031
c        -2.40817695096873    1.51577463433702   -2.45310277055644
h         1.04770876595524   -3.06523719034980    1.15543904196462
h         0.15305728653681   -4.24685464080964   -1.46218695188063
h        -0.00909329157629   -4.82600648592048    0.13436069315497
h         1.61951098014963   -4.80783390594180   -0.69360470850518
h         0.59071843152061   -1.88707308030205   -2.85774620714668
h         2.53120775547816   -2.55492921277521   -1.15350989633426
h         3.39177232579736   -0.66197142602012   -1.77651211040741
h         2.16430673743440    0.03416996891270   -3.91312763891913
h         0.68639096979857    0.36212631037843   -2.94887413505510
h         1.77922913054594    1.70438457271624   -1.13861007946360
h         2.70851594016604    1.76794659344093   -2.47498256001544
h        -1.05256418043528   -2.10238216387510    1.69910771361516
h        -2.95699213292019   -2.40383897761613   -0.54051777176669
h        -3.70184874640413   -2.10290701165420    2.39083038113490
h        -3.28345880569992   -3.66838119989570    1.71328304069595
h        -4.69557959170671   -2.73106471051515    1.13015040591095
h        -1.94826111871080   -0.45263518815274   -1.09313959804507
h        -3.16973901904563    2.04810931807215   -0.43017321066964
h        -2.19791941766282    2.51742162568025   -2.81707042980240
h        -3.30284134580699    1.02726903933760   -2.82894681203044
h        -1.62021813589735    0.87827555887174   -2.84696719490278
c         0.50951592868355    2.27432349033980    1.25756373701927
c         1.10845142930288    1.35658524999210    2.13482140049533
c         1.19552942481910    3.41905187702805    0.89311448242270
c         2.42314933586985    1.58824858309862    2.53020316745818
c         3.18502738504245    2.60511902613929    1.98862893249043
c         2.53370427549348    3.56109329032048    1.22610373754251
h         0.63424641806370    4.05890283746815    0.23062264300513
h         4.24077059955397    2.56949968533880    2.20994172588767
h         2.98536756173203    4.51229333685506    0.98938043206256
h         2.87614512199293    0.76384421036892    3.06052673072339
c         0.36533864507630    0.14481588120228    2.47249934711832
o         0.83439394965487   -0.89919160776239    2.87057294165643
h        -0.73294366687340    0.20899252883406    2.41250165081136
56
 energy: -94.068356984449 gnorm: 0.114589277893 xtb: 6.4.0 (d4b70c2)
c         0.45799755507541   -3.31152565092870   -0.24615570584738
c         0.57627700626409   -4.41187421396507   -1.29166912195542
c        -0.88262379558058   -2.60267848695135   -0.47513953379229
o        -1.11018232035381   -2.16143763604645   -1.59823344428986
o         0.61857126140358   -0.40129173950479   -0.01283133415800
o         1.43215399199130   -1.35125142403257   -3.07886478171336
n         1.54414622384599   -2.39259212634356   -0.53312241574651
c         1.54614729604175   -1.04487273751184   -0.47850725677846
c         2.68199759042849   -0.34340458290627   -1.19308220332033
c         2.04673592153526   -0.18337124533614   -2.61081113079386
n         3.09598790465820    0.95454134583777   -0.71200436372617
n        -1.69871046239851   -2.52358768428486    0.57638553028915
c        -3.06231786802006   -2.02911607546873    0.48697720518010
c        -3.97090176742910   -2.63732508312654    1.54320342124073
c        -3.14316865745639   -0.48539685615090    0.45940533064010
o        -3.99826635928170    0.05977826172878    1.12316740685032
n        -2.28436549413361    0.13928308431722   -0.36723243472696
o        -0.21212107128216    2.53088297756825   -1.27661396536545
o        -0.74145954637105    2.01688887798363    0.88340012577480
c        -2.28264057277867    1.49509086640535   -0.88028968600640
c        -0.95850393977652    2.12123696576660   -0.42983785610439
c        -2.36540367593481    1.33536994628334   -2.39157545513853
h         0.47616607424466   -3.64596758459554    0.79749718944365
h         0.89292780917806   -3.80971698768149   -2.14138262000222
h        -0.35994978544157   -4.95000854392241   -1.41405421012208
h         1.26253246245106   -5.21959962239480   -1.04903626852629
h         0.48281911514207   -1.28919306850120   -2.86023572632557
h         2.43699159131893   -2.76174573171724   -0.82404605899651
h         3.55407274942742   -0.98621319155150   -1.36335569552522
h         2.82680629131789    0.01952345729359   -3.35162820629020
h         1.22813279801876    0.54874870123467   -2.62486460803195
h         2.33706577512949    1.40780262342588   -0.20832958474977
h         3.38797218517138    1.53696698386880   -1.48994888203173
h        -1.31388458508809   -2.81238800688450    1.46701852825981
h        -3.38694760262022   -2.33390334324628   -0.51554966075634
h        -4.91665827727102   -3.05061394230283    1.20551379814169
h        -4.10849731608946   -1.80015983318018    2.22333860769322
h        -3.46823130934329   -3.42332411315953    2.10086579995801
h        -1.58977736962613   -0.53856664154099   -0.65907266256941
h        -3.23039551938722    1.89408188068558   -0.49864705790238
h        -2.05736621223823    2.27760564244364   -2.83574005962140
h        -3.42592334475073    1.29624136391380   -2.62414334423999
h        -1.75441048886065    0.50254995554713   -2.73144533972583
c         0.48970030411917    2.49801530425903    1.29244265354818
c         1.37728724907429    1.62044108221667    1.93478300863028
c         0.90127331923643    3.74740558343736    0.86410581830412
c         2.72905653386340    1.93900514147697    2.03307832238170
c         3.12772070654246    3.16791949705765    1.54458810202824
c         2.23182744913983    4.09546179161889    1.03803719250357
h         0.22672858130322    4.48975409178294    0.46755645464386
h         4.16724001970546    3.44798883964882    1.46841340612833
h         2.62636195928402    5.05822249355429    0.75123842913326
h         3.52178009600427    1.26845042134121    2.32978788442056
c         0.90781027860428    0.32494202461040    2.42048000934723
o         1.60711306316553   -0.43525181015380    3.05412663675248
h        -0.15391805172899    0.05329467675750    2.30697636797547
56
 energy: -94.084260389020 gnorm: 0.104077474099 xtb: 6.4.0 (d4b70c2)
c         0.12573483599740   -3.71996785878210   -0.79021155776760
c         0.33868905042215   -4.63963332374589   -1.98466591880950
c        -1.16607603000852   -2.89544459185017   -0.84978971146541
o        -1.71904821372090   -2.57591335183430   -1.89856892775841
o         0.40835881882557   -0.84885491599727    0.12323613077174
o         1.70558215771630   -1.09428762132022   -3.02962210145481
n         1.27906866754474   -2.85453009389496   -0.62484473836220
c         1.31105231357459   -1.54055298630442   -0.32189990942000
c         2.66031951443093   -0.99446698050028   -0.73915151822816
c         2.37474617893754   -0.28678574735209   -2.10178078126329
n         3.08483627223825   -0.01877348193369    0.23824053121331
n        -1.75240635509913   -2.67281087077407    0.32690427046299
c        -3.10582596987644   -2.14487775723026    0.36515527412336
c        -3.79803189333055   -2.75228677353276    1.57468491676504
c        -3.24949720955797   -0.60548792541757    0.36326008271420
o        -4.22893775485128    0.00912563053044    0.72648792963926
n        -2.18907686552870   -0.01305453349582   -0.21607510037140
o        -0.14056949697783    2.27606736164022   -1.25009475861701
o        -0.57111285037323    2.19791735341471    0.95276001072357
c        -2.24994721397017    1.39218570894854   -0.56684585094801
c        -0.88785617758475    2.05544442277327   -0.33641256173958
c        -2.73481110685549    1.57236848784324   -1.99820407044382
h         0.05764139712616   -4.40514217918500    0.06260278132511
h         0.17199861070890   -4.16202070325623   -2.94849918541465
h        -0.46804173797491   -5.36676369185179   -1.94524341264419
h         1.35745031511829   -5.01221132675051   -1.91017629500189
h         0.77555695056297   -0.85578185152003   -3.20584560570283
h         2.08269632347669   -3.14846936217966   -1.15950920750930
h         3.39605251105204   -1.78757314747260   -0.91912544842445
h         3.27707897639396   -0.03804936765325   -2.66959388157596
h         1.81707606979170    0.65342206478781   -1.99537820224237
h         3.63345516081677    0.75577170481789   -0.12808437327668
h         3.56787239146670   -0.49923831086222    0.99023905029473
h        -1.24472798753317   -2.72969043187256    1.20083281694126
h        -3.68449859864272   -2.49900034435409   -0.49686272853870
h        -3.16206032300426   -2.42796861356307    2.39300956445904
h        -3.88725614745928   -3.83423792309965    1.63618942138651
h        -4.78203255272914   -2.29110149974118    1.59727334053807
h        -1.39027362381290   -0.61978400229299   -0.36063084466586
h        -2.99220115753411    1.83553583275889    0.10812385991812
h        -2.88406555551723    2.64364100694179   -2.09858176212231
h        -3.64110293160119    0.97513244818407   -2.04579690546234
h        -2.02927365246421    1.17733612805909   -2.72523892924874
c         0.62212705201500    2.86131694354588    1.17777675759121
c         1.68909906308071    2.25043347618423    1.85522812427908
c         0.83208444010795    4.14724461928616    0.71285873072562
c         2.89479576425985    2.92843553364405    2.01344921246657
c         3.03836273954813    4.24103270148299    1.60815485222086
c         1.98033836126023    4.87692182736511    0.97904222360248
h        -0.00746587666918    4.66726431156156    0.27917902096288
h         3.92678542531343    4.84414328986234    1.71680373738011
h         2.00175202781024    5.88741487141945    0.60053932670502
h         3.63955832455031    2.39243183069367    2.58276423673465
c         1.54804092361799    0.87686045053354    2.33275065218656
o         2.43806728409750    0.13255372444700    2.68244720889458
h         0.51129616708438    0.50491740173660    2.30516295168524
56
 energy: -94.077915822127 gnorm: 0.104495755395 xtb: 6.4.0 (d4b70c2)
c        -0.17065596017733   -3.97501177195620   -1.11349926751804
c        -0.25071347834664   -4.95659692313179   -2.27450601634974
c        -1.42149434979250   -3.08757208188556   -1.10930320415001
o        -1.99153529194871   -2.78747975499640   -2.15468074975112
o         0.63866458900835   -1.58440969041558    0.25427696611112
o         2.27514195375099   -0.81646576230835   -3.12780659718172
n         1.05545389806639   -3.22545096859671   -1.31677458578741
c         1.34225446211477   -2.13275413334032   -0.57982585918471
c         2.71515776922223   -1.57391122125568   -0.88911847060016
c         2.50748870468198   -0.34479827483616   -1.83001075502668
n         3.29915379806960   -1.11552795788209    0.35036566458716
n        -1.82134357390167   -2.77646152267790    0.12410206895029
c        -3.18104888017003   -2.28563649400756    0.27314378882023
c        -3.74420853028691   -2.68888243107603    1.62639935617172
c        -3.24622145482306   -0.74369524030472    0.18075454532858
o        -4.31119237626890   -0.20036714871526    0.37980125304230
n        -2.11199571748012   -0.09576655284702   -0.14300195658196
o        -0.10645095632548    1.75317075022010   -1.29049814263124
o        -0.25762641539252    2.44612623242342    0.82873003775560
c        -2.16324656433108    1.35057997833869   -0.05993261509320
c        -0.73870867635410    1.87217024738098   -0.27658674523657
c        -2.97971934452476    1.82918101055044   -1.25184638171587
h        -0.08444559356470   -4.46292690214337   -0.13579815713492
h        -0.30538580430144   -4.39596346923912   -3.20594315924143
h        -1.05987775754927   -5.67260152188132   -2.15755365450055
h         0.62217111294370   -5.60196330790573   -2.33624989440691
h         1.32723712094155   -1.04962412617910   -3.12734080390377
h         1.64284547707884   -3.53787632044171   -2.07535571503967
h         3.33405503497986   -2.34858842378114   -1.35768272075585
h         3.37579620251227    0.32192512522819   -1.83283527311704
h         1.63611266784302    0.29217142880524   -1.62683204405898
h         4.30098082040765   -1.18166012277617    0.51488320447247
h         2.74665327711201   -1.44912407039951    1.13339115909947
h        -1.34590511126354   -3.08765063405889    0.96186296446654
h        -3.81111519153668   -2.61334975454292   -0.56289467656882
h        -4.47156058848299   -3.49520851637107    1.63612373069220
h        -4.19722021009271   -1.83855937654308    2.13047591981222
h        -2.89906870136554   -3.05669888266136    2.20251489884730
h        -1.23037172018816   -0.59447252243374   -0.17669336870631
h        -2.44222965709068    1.71824183737107    0.93509379102131
h        -3.03002749983442    2.91287371854005   -1.30713278090958
h        -3.93584462013167    1.33561487205114   -1.10172056665720
h        -2.53584394605357    1.50600631606437   -2.19043366952775
c         0.84748714217134    3.26638246514137    0.97175712344971
c         1.84254170040482    2.85688314748103    1.87326971581322
c         0.81799327710674    4.58001647795716    0.53893308731503
c         2.75871231054595    3.81886583702103    2.28997816657460
c         2.76422742094169    5.12840732325192    1.85082331299983
c         1.79785716777391    5.48222456554971    0.92319453530045
h         0.01599702548325    4.79523138215977   -0.14941846448613
h         3.45703684862703    5.81289710194435    2.31593691605311
h         1.60045213345237    6.45411531895311    0.49742606689154
h         3.47544469346851    3.50376637562398    3.03368365246460
c         1.92387070147922    1.51650388152798    2.44894064738139
o         2.55952265827934    1.21828439368938    3.43658371354423
h         1.36719101287896    0.76919821698348    1.86107640685100
56
 energy: -94.072281299614 gnorm: 0.111940886202 xtb: 6.4.0 (d4b70c2)
c        -0.38561896180864   -4.09862613210658   -1.52124725531399
c        -0.56079822442643   -5.25169567373294   -2.49981670066906
c        -1.68056060578174   -3.27988587815740   -1.45086221749996
o        -2.27642699999958   -2.94650770263840   -2.47145936911642
o         1.02707376651042   -2.69966685820245    0.32783252055215
o         2.40633674805983   -0.72484926016872   -3.10447986290968
n         0.75751001601995   -3.25029179714838   -1.80425371149848
c         1.43221633117959   -2.61926393358386   -0.82144670798871
c         2.78648000521479   -1.98598879883126   -1.06178674741349
c         2.72137313561555   -0.58425976051980   -1.74738150655753
n         3.46243734206264   -1.89344124348763    0.21179251398953
n        -2.00450645276190   -2.93052117771369   -0.20548630180756
c        -3.24512443367650   -2.30774566870657    0.22455890432790
c        -3.73445582239623   -2.76090696821447    1.59066883850067
c        -3.24252040805883   -0.76186143347276    0.20003858717056
o        -4.25945560686048   -0.13545868977359    0.40607375903341
n        -2.02878404412633   -0.23190787873563   -0.03889900092789
o         0.28348254600054    1.51114007970766   -0.89218640467352
o        -0.17009882459407    2.59844341366920    1.00311057861907
c        -1.84912254491266    1.17152340918560    0.27661301971848
c        -0.41813765949665    1.67847569926666    0.06784219425453
c        -2.61992956141066    2.10918893038639   -0.64152917837001
h        -0.12616713227972   -4.50117305147494   -0.53532961165563
h        -0.81545165418709   -4.91230428671396   -3.50223338273078
h        -1.41535343202892   -5.85953338984659   -2.21458699965251
h         0.35517795730454   -5.83652277825638   -2.46513988343132
h         2.78547819256814    0.02147551448245   -3.60661302036627
h         0.88852223481599   -3.02715836719500   -2.77951320395459
h         3.53050579951696   -2.60100809105270   -1.58225571314394
h         3.72709622039158   -0.18073787800517   -1.59189147552380
h         2.00483776290042    0.03620492566127   -1.19248617903400
h         3.84668878151343   -2.78724688240321    0.50938145745299
h         2.84811033539554   -1.56300060362124    0.94873445929450
h        -1.54037204013715   -3.34562580293659    0.59263093335242
h        -4.00393731931993   -2.43915589251519   -0.55664159535007
h        -3.80889483290380   -1.88249457785938    2.22482011760312
h        -3.05380273675521   -3.49001220101084    2.02365729206328
h        -4.69940612538252   -3.25949711803628    1.54897747623993
h        -1.19889169023753   -0.75706628944063   -0.28908085877198
h        -2.03470723415363    1.31126528365674    1.34858078644509
h        -2.30106494325957    3.13710178000181   -0.49422706803115
h        -3.65197429378737    2.20739109011064   -0.31662789343974
h        -2.68916660501588    1.83771554885027   -1.69220600134871
c         0.80520769798458    3.57809379614763    1.06323814294956
c         1.74295457059684    3.47304979165719    2.10253828344441
c         0.64918454852647    4.73599658560853    0.32245560867311
c         2.51975482794901    4.58888881529820    2.40238800100848
c         2.44514299903305    5.71299628969706    1.60326237409612
c         1.56653859925113    5.75383554453203    0.53277663406395
h        -0.09496357273551    4.71068325719946   -0.45789438486099
h         3.00829754082940    6.60844278634621    1.81744536842338
h         1.58392045343981    6.65551236164949   -0.06009431680907
h         3.21349412601411    4.70009515274184    3.22241835142884
c         1.84834673823770    2.24360474738436    2.88483322770832
o         2.47432860249664    2.12433481161308    3.91553613722696
h         1.25593379632430    1.41172918680630    2.47134519031575
56
 energy: -94.079597016657 gnorm: 0.108295491910 xtb: 6.4.0 (d4b70c2)
c        -0.49392658275706   -4.15776627976146   -1.95633804228474
c        -0.54215664675896   -4.92342205188868   -3.27136671518987
c        -1.77093706868344   -3.34037745761351   -1.72550634964817
o        -2.59314567413093   -3.25256589869568   -2.63329402650862
o         1.14905486570715   -3.44950071519368    0.37833925290681
o         2.18114384762272   -1.22460544067523   -2.98803774280156
n         0.66591260125767   -3.29193744632024   -1.84853652786064
c         1.44290346183544   -3.11813041095505   -0.75977084795350
c         2.77958830425044   -2.52027181016729   -1.14534776256958
c         2.57811987218937   -1.05802148060492   -1.65560046422601
n         3.71883288847934   -2.63500912084822   -0.05349499421192
n        -1.86346257657647   -2.81999001551653   -0.50133571670536
c        -3.09457802005770   -2.22952167090700   -0.00371828214108
c        -3.82707622917115   -2.99233535775937    1.08835240893137
c        -3.01960097130349   -0.74693963678616    0.42836397887791
o        -3.95573903965046   -0.16664836530394    0.93422528356641
n        -1.92649705573421   -0.07800102201456    0.01758072885202
o         0.56990422841059    1.24986031761396    0.01675926711890
o        -0.28194430493250    2.80132333375298    1.38243375718318
c        -1.83274965472589    1.31778288161759    0.39763887952256
c        -0.36951714031526    1.73046971970645    0.58984663609898
c        -2.52670883443838    2.26530872698566   -0.57032838338014
h        -0.35635416614640   -4.84987888971878   -1.11762066161219
h        -1.09471815105809   -4.33685149019218   -4.00313501766510
h        -1.04963111526664   -5.86951844104965   -3.10267005752288
h         0.46090998894250   -5.07419191827133   -3.66298306275083
h         1.56339525282061   -0.52888333893688   -3.28340876830722
h         0.84818599798515   -2.86667945636728   -2.74520584263322
h         3.20713693695676   -3.08195169509376   -1.98465040748754
h         3.54277179492363   -0.55019411372674   -1.55538062540904
h         1.90111543004162   -0.55788043187250   -0.95002827929035
h         3.22859596602861   -2.86024146191291    0.80907965217209
h         4.04134585184649   -1.68709049370209    0.11114941933213
h        -1.04285401921027   -2.73687257104410    0.08553464426911
h        -3.73055459537395   -2.26889431189431   -0.89664798985178
h        -3.20030388868127   -3.83246581064193    1.37231472572190
h        -4.75590462470010   -3.42928886842921    0.72958854585031
h        -4.03272760956504   -2.39678167574713    1.97406270023208
h        -1.08520437167453   -0.52891315794927   -0.32301949047923
h        -2.43795797830959    1.26484285481475    1.31087740774763
h        -2.70788599869150    3.24603624895275   -0.13983361195539
h        -3.42564460932279    1.78499753355034   -0.94654171438628
h        -1.94031676492144    2.59064917879389   -1.42631394677181
c         0.70472951889092    3.76624876560483    1.28270069835934
c         1.62927596851111    3.98800284183546    2.31545778903325
c         0.64281001689272    4.60132981578477    0.18149841912660
c         2.40046640320436    5.14698279061184    2.29410373791190
c         2.30286017460691    5.98701688758493    1.20204053514080
c         1.47924788783768    5.70534558402332    0.12413639795115
h        -0.05984334584279    4.36591011351122   -0.60221014524037
h         2.86614907807307    6.89513765563877    1.05083173717965
h         1.55468181874766    6.28056654830143   -0.78594587168340
h         3.01334978718822    5.36329974810033    3.15646779059564
c         1.74739294836290    3.14739932559170    3.50460122011972
o         2.64019097592725    3.27705189848081    4.31363087701067
h         0.96185498131051    2.38501278340999    3.62965823903758
56
 energy: -94.070121801231 gnorm: 0.113929739020 xtb: 6.4.0 (d4b70c2)
c        -0.59236942175123   -4.24129652203882   -2.28929312454963
c        -0.76018656324301   -4.60810041399427   -3.75733522987971
c        -1.77985431663992   -3.34067628574765   -1.92745564915693
o        -2.81680681117452   -3.34372174114401   -2.58513077765770
o         0.88996385654826   -3.99444479572988    0.10134307632818
o         1.79466867130873   -1.21947893145390   -2.67006538935638
n         0.77565020107931   -3.78058633350772   -2.13837555476870
c         1.37479084902817   -3.59185113475707   -0.94474918516745
c         2.72352468789922   -2.92026002013733   -1.09545836446898
c         2.64289062100879   -1.43689172241966   -1.57737124741577
n         3.63764495949200   -3.01061430233751    0.01975809405793
n        -1.63244978029247   -2.57565196210273   -0.84534314103415
c        -2.86478156608803   -2.11763456307978   -0.22606966441490
c        -3.74336862556355   -3.16461818444892    0.43948785886385
c        -2.70707098730592   -0.88708691569095    0.69656026409670
o        -3.48293480264016   -0.69875943559998    1.60845730032462
n        -1.82638987406084    0.04140988859552    0.28015614828532
o         0.73549813334521    1.40366216433172    0.60278186266693
o        -0.40874120188741    2.99388585296785    1.72828804621375
c        -1.71859012335952    1.43089519232220    0.67909886222670
c        -0.29007372143581    1.86803090952998    1.02050314350244
c        -2.20352122435863    2.26800065452514   -0.49582303350752
h        -0.65818241590045   -5.15225805217610   -1.68331406298252
h        -0.30499827919126   -3.82035291767227   -4.35494011339587
h        -1.80305873905574   -4.64641855180633   -4.06071061118374
h        -0.37084923091776   -5.57454803307935   -4.06819377320000
h         1.97648417657147   -0.32049581725552   -3.00421968728584
h         1.04498544313318   -3.33165051843407   -3.00092930672821
h         3.10976403752705   -3.51568345614415   -1.93152125481644
h         3.62185239941975   -1.09328319298233   -1.92673209308432
h         2.28485357996868   -0.82143578007560   -0.74111072917411
h         3.15162084391920   -2.74414871637159    0.87291313293978
h         4.47921786957369   -2.45279644693471   -0.08156513896054
h        -0.90133036451201   -2.85600138143746   -0.20378851911735
h        -3.45373203716049   -1.69592934367509   -1.04986692026212
h        -4.52717508503265   -3.60150635913229   -0.17212762586917
h        -4.23631738497590   -2.68890649025617    1.28391782732772
h        -3.15199533319668   -3.97308065328804    0.86153698307529
h        -1.00653165795666   -0.29745492408323   -0.20985077759289
h        -2.46598355982085    1.53917204671085    1.47456321970714
h        -2.14158210626450    3.28940086587947   -0.13129246312138
h        -3.26094561591591    2.12834262669496   -0.70239053180975
h        -1.62260969945382    1.97470343945394   -1.36699000649128
c         0.59317254934392    3.90373961862746    1.44038532089045
c         1.44957856372764    4.47230289366856    2.39634179696780
c         0.66156968074217    4.42528971751964    0.16087440196608
c         2.33121878952554    5.49007819181230    2.04240792126153