[Molden Format]
[Geometries] (XYZ)
12

C        1.930289       1.452693      -1.709364
C        1.114458       0.657163      -0.684090
C        0.354302      -0.471396      -1.318286
O        1.135878       2.080698      -2.678697
O        0.361937       3.113138      -2.062271
O        0.177007      -1.548407      -0.824199
H        0.116969       3.663387      -2.817634
H        2.550472       2.194706      -1.190736
H        2.570871       0.795301      -2.302811
H       -0.056878      -0.216732      -2.313487
H        0.376038       1.336281      -0.246313
H        1.757758       0.282880       0.112190
12

C        1.884395       1.443666      -1.786878
C        1.114547       0.716391      -0.681413
C        0.439093      -0.471530      -1.339249
O        1.059978       2.147246      -2.674239
O        0.448905       3.256111      -2.014777
O        0.133298      -1.505735      -0.806235
H        0.142121       3.788110      -2.763366
H        2.634608       2.116558      -1.344932
H        2.394761       0.721609      -2.425207
H        0.218786      -0.305999      -2.409842
H        0.201404       1.176868      -0.277681
H        1.697189       0.552553       0.219588
12

C        1.827279       1.442523      -1.849594
C        1.098077       0.761920      -0.689230
C        0.495090      -0.477419      -1.317519
O        1.008821       2.210190      -2.682206
O        0.544828       3.369486      -1.983660
O        0.100579      -1.493309      -0.795914
H        0.188559       3.906636      -2.705793
H        2.660460       2.054905      -1.472741
H        2.225953       0.680425      -2.518263
H        0.425417      -0.387518      -2.415879
H        0.067141       0.932900      -0.280114
H        1.592404       0.814242       0.274386
12

C        1.787065       1.438210      -1.890407
C        1.080183       0.790862      -0.699010
C        0.510878      -0.479331      -1.302228
O        0.976906       2.263734      -2.697391
O        0.603609       3.436772      -1.973339
O        0.079540      -1.436926      -0.786661
H        0.217124       3.982296      -2.668317
H        2.659698       1.997496      -1.547742
H        2.112673       0.659092      -2.575935
H        0.528709      -0.470588      -2.399138
H       -0.093930       0.641283      -0.133189
H        1.478094       1.003001       0.277608
12

C        1.784066       1.439498      -1.941319
C        1.065995       0.785035      -0.760936
C        0.537409      -0.467741      -1.291023
O        0.986288       2.305414      -2.720409
O        0.643590       3.468086      -1.972131
O        0.023968      -1.362561      -0.690861
H        0.252238       4.034294      -2.658858
H        2.673345       1.980820      -1.585928
H        2.088728       0.681901      -2.657467
H        0.581270      -0.571385      -2.384169
H       -0.216218       0.301702       0.030757
H        1.366661       1.075985       0.232360
12

C        1.811755       1.438875      -2.005387
C        1.056525       0.743788      -0.871985
C        0.534800      -0.448174      -1.307845
O        1.024215       2.325479      -2.765702
O        0.639158       3.452284      -1.976024
O       -0.055356      -1.232732      -0.535639
H        0.240206       4.031386      -2.645894
H        2.689268       1.968749      -1.585296
H        2.144613       0.738573      -2.760756
H        0.549381      -0.683722      -2.373655
H       -0.283145      -0.001566       0.097320
H        1.258288       1.069246       0.126471
12

C        1.823337       1.456955      -2.053527
C        1.019028       0.739779      -0.979340
C        0.544115      -0.456066      -1.313240
O        1.058982       2.384245      -2.793220
O        0.668173       3.480870      -1.961082
O       -0.113559      -1.167450      -0.404731
H        0.272917       4.077805      -2.608518
H        2.688175       1.952319      -1.584527
H        2.175440       0.787374      -2.833879
H        0.550166      -0.822492      -2.328250
H       -0.306312      -0.277667       0.232510
H        1.098235       1.139125       0.008867
12

C        1.853159       1.477919      -2.080318
C        1.048836       0.756438      -1.024090
C        0.589378      -0.473124      -1.257342
O        1.115112       2.445858      -2.787450
O        0.784529       3.536338      -1.913400
O       -0.104211      -1.188027      -0.340407
H        0.379942       4.161265      -2.521763
H        2.730642       1.952248      -1.620321
H        2.173133       0.798380      -2.871275
H        0.701336      -0.961885      -2.212513
H       -0.318546      -0.484907       0.381010
H        0.969918       1.262845      -0.077716
12

C        1.882467       1.493044      -2.083543
C        1.056674       0.785085      -1.054056
C        0.685583      -0.482483      -1.158617
O        1.166498       2.479335      -2.794594
O        0.855610       3.566884      -1.917373
O       -0.064350      -1.165703      -0.266063
H        0.454621       4.201235      -2.524413
H        2.763319       1.954253      -1.615597
H        2.199774       0.809017      -2.873776
H        0.981438      -1.111870      -1.985792
H       -0.327666      -0.580640       0.456138
H        0.735133       1.391551      -0.218015
[GEOCONV]
energy
0.0
5.45288795604
21.2235904071
53.7299084882
90.373543273
73.3020433828
21.9291649836
7.09633373047
3.27948418229
max-force
7.41761422685e-05
0.00265407099865
0.0043976576791
0.00998396819057
0.00824390823459
0.0126950636123
0.00960928662053
0.00665443821061
2.40013124904e-05
max-step
1000.0
1000.0
1000.0
1000.0
1000.0
1000.0
1000.0
1000.0
1000.0
