[Molden Format]
[Geometries] (XYZ)
12

C        1.930289       1.452693      -1.709364
C        1.114458       0.657163      -0.684090
C        0.354302      -0.471396      -1.318286
O        1.135878       2.080698      -2.678697
O        0.361937       3.113138      -2.062271
O        0.177007      -1.548407      -0.824199
H        0.116969       3.663387      -2.817634
H        2.550472       2.194706      -1.190736
H        2.570871       0.795301      -2.302811
H       -0.056878      -0.216732      -2.313487
H        0.376038       1.336281      -0.246313
H        1.757758       0.282880       0.112190
12

C        1.887753       1.424307      -1.803123
C        1.115264       0.683489      -0.709413
C        0.462875      -0.534147      -1.330921
O        1.072446       2.148634      -2.683022
O        0.474054       3.251205      -2.001666
O        0.112280      -1.528482      -0.744839
H        0.167205       3.800178      -2.737476
H        2.641952       2.085580      -1.348630
H        2.393480       0.710978      -2.454577
H        0.268333      -0.412438      -2.415344
H        0.192711       1.136498      -0.327934
H        1.690505       0.535447       0.201195
12

C        1.833101       1.409804      -1.873757
C        1.102358       0.715358      -0.724411
C        0.532503      -0.569249      -1.297105
O        1.032391       2.217076      -2.693004
O        0.598185       3.362507      -1.955891
O        0.071876      -1.519800      -0.718488
H        0.234456       3.926927      -2.653971
H        2.677833       1.996123      -1.480249
H        2.217028       0.659096      -2.564003
H        0.533284      -0.558951      -2.406017
H        0.065028       0.853503      -0.347084
H        1.574865       0.807808       0.248660
12

C        1.813449       1.404653      -1.907794
C        1.101639       0.729320      -0.740763
C        0.559568      -0.566858      -1.278589
O        1.027126       2.260130      -2.708558
O        0.676123       3.410142      -1.943503
O        0.045169      -1.444257      -0.690475
H        0.276423       3.991617      -2.610239
H        2.679205       1.950985      -1.528617
H        2.148558       0.645831      -2.612210
H        0.630326      -0.658198      -2.377460
H       -0.045770       0.503617      -0.182958
H        1.465534       0.976436       0.241125
12

C        1.819975       1.410776      -1.985554
C        1.095889       0.689982      -0.861497
C        0.621256      -0.582028      -1.266397
O        1.054864       2.322074      -2.742842
O        0.741931       3.443646      -1.919253
O       -0.047038      -1.309063      -0.509683
H        0.326185       4.058139      -2.545798
H        2.694435       1.931904      -1.570349
H        2.144577       0.691941      -2.739929
H        0.760758      -0.889500      -2.317083
H       -0.095845       0.171879      -0.177916
H        1.325814       1.003240       0.149069
12

C        1.884746       1.427900      -1.992271
C        1.121220       0.686313      -0.905928
C        0.584650      -0.478662      -1.286278
O        1.102121       2.318915      -2.754618
O        0.715445       3.425605      -1.934354
O       -0.034258      -1.214412      -0.423305
H        0.304072       4.024993      -2.572040
H        2.732923       1.963915      -1.548444
H        2.260466       0.737569      -2.750031
H        0.625643      -0.807079      -2.325026
H       -0.211443      -0.147213       0.015627
H        1.297704       1.006357       0.103174
12

C        1.906566       1.453652      -2.025760
C        1.086047       0.702469      -0.997332
C        0.613184      -0.503324      -1.293271
O        1.153629       2.394622      -2.759601
O        0.742327       3.465583      -1.903852
O       -0.060552      -1.173307      -0.332538
H        0.345851       4.076489      -2.537903
H        2.757105       1.937068      -1.526574
H        2.279604       0.805430      -2.819155
H        0.620968      -0.923151      -2.286107
H       -0.234524      -0.375354       0.229536
H        1.124926       1.102387      -0.000932
12

C        1.898287       1.476589      -2.062895
C        1.093693       0.737224      -1.028180
C        0.632370      -0.488360      -1.249217
O        1.159466       2.453232      -2.761125
O        0.819698       3.523884      -1.871880
O       -0.090572      -1.191403      -0.330725
H        0.410303       4.157489      -2.473114
H        2.771349       1.946869      -1.591578
H        2.225592       0.811475      -2.864670
H        0.758754      -0.999499      -2.189653
H       -0.297151      -0.546347       0.357125
H        0.986823       1.239402      -0.078342
12

C        1.882467       1.493044      -2.083543
C        1.056674       0.785085      -1.054056
C        0.685583      -0.482483      -1.158617
O        1.166498       2.479335      -2.794594
O        0.855610       3.566884      -1.917373
O       -0.064350      -1.165703      -0.266063
H        0.454621       4.201235      -2.524413
H        2.763319       1.954253      -1.615597
H        2.199774       0.809017      -2.873776
H        0.981438      -1.111870      -1.985792
H       -0.327666      -0.580640       0.456138
H        0.735133       1.391551      -0.218015
[GEOCONV]
energy
0.0
4.80229186907
20.7283972233
56.2924053281
80.1724058752
44.2010773486
11.968786731
4.61845434047
3.27948418229
max-force
7.41761422685e-05
0.00297903158114
0.00335213857848
0.00972549120792
0.00495731197141
0.0124870384614
0.00433788582294
0.0015017669666
2.40013124904e-05
max-step
1000.0
1000.0
1000.0
1000.0
1000.0
1000.0
1000.0
1000.0
1000.0
