56
 energy: -94.155257053126 gnorm: 0.000156866377 xtb: 6.4.0 (d4b70c2)
c         0.96554716999974   -2.74177403999975    0.17727162000002
c         1.16832473000018   -4.23932533000001   -0.00732709000009
c        -0.46061281000015   -2.35403843000006   -0.23247500999993
o        -0.76651547000013   -2.21196530999986   -1.41317611000005
o         0.78974222000022   -0.08232139999975   -0.23277365000020
o         1.13933489000016   -1.67997875000005   -3.47719251999990
n         1.87833775000024   -1.99667252000018   -0.67016258000001
c         1.62665881000004   -0.68879063999998   -0.88332230000005
c         2.37922721999985   -0.08253094999992   -2.04904987999982
c         1.46157352000017   -0.33046621999991   -3.28822829999975
n         2.66627241999974    1.31187143000019   -1.80260605999978
n        -1.33469471000015   -2.24546139999986    0.76859922000021
c        -2.73149367999982   -1.90189817000006    0.56162553000010
c        -3.56891233999997   -2.45022377999994    1.70579585000026
c        -2.90516107999983   -0.36998390999976    0.44567554999984
o        -3.52031218999983    0.28546418999994    1.25867307000022
n        -2.33310336000025    0.14155747000007   -0.65984389999975
o        -0.12435088000003    2.47852208999980   -1.42526253999986
o        -0.74487029000024    2.09218530999977    0.71258858999994
c        -2.31928166999980    1.56416543000019   -0.93812610999987
c        -0.92534579000004    2.10978061999980   -0.61017734999978
c        -2.68748764000025    1.83544721999977   -2.38973752999977
h         1.13595318000016   -2.44910077999997    1.21971923000010
h         0.95804688999974   -4.51991736000002   -1.03782475000005
h         0.49839099000004   -4.78977758999985    0.64786629000004
h         2.19326217999990   -4.50971496000007    0.23480977000026
h         0.44076954000011   -1.93833372999997   -2.84620459000008
h         2.40667669000014   -2.50954704999985   -1.36001871000015
h         3.32503996999977   -0.61673320999980   -2.19997117999999
h         1.99583327000015   -0.00862597000007   -4.18793456000020
h         0.56381566999979    0.29166647000004   -3.17294626000024
h         1.81710516000007    1.78003880000006   -1.49465940000000
h         2.96744853000006    1.76219508000006   -2.66061170000012
h        -0.99018959999988   -2.21185341000025    1.71986703000014
h        -3.03182981000008   -2.34691827000014   -0.39498053999977
h        -4.61736501999986   -2.22765621999982    1.53113047000019
h        -3.27527027000016   -1.97537407000008    2.63888434999983
h        -3.44003035000001   -3.52618875000004    1.79034292000024
h        -1.76995086999990   -0.46097822999995   -1.24883763999995
h        -3.03797923000001    2.01625060999982   -0.24373634000014
h        -2.70025139999993    2.90535559000015   -2.57711561000004
h        -3.66832728000007    1.42247481000020   -2.60820543000005
h        -1.95399454999982    1.38066160999975   -3.05122923999977
c         0.51722359000018    2.23847331999974    1.26055915999984
c         0.94182573999997    1.24207740000020    2.15356321000010
c         1.35182380000023    3.29404990999991    0.93955873000014
c         2.21983145999983    1.32383645000026    2.69986159999995
c         3.04958205999986    2.38213519999983    2.38473633000010
c         2.61435277999983    3.36264490999989    1.50796419000002
h         1.02288834000024    4.04841453999992    0.24236526999977
h         4.03869646000010    2.44036060000025    2.81264321000020
h         3.26398492000011    4.18573378000004    1.25238262000009
h         2.53920017000005    0.54118575999993    3.37183802000003
c         0.06254597999988    0.10514940999985    2.41603171999990
o         0.40688003000009   -0.97371238999989    2.84721420000026
h        -0.99395227999993    0.30077797999989    2.17213985000023
56
 energy: -94.110466338061 gnorm: 0.085573362715 xtb: 6.4.0 (d4b70c2)
c         1.01295417874436   -2.67066410266580    0.13617019956236
c         1.09023629163309   -4.17532556580275   -0.08263712247102
c        -0.40319783673404   -2.24027974291286   -0.26563356182621
o        -0.65740212891299   -2.06586665846032   -1.45423633352397
o         0.89955419002831    0.09938191194893   -0.23129188958431
o         1.45860551228002   -1.80832822552544   -3.47327237752933
n         1.95048989714157   -1.88170830028514   -0.64170071441034
c         1.71542865414736   -0.56941000362607   -0.84652688168594
c         2.60563991093893   -0.07937633760304   -1.96912286323483
c         2.03861429716932   -0.53986060153173   -3.34954293099211
n         2.71576669075817    1.35760209549385   -2.07136070089407
n        -1.27861877705442   -2.19201317854265    0.73898888857485
c        -2.68305468757543   -1.83782819002835    0.62052399495142
c        -3.34757030503922   -2.34363833952827    1.89081207058923
c        -2.97214362854058   -0.32694198407230    0.46555134072161
o        -3.61987664535163    0.28368716523108    1.28808526166049
n        -2.44389345062492    0.23839801336857   -0.63555733494792
o        -0.22246988103487    2.26870712014550   -1.43363372698339
o        -0.89758928099585    2.00188873083091    0.74686069830371
c        -2.49054610019793    1.66889024139009   -0.86568982815923
c        -1.04441308911536    2.08597128451554   -0.57751224170594
c        -2.95752354768616    2.04567593936203   -2.26437127080173
h         1.10368598372487   -2.38134524253963    1.18947699295277
h         0.82541402858587   -4.30718796554717   -1.13018452518786
h         0.38509828628114   -4.61737029267546    0.61626496251948
h         2.13915465006812   -4.41969465048968    0.06666664516244
h         0.70682592903662   -1.82802810550914   -2.85091718581828
h         2.61538326554360   -2.37947485211729   -1.21461350637104
h         3.58794224286123   -0.55766633105319   -1.87408675409841
h         2.86440408572611   -0.47273567427048   -4.06512063498772
h         1.28577914079130    0.22832480035768   -3.57189086897216
h         2.02145681414406    1.82012376098893   -1.48903401309902
h         2.66730416630449    1.70398398094271   -3.02390628528880
h        -0.93867221867298   -2.13410772996147    1.69072782867866
h        -3.16900809029036   -2.29428031353557   -0.25059058023691
h        -2.65230747820252   -2.18259068825248    2.70932938353801
h        -3.57023229714207   -3.39545204363773    1.72811102469297
h        -4.26015587104150   -1.79826967256828    2.11713041477455
h        -1.86542593362331   -0.32215529449733   -1.25058493368373
h        -3.13064376864705    2.15880344432369   -0.12181861325815
h        -2.77144946943157    3.11235600555330   -2.35124735955689
h        -4.02388893599906    1.83786898860925   -2.26296902925278
h        -2.30985854184370    1.55907360677798   -2.98974121731883
c         0.38292874624661    2.07606388088719    1.26582566869725
c         0.82723411823556    1.15245403071290    2.22503670740200
c         1.23059839222732    3.08119107941431    0.83569039667988
c         2.18680679141704    1.13671595466598    2.52460255114291
c         3.02969247520513    2.14887428216875    2.10883150439213
c         2.53899857644988    3.15165514096512    1.28834182741310
h         0.84317729190985    3.80681266859416    0.13803610653161
h         3.99646462561612    2.33516065889987    2.55097494609266
h         3.09536949357918    4.05676672632304    1.09849030673889
h         2.56287987661592    0.31464542197665    3.11524619349728
c        -0.09504862717922    0.09418927475620    2.63012715185467
o         0.20242149174818   -1.01843293843596    3.00696988797659
h        -1.16177683187340    0.32193520998813    2.47467577273062
56
 energy: -94.098705114741 gnorm: 0.096166056763 xtb: 6.4.0 (d4b70c2)
c         0.97076612637625   -2.57024510512088    0.11726968907378
c         1.01028344049231   -4.08923314733941    0.02256488776592
c        -0.44087352251343   -2.11000709335348   -0.26694115143477
o        -0.80733240180673   -1.90076145371151   -1.42008487662014
o         0.95538661680021    0.07497222567178   -0.41886163233799
o         2.05100248335177   -1.98980184103658   -3.46663538581404
n         1.93877949676947   -1.93824028508802   -0.76024251300328
c         1.82855742261599   -0.60531095610909   -0.93484167117076
c         2.72794787609664   -0.01660353566557   -2.00130836073462
c         2.15026358411932   -0.59976682614074   -3.32996362204624
n         2.79558665605551    1.42661596633847   -1.99583430890842
n        -1.22532401211890   -2.06242721309165    0.81024562056098
c        -2.65819817118898   -1.88797797957175    0.64184051323073
c        -3.35912748485044   -2.61677554174779    1.77700963076054
c        -3.00917383304788   -0.38396273339414    0.57028420993485
o        -3.51556800857253    0.17979645344946    1.51618515490066
n        -2.57600513062951    0.22510035846439   -0.54886945163591
o        -0.56163604113501    2.64671561629250   -1.45411633530659
o        -0.86301348079434    2.08824667445378    0.72153501833673
c        -2.63999815155105    1.65649007423097   -0.76903720231877
c        -1.23883735263314    2.23741114098698   -0.55090248175199
c        -3.09590362180451    1.99349436853044   -2.18145480798564
h         1.09269110403177   -2.32662650869258    1.17895568082264
h         0.87468062347002   -4.40855282707958   -1.00919133486141
h         0.15464886007741   -4.51402283161908    0.54076413598398
h         1.85914742399715   -4.49005558563990    0.57120766598776
h         1.17927329857452   -2.27924387302337   -3.13618395178902
h         2.68483926412084   -2.48851375560190   -1.15858624740260
h         3.71074262916500   -0.48461916686219   -1.86794084655666
h         2.78708094216937   -0.37699748414156   -4.19212570312749
h         1.18032484896410   -0.09899792495376   -3.45144426915877
h         1.88472866348260    1.87945364047013   -2.01513781822343
h         3.20918090188206    1.72343489412556   -2.87362155032993
h        -0.80524964204613   -2.13892632014592    1.72807410502397
h        -2.97202322165232   -2.27512892878968   -0.33538404552676
h        -3.94447972161537   -3.44817240278029    1.39564450956998
h        -4.00735516785440   -1.98667494104211    2.38127461127621
h        -2.59843481043187   -2.96512545905471    2.47088165241400
h        -2.07182450024429   -0.38579893313833   -1.18109376300160
h        -3.30366547065250    2.17421870949645   -0.06576832560071
h        -3.43308710354466    3.01183069117063   -2.35255658472168
h        -3.90135514828364    1.31028549683077   -2.43600208146941
h        -2.34168008582439    1.62323828820032   -2.87172333791334
c         0.42101946698555    2.21022880960904    1.22246691053899
c         0.71606383745381    1.28477732039031    2.23589503838269
c         1.44099836679814    2.95307428741294    0.65531217202641
c         2.04849164031627    1.09163237660634    2.59051651157593
c         3.04079884425517    1.93882270526044    2.13732641526172
c         2.72099987816125    2.89207627875488    1.18412680181002
h         1.26550854268345    3.64166503902972   -0.15609981120281
h         4.07248380091126    1.86586981077013    2.44578362305694
h         3.42692901170026    3.61315553390056    0.80133711936137
h         2.36172998414662    0.31026178937372    3.26685413214066
c        -0.22967256715802    0.23532468229619    2.60853400682582
o         0.08260522062565   -0.86121850177054    3.01902483817699
h        -1.29970801724324    0.43331920416420    2.43600951781075
56
 energy: -94.089527051806 gnorm: 0.109836854893 xtb: 6.4.0 (d4b70c2)
c         1.01521427859397   -2.52764066483190    0.21467015959618
c         1.39309764731315   -4.00204451839065    0.18013425882107
c        -0.44081913224723   -2.27534861639007   -0.19579168847597
o        -0.74600017295182   -2.16078234439764   -1.37966474023927
o         0.82534710204435    0.19915078643137   -0.85259363140681
o         2.32468499007260   -1.99618698618363   -3.51704167631857
n         1.92457294694967   -1.82227851958121   -0.66965936155821
c         1.73318196985048   -0.56907337369414   -1.13029015369552
c         2.85978176560968   -0.10525389404784   -2.02944264765945
c         2.47887654358980   -0.60565274959581   -3.45900046950183
n         2.91546773607823    1.33533433815181   -1.93409004214203
n        -1.33289455710732   -2.20825976652360    0.79297435201149
c        -2.72357583383369   -1.90882339363956    0.49588073562699
c        -3.62290384347194   -2.56493799819151    1.53114856096507
c        -3.01010309389363   -0.39089132722153    0.56030471749863
o        -3.57268293407014    0.15520904199786    1.48457004094697
n        -2.50302846651294    0.27772128015294   -0.49180287820802
o        -0.69434749229047    2.90274004406609   -1.32744600852589
o        -0.86489458121503    2.04900291930437    0.76018414689372
c        -2.70642423838950    1.71212237427931   -0.54248938626989
c        -1.31112093767892    2.34081310904125   -0.46387454108322
c        -3.52897969161169    1.93366312828382   -1.80370602621052
h         1.09586310303781   -2.25152004459809    1.27233080349520
h         1.20073037238124   -4.46450111838421   -0.78630394924089
h         0.93876642131322   -4.62177243692468    0.94864432162317
h         2.46914855756105   -4.15185927320432    0.13645856878429
h         1.40252756630990   -2.23633144437853   -3.30528016718708
h         2.78448558633385   -2.26417282629404   -0.95838669854369
h         3.75509496403273   -0.68665540306977   -1.77825026260493
h         3.33890102469443   -0.43490149162398   -4.11450629042431
h         1.58181334152032   -0.05726127009073   -3.77657343259704
h         1.93386833235562    1.53147362302613   -1.75218660947702
h         3.33447276926923    1.79277870307483   -2.73711653770234
h        -0.99379123874756   -2.00961464084511    1.72585846638308
h        -2.95803230213129   -2.16864717184972   -0.54376421658457
h        -4.42236713183934   -1.85529293419690    1.72235439362858
h        -3.09613210588695   -2.68511032252598    2.47477571786871
h        -4.03724675538419   -3.48419798567216    1.12526628875025
h        -1.99565812879859   -0.22510495741161   -1.21072203051021
h        -3.29113662738488    2.10240275727415    0.29945895551546
h        -3.66845262795419    2.98838094653994   -2.02301176881725
h        -4.50124383583093    1.46338512712410   -1.68596956031065
h        -2.95363236857011    1.66921529015679   -2.68770611180322
c         0.45492375368527    2.15983744888751    1.16061928764021
c         0.80135855286454    1.29892666857170    2.21388269401036
c         1.48217684069321    2.78318228190245    0.47502961603422
c         2.10870559465768    1.06928782429624    2.63404332427010
c         3.11144560584259    1.74612983946101    1.96757226202242
c         2.77261486454134    2.63342146291729    0.95887975498619
h         1.12494646695425    3.44458533043040   -0.29845327327832
h         4.15674259419298    1.53540888325968    2.13428373404309
h         3.54734225430908    3.18244595434653    0.44586049404495
h         2.28415735042224    0.39226921774581    3.45681506160985
c        -0.27666571659271    0.50291918135057    2.79600276541387
o        -0.22380121419030   -0.64221203416174    3.18882200366622
h        -1.23809642123746    1.04105476826242    2.79787162861876
56
 energy: -94.100025115151 gnorm: 0.094003475162 xtb: 6.4.0 (d4b70c2)
c         1.04431414814666   -2.28722393552200    0.38444765025615
c         1.42290866429982   -3.74400242514206    0.61317874640913
c        -0.37122704306959   -2.26546739575493   -0.20541104847795
o        -0.57522943944766   -2.73051662392078   -1.32341307717861
o         0.68137495311096    0.14776274080703   -1.14455385489340
o         2.52595516637624   -2.12770865218670   -3.36794509049392
n         1.97870495454743   -1.63439033070890   -0.51401200280969
c         1.71485663367190   -0.50087799631806   -1.19582445463777
c         2.87611405008137   -0.05695369971771   -2.06025678092853
c         2.86985312028410   -0.77271763770837   -3.44833680527975
n         2.75155682259617    1.38115618497357   -2.12200593063401
n        -1.32977686809801   -1.82774138600991    0.61161767207754
c        -2.74882926024808   -1.90838338298296    0.30878381403893
c        -3.48178670795761   -2.86841895690127    1.23190991074930
c        -3.16502662124416   -0.43284438276636    0.50860997483585
o        -3.73233377384620   -0.11132554885240    1.53026368960750
n        -2.72222285197377    0.41735006525479   -0.43594924241862
o        -0.86132071276871    3.01811737673497   -1.20920906771009
o        -0.84579561161837    2.19223740451481    0.87003943999998
c        -2.83094976336895    1.86142207859985   -0.37052797138816
c        -1.41155969627091    2.43630197286053   -0.31441583395999
c        -3.62708776813105    2.43509050738798   -1.53389119810418
h         1.04177022476541   -1.82474821928858    1.37817930731295
h         1.35720603001764   -4.22399352020996   -0.36158573654986
h         0.60704736510389   -4.16605961572076    1.19397590569726
h         2.29794457251926   -3.82972324247439    1.25286748978676
h         1.55946652551139   -2.13586687164302   -3.23112490828017
h         2.81789963138282   -2.07972805347332   -0.85388022244981
h         3.85172743274444   -0.29104036395556   -1.61743287362695
h         3.82415167341858   -0.71671555649228   -3.98187595074414
h         2.11158884055430   -0.25980739458844   -4.05518650216558
h         1.99440307306618    1.79713220294688   -2.65938756345090
h         3.56406360622075    1.72941162178655   -2.62022575619985
h        -0.97953411526066   -1.57034954562112    1.52584038598126
h        -2.77545310264854   -2.33022177979083   -0.70348265118312
h        -2.96104509828222   -2.86574169210882    2.18486234667454
h        -3.48561166467143   -3.85094972532928    0.76609801631932
h        -4.50998878795095   -2.53955236013719    1.35882183454951
h        -2.16940127282048   -0.02477548149807   -1.16121949204664
h        -3.35463946045492    2.03550410991983    0.57737967816949
h        -3.70387950752151    3.50858105538565   -1.38658724468725
h        -4.62578590763881    2.00860341072091   -1.50177233796621
h        -3.16694098182272    2.03617154136157   -2.43474742639508
c         0.51807368152468    2.06273399913615    1.06405601491400
c         0.78208262974037    1.15368763819950    2.10062835303973
c         1.54352992525116    2.67704536915858    0.36770703634450
c         2.10208914846912    0.85917123469029    2.43118562070454
c         3.13259080644221    1.43044157596400    1.71042016505729
c         2.84516187981473    2.34511280065218    0.71026296530841
h         1.32909697335297    3.36022857666665   -0.43890471963762
h         4.17554447901771    1.27275287125223    1.93894529438930
h         3.60230983244377    2.90740015370320    0.18549722037156
h         2.37023147239137    0.13017254402553    3.18135323075408
c        -0.31452925665066    0.53431359689179    2.84119987314141
o        -0.31369296856046   -0.55087345695451    3.38045441517123
h        -1.20270983585357    1.17856806797050    2.94126903054485
56
 energy: -94.099421580202 gnorm: 0.098860770050 xtb: 6.4.0 (d4b70c2)
c         1.12377715225305   -2.12463240773834    0.53660603157630
c         1.65221646155827   -3.41313747919625    1.15171729775355
c        -0.21865508404194   -2.20815844566654   -0.20032177448055
o        -0.23884386201051   -2.65247529280159   -1.34487026783938
o         0.67012320760136    0.16220402094392   -1.05118039868166
o         2.85534086454746   -2.37016833015791   -2.86278356175438
n         2.05139272787376   -1.51436819946668   -0.39806748655391
c         1.72542452435604   -0.44418398850921   -1.15158248709883
c         2.76167524632309   -0.00308814090141   -2.16373351961148
c         2.61663294125691   -1.06226447449345   -3.30225518983430
n         2.57636555067221    1.37163617030556   -2.56781381744601
n        -1.24339172817186   -1.75163503249479    0.52041322780868
c        -2.61021086617267   -1.68085342026808    0.03182692179268
c        -3.40549693224777   -2.77194058420626    0.73047245901479
c        -3.22522522620461   -0.29679187947125    0.34246668643886
o        -3.98921244701637   -0.17774359541066    1.27581501821107
n        -2.73382312792117    0.63944051789922   -0.49005404109803
o        -0.88221162943911    3.04953890893242   -1.15110612558930
o        -0.98631176289500    2.12094505233349    0.93411021241847
c        -2.92769085920947    2.06029637255601   -0.27785273329359
c        -1.46880930600218    2.52796055274940   -0.24237833087534
c        -3.80674565714977    2.78220898600535   -1.28901544081976
h         0.97522325015869   -1.39750271891986    1.34320817701069
h         1.72932516496158   -4.08778760503467    0.30096731055172
h         0.99425028696873   -3.71377315449771    1.96275735610810
h         2.67772123816630   -3.21002770346442    1.45058844082066
h         2.05277637472423   -2.76505433234606   -2.47183356911481
h         2.77327686247136   -2.10154527371147   -0.78818308556915
h         3.72838413958514   -0.16062631605253   -1.67041142225518
h         3.35680323598183   -0.82063749752411   -4.07183320437830
h         1.60686312903213   -0.92038766090015   -3.71035332314573
h         1.79437877120743    1.67036472561427   -1.98957961371006
h         2.53049602845335    1.51533906793894   -3.57126664729851
h        -0.97523644241561   -1.49737939097981    1.46284122429992
h        -2.58647083840780   -1.85825385010903   -1.05044169363201
h        -3.40936947042947   -3.75200880170007    0.26276675061159
h        -4.42601175760217   -2.40694506417457    0.81816409850532
h        -3.00844673888103   -2.90185405345778    1.73393298459703
h        -1.98456354447984    0.31068820279802   -1.08808047907823
h        -3.33292397794923    2.10776395406284    0.74029131610616
h        -3.91346356217975    3.78100696419891   -0.87550453525127
h        -4.74093160258338    2.23214548933505   -1.36006194840996
h        -3.28224408805430    2.90436391085497   -2.23367920566621
c         0.36650082855845    1.86760936742868    1.07649040957043
c         0.73730802094049    0.96145122025523    2.08243655353446
c         1.35205519043747    2.53440585137272    0.37086593700806
c         2.07355371110658    0.59412531319147    2.21639301053855
c         3.03335749484337    1.20010626326309    1.42940502841618
c         2.67003185924819    2.11235526618735    0.45198521572444
h         1.09893522670511    3.34951439653627   -0.28858204716696
h         4.09230253780815    1.11121036296105    1.61801768408432
h         3.40288639106666    2.63715904912314   -0.14158398762918
h         2.40140113756489   -0.11874203444203    2.95830071132465
c        -0.15976594666304    0.29580487743896    3.02413779761665
o         0.07489389035765   -0.81120790681679    3.45759431025762
h        -1.12300766661342    0.78170121209877    3.24777262725174
56
 energy: -94.105345342302 gnorm: 0.089369257343 xtb: 6.4.0 (d4b70c2)
c         1.18616839885821   -1.98506084728396    0.66643448036444
c         1.65037376206485   -3.39253188745751    1.01485080588536
c        -0.10398849600137   -2.13729263525882   -0.14872449344083
o         0.01763307411353   -2.48405640503164   -1.32038117176219
o         0.56028246672264    0.24106425664255   -0.90407360399105
o         2.64935855870537   -2.62862986292557   -2.56440377349114
n         2.10189631190824   -1.28754577306985   -0.21754671079429
c         1.60389904343155   -0.37053103700267   -1.07219111411049
c         2.51497571975958   -0.16902553797776   -2.26473697587315
c         2.36339128611563   -1.41268019247019   -3.19718999092499
n         2.12207683645022    1.05357657923619   -2.92682611572110
n        -1.25526334712476   -1.85915567889699    0.46378166559801
c        -2.50885324673344   -1.83657091846870   -0.27101316856738
c        -3.48600507388548   -2.92608443934025    0.14031552805580
c        -3.09588775796331   -0.46294288440667    0.12761266840232
o        -3.84394402962717   -0.37281640896608    1.07696881416110
n        -2.63185490212745    0.56678146690906   -0.60412439330617
o        -0.91888752680365    3.47897143962261   -0.74441646545553
o        -0.90892604114992    2.06477019506303    0.99833289547507
c        -2.81673460117754    1.94329795918805   -0.18883261881838
c        -1.46030206628796    2.64627187531929   -0.06957672206265
c        -3.64257839631786    2.79009900258932   -1.14656700921897
h         1.02739393996776   -1.45751381610298    1.61399854804373
h         1.67738520298129   -4.17913560689150    0.26292058716149
h         0.93441774264270   -3.74785609917654    1.75121956789238
h         2.60518746058349   -3.32844114549283    1.53104918284145
h         1.82330375850542   -2.93616975504700   -2.14495259223841
h         2.88035848472551   -1.85626016304234   -0.51527877984994
h         3.52300724528844   -0.11907293634295   -1.83568193190171
h         3.10958595088529   -1.26107447032937   -3.98376179824123
h         1.33935869457688   -1.40711700655464   -3.59422209512003
h         1.11620553563729    1.19700910268456   -2.87441519851376
h         2.13956368782554    0.93950440366814   -3.93496988804414
h        -1.29904130350384   -1.67530878811539    1.45827023835197
h        -2.36899452143921   -1.95857327101378   -1.35216755690864
h        -4.48928371399903   -2.51295921201678    0.09496300077930
h        -3.34342252249918   -3.26119733000747    1.16487964339011
h        -3.37321404330787   -3.79178833880124   -0.50721387813468
h        -1.86599045941168    0.34695485221793   -1.23040829889764
h        -3.21996672340328    1.93187266735230    0.83114662233126
h        -3.80128830337412    3.76491629278668   -0.69432836445933
h        -4.63614168915068    2.35978829139279   -1.23592866646534
h        -3.22010551442523    2.98829271226113   -2.12873260639624
c         0.46142762831565    2.00403274506262    1.17997695301117
c         0.84590382299728    1.07572327653624    2.16026644024361
c         1.42082348826257    2.69580048668704    0.46244118916323
c         2.19271786847967    0.72676814121968    2.21268031113573
c         3.14298889769082    1.34566122405020    1.42417381611632
c         2.75265737242582    2.31458140267329    0.51401551327904
h         1.01687169333230    3.50162217229839   -0.12985735146995
h         4.16958361030169    1.01581984271546    1.47053886133726
h         3.40197933040878    2.74076792011815   -0.23536100145024
h         2.44945552098641    0.04145189886120    3.00673205069229
c        -0.15371561109901    0.35896056767777    2.94870790792537
o         0.04120215267170   -0.62475858803014    3.62895102214169
h        -1.17754943475302    0.76181206842064    2.89025038083409
56
 energy: -94.098847214277 gnorm: 0.094826001879 xtb: 6.4.0 (d4b70c2)
c         1.12792120258219   -2.24170752101960    0.58365455794891
c         1.85695119030823   -3.55451391115386    0.83447311567631
c        -0.18676538284647   -2.40172168020152   -0.18975228584137
o        -0.13106601019734   -2.88095594868964   -1.31893269383928
o         0.30929239774470    0.00209270234598   -0.96195074438723
o         2.33075658972135   -2.77964626949754   -2.58688581082354
n         1.93895506921741   -1.35887115560207   -0.23447236472285
c         1.42041945760625   -0.48041932491938   -1.11695611458380
c         2.33357727485523   -0.23739656971249   -2.30013554158638
c         2.18225911197701   -1.51947954823195   -3.17904931325113
n         1.99163186701437    0.93275887997313   -3.07556900918867
n        -1.32129104413987   -1.99969815582275    0.38399536399920
c        -2.50748022552330   -1.81217965859990   -0.43436470772911
c        -3.60588762006365   -2.86293123370160   -0.41247784099827
c        -3.06816484600227   -0.48127414915906    0.11762202696735
o        -3.97732911394628   -0.41906184829850    0.91670777932816
n        -2.33810214543010    0.53447918315696   -0.37871607221169
o        -1.14538803047820    3.78597469163068   -0.46906483748720
o        -0.73154997468309    2.08431352494970    0.97199524939510
c        -2.71152955599870    1.91848824904326   -0.16303961184325
c        -1.44228034903358    2.74837615129651    0.05740573229423
c        -3.51672808297389    2.41215781264501   -1.35647619633066
h         0.87197229624451   -1.68107739435981    1.49006334218572
h         2.32949304702369   -4.00099589476827   -0.03858594119714
h         1.27252265337699   -4.36860274023175    1.25493706843788
h         2.59966515828655   -3.42766275246616    1.61838786419130
h         1.50944491884207   -3.02674507967542   -2.12075714937175
h         2.82572352956639   -1.75053756157941   -0.51433469468201
h         3.36387192657178   -0.06532908673456   -1.96607452360722
h         2.96404398822138   -1.39981875264754   -3.93600352760794
h         1.23701961061105   -1.31808321697852   -3.70084428530198
h         0.99569884714939    1.13793228516622   -3.04213009439502
h         2.46026177634385    0.82200968944908   -3.96876145329259
h        -1.29798894622325   -1.53894058184222    1.28504097096926
h        -2.20577704972800   -1.65411354226468   -1.47711594984644
h        -3.67203909320062   -3.16519087468704    0.62846424603192
h        -3.35145768139387   -3.68335854964008   -1.07920603712485
h        -4.57683487035695   -2.40639928867641   -0.58654510416912
h        -1.66554421146209    0.26882578015007   -1.08878488988008
h        -3.23269450403726    1.91613053311594    0.80208519899329
h        -3.87765486047254    3.42450852467394   -1.19882061957364
h        -4.37525378629073    1.75344990737890   -1.45321476486438
h        -3.07044817047901    2.29659905486593   -2.34130804283007
c         0.62794121165762    2.12677360575656    1.22603045750261
c         1.01215840927232    1.32623232747563    2.31325584733949
c         1.55343805819921    2.78188716197728    0.43348853308211
c         2.36065675252416    1.23155046159040    2.64644166298908