8
	Energy:       0.9976418
C          5.44407       -0.90770       13.24261
C          4.13562       -0.42451       13.71383
C          3.17510       -0.07704       12.85457
O          6.30536       -1.21906       14.04864
H          5.65363       -0.99102       12.18043
H          3.94744       -0.34901       14.78101
H          3.33078       -0.14064       11.78157
H          2.21828        0.27645       13.22501
