[Molden Format]
[Geometries] (XYZ)
12

C        0.469411       1.726832      -1.305066
C        0.417096       0.214016      -1.487572
C        1.738599      -0.445014      -1.196054
O        1.105270       2.233608      -2.462630
O        1.463994       3.585730      -2.281860
O        2.699072       0.093603      -0.728895
H        2.425049       3.563066      -2.157871
H        1.056511       1.979674      -0.412920
H       -0.537041       2.152423      -1.207843
H        1.750627      -1.522899      -1.451649
H        0.133623      -0.016476      -2.516479
H       -0.333310      -0.224962      -0.826960
12

C        0.898306       1.482692      -1.181065
C        0.705218       0.040092      -1.538365
C        1.944053      -0.668163      -1.118645
O        1.200152       2.183711      -2.331495
O        1.629024       3.509625      -2.053319
O        2.899699      -0.132780      -0.621778
H        2.491744       3.576392      -2.482652
H        1.484311       1.616668      -0.288450
H       -0.601484       1.793938      -1.324544
H        1.928611      -1.760473      -1.294037
H        0.250996      -0.158343      -2.496138
H       -0.459321      -0.099318      -0.947869
12

C        1.141621       1.279710      -1.143744
C        0.801871      -0.069300      -1.474830
C        2.079220      -0.731560      -1.081721
O        1.301030       2.077449      -2.201327
O        1.717800       3.390982      -1.856002
O        3.073903      -0.186189      -0.671726
H        2.474102       3.563480      -2.439013
H        1.785795       1.420000      -0.285924
H       -0.861470       1.477183      -1.553408
H        2.067501      -1.833278      -1.196849
H        0.229195      -0.298086      -2.353755
H       -0.715012       0.300549      -0.936637
12

C        1.318468       0.990578      -1.060609
C        0.939880      -0.257341      -1.393557
C        2.297906      -0.836567      -1.104532
O        1.438432       1.841928      -2.118354
O        1.888530       3.132963      -1.843598
O        3.202450      -0.271379      -0.517877
H        2.589688       3.281536      -2.518342
H        1.996046       1.135741      -0.234347
H       -0.929054       1.254886      -1.661182
H        2.441998      -1.863012      -1.470442
H        0.367467      -0.448583      -2.274612
H       -0.697038       0.602893      -0.969958
12

C        1.410271       1.276578      -0.897883
C        1.059649      -0.023263      -1.079618
C        2.369219      -0.727182      -1.017382
O        1.436359       1.989101      -2.029346
O        1.801887       3.350584      -1.743112
O        3.357183      -0.439810      -0.391992
H        2.463563       3.574441      -2.391413
H        2.111459       1.648747      -0.143944
H       -0.919015       1.244814      -1.838227
H        2.378700      -1.626644      -1.669514
H        0.498058      -0.291186      -1.969060
H       -0.539125       1.254558      -1.059656
12

C        1.553493       1.405604      -0.815244
C        1.222169       0.119299      -0.958555
C        2.400904      -0.771193      -0.878565
O        1.436815       2.214166      -1.891783
O        1.796534       3.556036      -1.546018
O        3.447246      -0.568522      -0.319380
H        2.321823       3.864172      -2.279464
H        2.297024       1.819626      -0.128621
H       -0.963583       1.248440      -1.766296
H        2.246948      -1.708930      -1.444375
H        0.598572      -0.237215      -1.780632
H       -0.462670       1.406964      -1.230900
12

C        1.706024       1.485177      -0.813972
C        1.382472       0.193657      -0.928087
C        2.417717      -0.837911      -0.749878
O        1.395288       2.416402      -1.761435
O        1.820276       3.713803      -1.363518
O        3.487241      -0.702602      -0.213955
H        2.093174       4.130684      -2.182353
H        2.513970       1.911994      -0.214816
H       -1.053087       1.307100      -1.748783
H        2.135495      -1.800855      -1.205994
H        0.668659      -0.201222      -1.655154
H       -0.422184       1.502034      -1.377772
12

C        1.727077       1.466403      -1.111451
C        1.372743       0.178967      -1.188267
C        2.273706      -0.917307      -0.836915
O        1.148495       2.488746      -1.784196
O        1.748443       3.731130      -1.454854
O        3.359835      -0.807694      -0.325621
H        1.489160       4.304186      -2.187091
H        2.638200       1.831396      -0.640741
H       -1.578416       1.494114      -2.090937
H        1.873799      -1.910150      -1.108278
H        0.509993      -0.175295      -1.745474
H       -0.837124       1.610179      -1.852169
12

C        1.686348       1.385142      -1.483461
C        1.221355       0.130366      -1.398270
C        2.124798      -0.950157      -1.042471
O        0.899506       2.413643      -1.802711
O        1.615676       3.639900      -1.826255
O        3.304863      -0.834009      -0.814971
H        0.939237       4.283524      -2.080912
H        2.729813       1.608909      -1.292219
H       -2.363193       1.824929      -1.873698
H        1.631788      -1.939002      -0.989547
H        0.185150      -0.098888      -1.586383
H       -1.586440       1.875243      -1.844903
[GEOCONV]
energy
0.0
67.5683817532
141.462839969
106.538366697
84.2023736359
70.2939194225
56.8201756788
39.964486249
34.4567479346
max-force
3.11155374094e-05
0.00937663041815
0.00949994918293
0.0110619785436
0.00781557916324
0.00740334449004
0.00687558736636
0.00204539830375
4.10962421091e-05
max-step
1000.0
1000.0
1000.0
1000.0
1000.0
1000.0
1000.0
1000.0
1000.0
