[Molden Format]
[Geometries] (XYZ)
12

C        0.469411       1.726832      -1.305066
C        0.417096       0.214016      -1.487572
C        1.738599      -0.445014      -1.196054
O        1.105270       2.233608      -2.462630
O        1.463994       3.585730      -2.281860
O        2.699072       0.093603      -0.728895
H        2.425049       3.563066      -2.157871
H        1.056511       1.979674      -0.412920
H       -0.537041       2.152423      -1.207843
H        1.750627      -1.522899      -1.451649
H        0.133623      -0.016476      -2.516479
H       -0.333310      -0.224962      -0.826960
12

C        0.736877       1.620778      -1.271744
C        0.551450       0.157579      -1.597404
C        1.773344      -0.564242      -1.181121
O        1.059520       2.327593      -2.416907
O        1.453611       3.659641      -2.125883
O        2.740612      -0.032501      -0.694334
H        2.327698       3.740752      -2.519901
H        1.314367       1.778288      -0.386812
H       -0.686117       1.920499      -1.394019
H        1.745726      -1.656677      -1.356251
H        0.100586      -0.053841      -2.559420
H       -0.549987       0.025294      -1.013977
12

C        0.894393       1.563725      -1.298239
C        0.662015       0.154162      -1.593546
C        1.805891      -0.615392      -1.173526
O        1.055731       2.331360      -2.318282
O        1.440374       3.677742      -1.996158
O        2.862609      -0.156992      -0.765166
H        2.222827       3.844581      -2.545959
H        1.485211       1.780073      -0.409429
H       -1.055016       1.669840      -1.551781
H        1.669525      -1.720614      -1.251441
H        0.141828      -0.103252      -2.502167
H       -0.813345       0.419990      -1.023153
12

C        0.995154       1.469295      -1.266781
C        0.702521       0.111879      -1.543019
C        1.953620      -0.574633      -1.210114
O        1.038233       2.286641      -2.297582
O        1.453065       3.632683      -2.017677
O        2.936982      -0.201440      -0.621533
H        2.133762       3.798193      -2.684556
H        1.642914       1.688679      -0.422548
H       -1.274513       1.646209      -1.719291
H        1.949867      -1.618110      -1.617425
H        0.165175      -0.119467      -2.447158
H       -1.053077       1.079894      -1.152937
12

C        1.101819       1.447933      -1.220903
C        0.742026       0.141232      -1.350874
C        2.035406      -0.569248      -1.247941
O        1.049290       2.225566      -2.298763
O        1.423856       3.575210      -1.970521
O        3.047712      -0.287910      -0.659698
H        2.037643       3.839006      -2.657434
H        1.822302       1.777493      -0.470150
H       -1.289254       1.559377      -2.049330
H        2.003897      -1.506993      -1.847111
H        0.149952      -0.155110      -2.201756
H       -0.994481       1.494425      -1.318079
12

C        1.227163       1.463949      -1.219055
C        0.877382       0.180000      -1.335880
C        2.048770      -0.709432      -1.221234
O        1.062764       2.298818      -2.263150
O        1.419377       3.636110      -1.910359
O        3.094578      -0.509272      -0.658710
H        1.902772       3.971113      -2.669829
H        1.990992       1.830958      -0.530583
H       -1.381228       1.422023      -2.092152
H        1.897329      -1.645783      -1.789897
H        0.231318      -0.168241      -2.130123
H       -0.875479       1.527491      -1.527805
12

C        1.345000       1.448269      -1.255998
C        0.986342       0.168023      -1.338283
C        2.062789      -0.825413      -1.183113
O        1.033024       2.373283      -2.198961
O        1.473040       3.669115      -1.808228
O        3.152460      -0.651897      -0.698067
H        1.724005       4.093583      -2.631570
H        2.179516       1.826401      -0.658878
H       -1.453353       1.370308      -2.159346
H        1.807187      -1.790455      -1.651445
H        0.252593      -0.231639      -2.030177
H       -0.819496       1.533995      -1.775068
12

C        1.536687       1.432221      -1.392903
C        1.155717       0.161247      -1.449357
C        2.070186      -0.925858      -1.113068
O        0.950569       2.443917      -2.054718
O        1.560887       3.685928      -1.740920
O        3.177113      -0.806752      -0.648671
H        1.283695       4.260244      -2.467122
H        2.465971       1.760002      -0.929165
H       -1.790346       1.496559      -2.309701
H        1.668166      -1.922839      -1.370024
H        0.276766      -0.179297      -1.978916
H       -1.055226       1.599409      -2.081061
12

C        1.686348       1.385142      -1.483461
C        1.221355       0.130366      -1.398270
C        2.124798      -0.950157      -1.042471
O        0.899506       2.413643      -1.802711
O        1.615676       3.639900      -1.826255
O        3.304863      -0.834009      -0.814971
H        0.939237       4.283524      -2.080912
H        2.729813       1.608909      -1.292219
H       -2.363193       1.824929      -1.873698
H        1.631788      -1.939002      -0.989547
H        0.185150      -0.098888      -1.586383
H       -1.586440       1.875243      -1.844903
[GEOCONV]
energy
0.0
53.3273338829
133.682966927
76.2215564041
72.4890351307
63.8309621409
55.8398903187
39.1138639746
34.4567479346
max-force
3.11155374094e-05
0.0105415832603
0.00497044760196
0.00576091569916
0.00609423176293
0.00601372889459
0.00434359072716
0.00194403948755
4.10962421091e-05
max-step
1000.0
1000.0
1000.0
1000.0
1000.0
1000.0
1000.0
1000.0
1000.0
