      -----------------------------------------------------------      
     |                   =====================                   |     
     |                           x T B                           |     
     |                   =====================                   |     
     |                         S. Grimme                         |     
     |          Mulliken Center for Theoretical Chemistry        |     
     |                    University of Bonn                     |     
      -----------------------------------------------------------      

   * xtb version 6.2.3 (830e466) compiled by 'ehlert@majestix' on 2020-03-16

   xtb is free software: you can redistribute it and/or modify it under
   the terms of the GNU Lesser General Public License as published by
   the Free Software Foundation, either version 3 of the License, or
   (at your option) any later version.
   
   xtb is distributed in the hope that it will be useful,
   but WITHOUT ANY WARRANTY; without even the implied warranty of
   MERCHANTABILITY or FITNESS FOR A PARTICULAR PURPOSE.  See the
   GNU Lesser General Public License for more details.
   
   Cite this work as:
   * S. Grimme, C. Bannwarth, P. Shushkov, J. Chem. Theory Comput., 2017,
     13, 1989-2009. DOI: 10.1021/acs.jctc.7b00118
   * C. Bannwarth, S. Ehlert and S. Grimme., J. Chem. Theory Comput., 2019,
     15, 1652-1671. DOI: 10.1021/acs.jctc.8b01176
   * P. Pracht, E. Caldeweyher, S. Ehlert, S. Grimme, ChemRxiv, 2019, preprint.
     DOI: 10.26434/chemrxiv.8326202.v1
   
   for DFT-D4:
   * E. Caldeweyher, C. Bannwarth and S. Grimme, J. Chem. Phys., 2017,
     147, 034112. DOI: 10.1063/1.4993215
   * E. Caldeweyher, S. Ehlert, A. Hansen, H. Neugebauer, S. Spicher,
     C. Bannwarth and S. Grimme, J. Chem. Phys., 2019, 150, 154122.
     DOI: 10.1063/1.5090222
   
   for sTDA-xTB:
   * S. Grimme and C. Bannwarth, J. Chem. Phys., 2016, 145, 054103.
     DOI: 10.1063/1.4959605
   
   in the mass-spec context:
   * V. Asgeirsson, C. Bauer and S. Grimme, Chem. Sci., 2017, 8, 4879.
     DOI: 10.1039/c7sc00601b
   
   for metadynamics refer to:
   * S. Grimme, J. Chem. Theory Comput., 2019, 155, 2847-2862
     DOI: 10.1021/acs.jctc.9b00143
   
   with help from (in alphabetical order)
   C. Bannwarth, F. Bohle, G. Brandenburg, E. Caldeweyher, M. Checinski,
   S. Dohm, S. Ehlert, S. Ehrlich, F. März, H. Neugebauer, J. Pisarek,
   P. Pracht, P. Shushkov, and S. Spicher.
   
 * started run on 2020/12/23 at 21:40:54.900     

           -------------------------------------------------
          |                Calculation Setup                |
           -------------------------------------------------

          program call               : xtb -c 0 -u 0 -a 1.0 --iterations 100 --opt normal --namespace product_8 /scratch/bell/zhao922/YARP/paper-example/potential_product/test/reaction_channel/pp_0/pp_14_0.xyz
          hostname                   : bell-fe05.rcac.purdue.edu
          calculation namespace      : product_8
          coordinate file            : /scratch/bell/zhao922/YARP/paper-example/potential_product/test/reaction_channel/pp_0/pp_14_0.xyz
          omp threads                :                    32
          number of atoms            :                    12
          number of electrons        :                    36
          charge                     :                     0
          spin                       :                   0.0
          first test random number   :      0.57513170963442


molecular fragmentation (1/2 indicates fragments):
111121221111
# atoms in fragment 1/2:     9     3
 fragment masses (1/2) :       72.06       18.02
CMA distance (Bohr)    :   6.488
constraining FC (au)   :  0.0500
           ------------------------------------------------- 
          |                 G F N 2 - x T B                 |
          | Geometry, Frequencies, Noncovalent interactions |
          |            JCTC 2019 parametrisation            |
           ------------------------------------------------- 
             k(s)              :                1.8500
             k(p)              :                2.2300
             k(d)              :                2.2300
             k(f)              :                2.0000
             kEN (H0ij)        :               -2.0000
             D4 a1             :                0.5200
             D4 a2             :                5.0000
             D4 s6             :                1.0000
             D4 s8             :                2.7000
             D4 s9             :                5.0000
             alphaj            :                2.0000

  Z AO/shell   Hii/eV     exponent
  1     Wed Apr 25 08:07:45 CEST 2018   EN: 2.200 GM2: 0.406  GM3: 0.0800  RAES: 1.40
     1s    -10.707211    1.230000
  6     Wed Apr 25 08:07:45 CEST 2018   EN: 2.550 GM2: 0.538  GM3: 0.1500  RAES: 3.00
     2s    -13.970922    2.096432
     2p    -10.063292    1.800000
  8     Wed Apr 25 08:07:45 CEST 2018   EN: 3.440 GM2: 0.452  GM3:-0.0517  RAES: 1.80
     2s    -20.229985    2.439742
     2p    -15.503117    2.137023

           ------------------------------------------------- 
          |        Self-Consistent Charge Iterations        |
           ------------------------------------------------- 

          ...................................................
          :                      SETUP                      :
          :.................................................:
          :  # basis functions                  30          :
          :  # atomic orbitals                  30          :
          :  # shells                           18          :
          :  # electrons                        36          :
          :  max. iterations                   100          :
          :  Hamiltonian                  GFN2-xTB          :
          :  restarted?                      false          :
          :  GBSA solvation                  false          :
          :  PC potential                    false          :
          :  electronic temp.          300.0000000     K    :
          :  accuracy                    1.0000000          :
          :  -> integral cutoff          0.2500000E+02      :
          :  -> integral neglect         0.1000000E-07      :
          :  -> SCF convergence          0.1000000E-05 Eh   :
          :  -> wf. convergence          0.1000000E-03 e    :
          :  Broyden damping             0.4000000          :
          ...................................................

 iter      E             dE          RMSdq      gap      omega  full diag
   1    -21.7193648 -0.217194E+02  0.568E+00    4.23       0.0  T
   2    -21.7747603 -0.553954E-01  0.272E+00    3.23       1.0  T
   3    -21.7817169 -0.695665E-02  0.200E+00    3.72       1.0  T
   4    -21.7905173 -0.880040E-02  0.191E-01    3.48       1.0  T
   5    -21.7906451 -0.127733E-03  0.857E-02    3.51       1.0  T
   6    -21.7906796 -0.345590E-04  0.329E-02    3.50       1.0  T
   7    -21.7906783  0.132532E-05  0.150E-02    3.50       1.9  T
   8    -21.7906803 -0.205687E-05  0.361E-03    3.50       8.0  T
   9    -21.7906804 -0.939872E-07  0.120E-03    3.50      24.1  T
  10    -21.7906804 -0.325508E-08  0.380E-04    3.50      76.0  T
  11    -21.7906804 -0.395843E-10  0.199E-04    3.50     144.7  T

   *** convergence criteria satisfied after 11 iterations ***

         #    Occupation            Energy/Eh            Energy/eV
      -------------------------------------------------------------
         1        2.0000           -0.7405729             -20.1520
       ...           ...                  ...                  ...
        12        2.0000           -0.5342351             -14.5373
        13        2.0000           -0.5266441             -14.3307
        14        2.0000           -0.5117019             -13.9241
        15        2.0000           -0.4985488             -13.5662
        16        2.0000           -0.4441781             -12.0867
        17        2.0000           -0.4404131             -11.9843
        18        2.0000           -0.4268796             -11.6160 (HOMO)
        19                         -0.2982827              -8.1167 (LUMO)
        20                         -0.2964654              -8.0672
        21                          0.0440043               1.1974
        22                          0.0573889               1.5616
        23                          0.0615928               1.6760
       ...                                ...                  ...
        30                          0.5183428              14.1048
      -------------------------------------------------------------
                  HL-Gap            0.1285969 Eh            3.4993 eV
             Fermi-level           -0.3625811 Eh           -9.8663 eV

 SCC (total)                   0 d,  0 h,  0 min,  0.095 sec
 SCC setup                      ...        0 min,  0.000 sec (  0.142%)
 Dispersion                     ...        0 min,  0.000 sec (  0.064%)
 integral evaluation            ...        0 min,  0.001 sec (  0.741%)
 zeroth order Hamiltonian       ...        0 min,  0.000 sec (  0.064%)
 iterations                     ...        0 min,  0.091 sec ( 96.273%)
 molecular gradient             ...        0 min,  0.002 sec (  2.440%)
 printout                       ...        0 min,  0.000 sec (  0.090%)

         :::::::::::::::::::::::::::::::::::::::::::::::::::::
         ::                     SUMMARY                     ::
         :::::::::::::::::::::::::::::::::::::::::::::::::::::
         :: total energy             -21.601915896261 Eh    ::
         :: gradient norm              0.096372466818 Eh/a0 ::
         :: HOMO-LUMO gap              3.499299513496 eV    ::
         ::.................................................::
         :: SCC energy               -21.790680440771 Eh    ::
         :: -> isotropic ES            0.075123789542 Eh    ::
         :: -> anisotropic ES          0.000239143923 Eh    ::
         :: -> anisotropic XC          0.004320943213 Eh    ::
         :: -> dispersion             -0.005445226212 Eh    ::
         :: repulsion energy           0.188751817876 Eh    ::
         :: add. restraining           0.000000000000 Eh    ::
         :::::::::::::::::::::::::::::::::::::::::::::::::::::

      ----------------------------------------------------------- 
     |                   =====================                   |
     |                        A N C O P T                        |
     |                   =====================                   |
     |               Approximate Normal Coordinate               |
     |                Rational Function Optimizer                |
      ----------------------------------------------------------- 

          ...................................................
          :                      SETUP                      :
          :.................................................:
          :   optimization level            normal          :
          :   max. optcycles                   200          :
          :   ANC micro-cycles                  20          :
          :   degrees of freedom                30          :
          :.................................................:
          :   RF solver                   davidson          :
          :   write xtbopt.log                true          :
          :   linear?                        false          :
          :   energy convergence         0.5000000E-05 Eh   :
          :   grad. convergence          0.1000000E-02 Eh/α :
          :   maximium RF displ.         1.0000000          :
          :   Hlow (freq-cutoff)         0.1000000E-01      :
          :   Hmax (freq-cutoff)         5.0000000          :
          :   S6 in model hess.         20.0000000          :
          ...................................................

generating ANC from model Hessian ...
Using Lindh-Hessian (1995)
 Shifting diagonal of input Hessian by   9.723905866996613E-003
 Lowest  eigenvalues of input Hessian
   -0.000000   -0.000000   -0.000000   -0.000000    0.000000    0.000000
    0.010000    0.010126    0.010301    0.010496    0.010935    0.011040
    0.020401    0.022431    0.026047    0.044612    0.059008    0.073025
 Highest eigenvalues
    1.119318    1.298286    1.359546    1.408743    2.086270    2.119964
 

........................................................................
.............................. CYCLE    1 ..............................
........................................................................
   1    -21.7906804 -0.217907E+02  0.157E-05    3.50       0.0  T
   2    -21.7906804 -0.358824E-12  0.102E-05    3.50    2831.8  T
   3    -21.7906804 -0.603961E-13  0.566E-06    3.50    5101.1  T
     SCC iter.                  ...        0 min,  0.001 sec
     gradient                   ...        0 min,  0.001 sec
 * total energy  :   -21.6019159 Eh     change       -0.5709740E-08 Eh
   gradient norm :     0.0963749 Eh/α   predicted     0.0000000E+00 (-100.00%)
   displ. norm   :     0.1811275 α      lambda       -0.8179976E-02
   maximum displ.:     0.0859382 α      in ANC's #17, #5, #16, ...

........................................................................
.............................. CYCLE    2 ..............................
........................................................................
   1    -21.8091026 -0.218091E+02  0.349E-01    3.61       0.0  T
   2    -21.8092868 -0.184234E-03  0.204E-01    3.60       1.0  T
   3    -21.8092975 -0.106129E-04  0.856E-02    3.60       1.0  T
   4    -21.8093067 -0.925914E-05  0.248E-02    3.60       1.2  T
   5    -21.8093083 -0.159546E-05  0.927E-03    3.59       3.1  T
   6    -21.8093088 -0.487159E-06  0.315E-03    3.60       9.2  T
   7    -21.8093088 -0.608891E-08  0.631E-04    3.60      45.7  T
     SCC iter.                  ...        0 min,  0.002 sec
     gradient                   ...        0 min,  0.001 sec
 * total energy  :   -21.6072886 Eh     change       -0.5372701E-02 Eh
   gradient norm :     0.0386657 Eh/α   predicted    -0.4224165E-02 ( -21.38%)
   displ. norm   :     0.2283363 α      lambda       -0.3525452E-02
   maximum displ.:     0.1272743 α      in ANC's #7, #14, #5, ...

........................................................................
.............................. CYCLE    3 ..............................
........................................................................
   1    -21.8210382 -0.218210E+02  0.300E-01    3.68       0.0  T
   2    -21.8211782 -0.140007E-03  0.175E-01    3.67       1.0  T
   3    -21.8211854 -0.725720E-05  0.732E-02    3.66       1.0  T
   4    -21.8211925 -0.700461E-05  0.221E-02    3.66       1.3  T
   5    -21.8211937 -0.128628E-05  0.724E-03    3.66       4.0  T
   6    -21.8211940 -0.281022E-06  0.232E-03    3.66      12.5  T
   7    -21.8211940 -0.284703E-08  0.423E-04    3.66      68.2  T
     SCC iter.                  ...        0 min,  0.002 sec
     gradient                   ...        0 min,  0.001 sec
 * total energy  :   -21.6082542 Eh     change       -0.9655692E-03 Eh
   gradient norm :     0.0224698 Eh/α   predicted    -0.1854631E-02 (  92.08%)
   displ. norm   :     0.2030206 α      lambda       -0.1631992E-02
   maximum displ.:     0.1078007 α      in ANC's #8, #5, #4, ...

........................................................................
.............................. CYCLE    4 ..............................
........................................................................
   1    -21.8160900 -0.218161E+02  0.393E-01    3.63       0.0  T
   2    -21.8161180 -0.280746E-04  0.245E-01    3.64       1.0  T
   3    -21.8161290 -0.109681E-04  0.212E-02    3.65       1.4  T
   4    -21.8161300 -0.990487E-06  0.893E-03    3.65       3.2  T
   5    -21.8161301 -0.130728E-06  0.435E-03    3.65       6.6  T
   6    -21.8161301 -0.124334E-07  0.170E-03    3.65      16.9  T
     SCC iter.                  ...        0 min,  0.002 sec
     gradient                   ...        0 min,  0.086 sec
 * total energy  :   -21.6092075 Eh     change       -0.9533050E-03 Eh
   gradient norm :     0.0169162 Eh/α   predicted    -0.8496274E-03 ( -10.88%)
   displ. norm   :     0.2226640 α      lambda       -0.8502155E-03
   maximum displ.:     0.1239856 α      in ANC's #8, #1, #6, ...

........................................................................
.............................. CYCLE    5 ..............................
........................................................................
   1    -21.8149748 -0.218150E+02  0.279E-01    3.60       0.0  T
   2    -21.8149990 -0.241558E-04  0.172E-01    3.61       1.0  T
   3    -21.8150071 -0.813411E-05  0.252E-02    3.61       1.1  T
   4    -21.8150085 -0.138969E-05  0.107E-02    3.61       2.7  T
   5    -21.8150087 -0.193102E-06  0.419E-03    3.61       6.9  T
   6    -21.8150087 -0.130275E-07  0.113E-03    3.61      25.6  T
   7    -21.8150087 -0.478215E-08  0.431E-04    3.61      67.0  T
     SCC iter.                  ...        0 min,  0.002 sec
     gradient                   ...        0 min,  0.001 sec
 * total energy  :   -21.6094905 Eh     change       -0.2829844E-03 Eh
   gradient norm :     0.0185165 Eh/α   predicted    -0.4461866E-03 (  57.67%)
   displ. norm   :     0.3175212 α      lambda       -0.1098611E-02
   maximum displ.:     0.1385497 α      in ANC's #6, #7, #8, ...

........................................................................
.............................. CYCLE    6 ..............................
........................................................................
   1    -21.8094947 -0.218095E+02  0.458E-01    3.59       0.0  T
   2    -21.8095348 -0.400613E-04  0.285E-01    3.59       1.0  T
   3    -21.8095441 -0.931405E-05  0.359E-02    3.60       1.0  T
   4    -21.8095514 -0.732027E-05  0.146E-02    3.59       2.0  T
   5    -21.8095520 -0.621410E-06  0.571E-03    3.59       5.1  T
   6    -21.8095521 -0.691466E-07  0.280E-03    3.59      10.3  T
   7    -21.8095521 -0.882591E-08  0.517E-04    3.59      55.9  T
     SCC iter.                  ...        0 min,  0.002 sec
     gradient                   ...        0 min,  0.002 sec
 * total energy  :   -21.6102517 Eh     change       -0.7612811E-03 Eh
   gradient norm :     0.0272869 Eh/α   predicted    -0.6046882E-03 ( -20.57%)
   displ. norm   :     0.3679313 α      lambda       -0.1519824E-02
   maximum displ.:     0.1855726 α      in ANC's #7, #5, #1, ...

........................................................................
.............................. CYCLE    7 ..............................
........................................................................
   1    -21.8128684 -0.218129E+02  0.290E-01    3.63       0.0  T
   2    -21.8128804 -0.120017E-04  0.177E-01    3.62       1.0  T
   3    -21.8128786  0.185792E-05  0.324E-02    3.62       1.0  T
   4    -21.8128861 -0.753787E-05  0.969E-03    3.62       3.0  T
   5    -21.8128862 -0.109073E-06  0.416E-03    3.62       6.9  T
   6    -21.8128862 -0.175869E-07  0.139E-03    3.62      20.7  T
     SCC iter.                  ...        0 min,  0.002 sec
     gradient                   ...        0 min,  0.086 sec
 * total energy  :   -21.6111552 Eh     change       -0.9034164E-03 Eh
   gradient norm :     0.0224732 Eh/α   predicted    -0.8627835E-03 (  -4.50%)
   displ. norm   :     0.3630175 α      lambda       -0.1330624E-02
   maximum displ.:     0.1983281 α      in ANC's #6, #1, #7, ...

........................................................................
.............................. CYCLE    8 ..............................
........................................................................
   1    -21.8164080 -0.218164E+02  0.310E-01    3.62       0.0  T
   2    -21.8164438 -0.358502E-04  0.193E-01    3.62       1.0  T
   3    -21.8164482 -0.437923E-05  0.385E-02    3.62       1.0  T
   4    -21.8164555 -0.728492E-05  0.158E-02    3.62       1.8  T
   5    -21.8164564 -0.890226E-06  0.631E-03    3.62       4.6  T
   6    -21.8164564 -0.399998E-07  0.257E-03    3.62      11.2  T
   7    -21.8164564 -0.997291E-08  0.704E-04    3.62      41.0  T
     SCC iter.                  ...        0 min,  0.002 sec
     gradient                   ...        0 min,  0.002 sec
 * total energy  :   -21.6119615 Eh     change       -0.8063750E-03 Eh
   gradient norm :     0.0203016 Eh/α   predicted    -0.7529862E-03 (  -6.62%)
   displ. norm   :     0.3876783 α      lambda       -0.1170820E-02
   maximum displ.:     0.2086728 α      in ANC's #6, #8, #7, ...

........................................................................
.............................. CYCLE    9 ..............................
........................................................................
   1    -21.8154978 -0.218155E+02  0.370E-01    3.50       0.0  T
   2    -21.8155469 -0.490967E-04  0.230E-01    3.53       1.0  T
   3    -21.8155553 -0.839322E-05  0.372E-02    3.54       1.0  T
   4    -21.8155609 -0.561864E-05  0.158E-02    3.53       1.8  T
   5    -21.8155620 -0.108659E-05  0.687E-03    3.53       4.2  T
   6    -21.8155621 -0.529667E-07  0.312E-03    3.53       9.2  T
   7    -21.8155621 -0.149095E-07  0.789E-04    3.53      36.6  T
     SCC iter.                  ...        0 min,  0.002 sec
     gradient                   ...        0 min,  0.001 sec
 * total energy  :   -21.6123940 Eh     change       -0.4324947E-03 Eh
   gradient norm :     0.0219182 Eh/α   predicted    -0.6733984E-03 (  55.70%)
   displ. norm   :     0.1433023 α      lambda       -0.1050270E-02
   maximum displ.:     0.0697760 α      in ANC's #7, #8, #21, ...

........................................................................
.............................. CYCLE   10 ..............................
........................................................................
   1    -21.8314315 -0.218314E+02  0.154E-01    3.68       0.0  T
   2    -21.8314605 -0.289975E-04  0.935E-02    3.66       1.0  T
   3    -21.8314614 -0.908921E-06  0.371E-02    3.66       1.0  T
   4    -21.8314643 -0.286433E-05  0.748E-03    3.66       3.9  T
   5    -21.8314645 -0.178527E-06  0.437E-03    3.66       6.6  T
   6    -21.8314645 -0.424539E-07  0.165E-03    3.66      17.5  T
     SCC iter.                  ...        0 min,  0.087 sec
     gradient                   ...        0 min,  0.001 sec
 * total energy  :   -21.6119258 Eh     change        0.4682722E-03 Eh
   gradient norm :     0.0313611 Eh/α   predicted    -0.5359184E-03 (-214.45%)
   displ. norm   :     0.1698834 α      lambda       -0.1779900E-02
   maximum displ.:     0.0999179 α      in ANC's #7, #8, #1, ...

........................................................................
.............................. CYCLE   11 ..............................
........................................................................
   1    -21.8192549 -0.218193E+02  0.211E-01    3.62       0.0  T
   2    -21.8192849 -0.300116E-04  0.131E-01    3.62       1.0  T
   3    -21.8192842  0.684203E-06  0.399E-02    3.61       1.0  T
   4    -21.8192907 -0.649939E-05  0.954E-03    3.61       3.0  T
   5    -21.8192911 -0.338482E-06  0.549E-03    3.61       5.3  T
   6    -21.8192911 -0.556153E-07  0.254E-03    3.61      11.4  T
     SCC iter.                  ...        0 min,  0.002 sec
     gradient                   ...        0 min,  0.001 sec
 * total energy  :   -21.6126471 Eh     change       -0.7213687E-03 Eh
   gradient norm :     0.0221331 Eh/α   predicted    -0.9156351E-03 (  26.93%)
   displ. norm   :     0.2209248 α      lambda       -0.1109608E-02
   maximum displ.:     0.1588704 α      in ANC's #5, #1, #7, ...

........................................................................
.............................. CYCLE   12 ..............................
........................................................................
   1    -21.8181488 -0.218181E+02  0.288E-01    3.50       0.0  T
   2    -21.8181929 -0.440733E-04  0.176E-01    3.54       1.0  T
   3    -21.8181930 -0.191354E-06  0.437E-02    3.54       1.0  T
   4    -21.8182021 -0.910732E-05  0.166E-02    3.54       1.7  T
   5    -21.8182032 -0.105494E-05  0.606E-03    3.54       4.8  T
   6    -21.8182032 -0.229934E-07  0.175E-03    3.54      16.5  T
   7    -21.8182032 -0.336110E-08  0.555E-04    3.54      52.0  T
     SCC iter.                  ...        0 min,  0.002 sec
     gradient                   ...        0 min,  0.001 sec
 * total energy  :   -21.6120877 Eh     change        0.5593972E-03 Eh
   gradient norm :     0.0341187 Eh/α   predicted    -0.5818825E-03 (-204.02%)
   displ. norm   :     0.1218116 α      lambda       -0.1586574E-02
   maximum displ.:     0.0852155 α      in ANC's #5, #4, #10, ...

........................................................................
.............................. CYCLE   13 ..............................
........................................................................
   1    -21.8199775 -0.218200E+02  0.227E-01    3.60       0.0  T
   2    -21.8199989 -0.213630E-04  0.140E-01    3.58       1.0  T
   3    -21.8199992 -0.326458E-06  0.312E-02    3.58       1.0  T
   4    -21.8200041 -0.490186E-05  0.118E-02    3.58       2.4  T
   5    -21.8200046 -0.511354E-06  0.385E-03    3.58       7.5  T
   6    -21.8200046 -0.923036E-08  0.142E-03    3.58      20.3  T
     SCC iter.                  ...        0 min,  0.087 sec
     gradient                   ...        0 min,  0.002 sec
 * total energy  :   -21.6129581 Eh     change       -0.8703605E-03 Eh
   gradient norm :     0.0069816 Eh/α   predicted    -0.8050567E-03 (  -7.50%)
   displ. norm   :     0.1305020 α      lambda       -0.2473859E-03
   maximum displ.:     0.0765948 α      in ANC's #8, #7, #1, ...

........................................................................
.............................. CYCLE   14 ..............................
........................................................................
   1    -21.8208358 -0.218208E+02  0.159E-01    3.60       0.0  T
   2    -21.8208412 -0.538119E-05  0.988E-02    3.59       1.0  T
   3    -21.8208410  0.214541E-06  0.203E-02    3.59       1.4  T
   4    -21.8208440 -0.297391E-05  0.629E-03    3.59       4.6  T
   5    -21.8208440 -0.439260E-07  0.266E-03    3.59      10.8  T
   6    -21.8208440 -0.676859E-08  0.506E-04    3.59      57.1  T
     SCC iter.                  ...        0 min,  0.002 sec
     gradient                   ...        0 min,  0.002 sec
 * total energy  :   -21.6130544 Eh     change       -0.9632376E-04 Eh
   gradient norm :     0.0110019 Eh/α   predicted    -0.1258015E-03 (  30.60%)
   displ. norm   :     0.1340589 α      lambda       -0.2273500E-03
   maximum displ.:     0.0765847 α      in ANC's #7, #4, #3, ...

........................................................................
.............................. CYCLE   15 ..............................
........................................................................
   1    -21.8198962 -0.218199E+02  0.158E-01    3.58       0.0  T
   2    -21.8199000 -0.379047E-05  0.988E-02    3.57       1.0  T
   3    -21.8199020 -0.191700E-05  0.914E-03    3.57       3.2  T
   4    -21.8199022 -0.286938E-06  0.503E-03    3.57       5.7  T
   5    -21.8199023 -0.467676E-07  0.222E-03    3.57      13.0  T
   6    -21.8199023 -0.988908E-08  0.801E-04    3.57      36.0  T
     SCC iter.                  ...        0 min,  0.002 sec
     gradient                   ...        0 min,  0.001 sec
 * total energy  :   -21.6132254 Eh     change       -0.1710320E-03 Eh
   gradient norm :     0.0110671 Eh/α   predicted    -0.1157178E-03 ( -32.34%)
   displ. norm   :     0.2924179 α      lambda       -0.4232675E-03
   maximum displ.:     0.1628051 α      in ANC's #6, #4, #7, ...

........................................................................
.............................. CYCLE   16 ..............................
........................................................................
   1    -21.8201625 -0.218202E+02  0.263E-01    3.55       0.0  T
   2    -21.8201713 -0.870418E-05  0.164E-01    3.55       1.0  T
   3    -21.8201772 -0.590918E-05  0.134E-02    3.55       2.2  T
   4    -21.8201775 -0.348609E-06  0.818E-03    3.55       3.5  T
   5    -21.8201777 -0.148801E-06  0.239E-03    3.55      12.1  T
   6    -21.8201777 -0.103599E-07  0.556E-04    3.55      51.9  T
     SCC iter.                  ...        0 min,  0.002 sec
     gradient                   ...        0 min,  0.002 sec
 * total energy  :   -21.6134880 Eh     change       -0.2625904E-03 Eh
   gradient norm :     0.0087029 Eh/α   predicted    -0.2297273E-03 ( -12.51%)
   displ. norm   :     0.2778204 α      lambda       -0.2605821E-03
   maximum displ.:     0.1823175 α      in ANC's #6, #7, #4, ...

........................................................................
.............................. CYCLE   17 ..............................
........................................................................
   1    -21.8198863 -0.218199E+02  0.263E-01    3.53       0.0  T
   2    -21.8198975 -0.112227E-04  0.162E-01    3.53       1.0  T
   3    -21.8199018 -0.422763E-05  0.221E-02    3.52       1.3  T
   4    -21.8199044 -0.263059E-05  0.101E-02    3.53       2.8  T
   5    -21.8199046 -0.178179E-06  0.372E-03    3.53       7.8  T
   6    -21.8199046 -0.149943E-07  0.985E-04    3.53      29.3  T
   7    -21.8199046 -0.274179E-08  0.215E-04    3.53     134.5  T
     SCC iter.                  ...        0 min,  0.002 sec
     gradient                   ...        0 min,  0.001 sec
 * total energy  :   -21.6135993 Eh     change       -0.1112515E-03 Eh
   gradient norm :     0.0140842 Eh/α   predicted    -0.1403492E-03 (  26.15%)
   displ. norm   :     0.3064249 α      lambda       -0.4058492E-03
   maximum displ.:     0.1544576 α      in ANC's #4, #6, #8, ...

........................................................................
.............................. CYCLE   18 ..............................
........................................................................
   1    -21.8182012 -0.218182E+02  0.338E-01    3.58       0.0  T
   2    -21.8182244 -0.232490E-04  0.209E-01    3.56       1.0  T
   3    -21.8182298 -0.536128E-05  0.297E-02    3.55       1.0  T
   4    -21.8182345 -0.466984E-05  0.118E-02    3.55       2.4  T
   5    -21.8182349 -0.388336E-06  0.518E-03    3.55       5.6  T
   6    -21.8182349 -0.230248E-07  0.159E-03    3.55      18.2  T
   7    -21.8182349 -0.459141E-08  0.582E-04    3.55      49.6  T
     SCC iter.                  ...        0 min,  0.087 sec
     gradient                   ...        0 min,  0.001 sec
 * total energy  :   -21.6136538 Eh     change       -0.5446866E-04 Eh
   gradient norm :     0.0173786 Eh/α   predicted    -0.2219838E-03 ( 307.54%)
   displ. norm   :     0.1270796 α      lambda       -0.4906005E-03
   maximum displ.:     0.0858785 α      in ANC's #7, #8, #1, ...

........................................................................
.............................. CYCLE   19 ..............................
........................................................................
   1    -21.8285430 -0.218285E+02  0.172E-01    3.59       0.0  T
   2    -21.8285675 -0.244704E-04  0.105E-01    3.60       1.0  T
   3    -21.8285692 -0.167413E-05  0.304E-02    3.61       1.0  T
   4    -21.8285713 -0.211034E-05  0.811E-03    3.61       3.6  T
   5    -21.8285714 -0.165501E-06  0.370E-03    3.61       7.8  T
   6    -21.8285715 -0.440588E-07  0.180E-03    3.61      16.0  T
   7    -21.8285715 -0.360572E-08  0.375E-04    3.61      76.9  T
     SCC iter.                  ...        0 min,  0.002 sec
     gradient                   ...        0 min,  0.002 sec
 * total energy  :   -21.6135469 Eh     change        0.1069007E-03 Eh
   gradient norm :     0.0228656 Eh/α   predicted    -0.2492616E-03 (-333.17%)
   displ. norm   :     0.1481655 α      lambda       -0.6540158E-03
   maximum displ.:     0.0795691 α      in ANC's #3, #7, #1, ...

........................................................................
.............................. CYCLE   20 ..............................
........................................................................
   1    -21.8221040 -0.218221E+02  0.156E-01    3.52       0.0  T
   2    -21.8221194 -0.154590E-04  0.977E-02    3.53       1.0  T
   3    -21.8221210 -0.159793E-05  0.246E-02    3.53       1.2  T
   4    -21.8221228 -0.174925E-05  0.640E-03    3.53       4.5  T
   5    -21.8221229 -0.636107E-07  0.322E-03    3.53       9.0  T
   6    -21.8221229 -0.270941E-07  0.158E-03    3.53      18.3  T
     SCC iter.                  ...        0 min,  0.002 sec
     gradient                   ...        0 min,  0.001 sec
 * total energy  :   -21.6138120 Eh     change       -0.2651461E-03 Eh
   gradient norm :     0.0102188 Eh/α   predicted    -0.3341871E-03 (  26.04%)
   displ. norm   :     0.1094893 α      lambda       -0.1705713E-03
   maximum displ.:     0.0534151 α      in ANC's #4, #6, #7, ...
 * RMSD in coord.:     0.7493727 α      energy gain  -0.1189610E-01 Eh

generating ANC from model Hessian ...
Using Lindh-Hessian (1995)
 Shifting diagonal of input Hessian by   1.008416968051446E-002
 Lowest  eigenvalues of input Hessian
    0.010000   -0.000000    0.000000    0.000000    0.000000    0.000000
    0.000000    0.010455    0.010660    0.010999    0.011516    0.012215
    0.019758    0.022200    0.025822    0.050578    0.058048    0.078713
 Highest eigenvalues
    1.206583    1.300224    1.383616    1.424940    2.198169    2.233637
 

........................................................................
.............................. CYCLE   21 ..............................
........................................................................
   1    -21.8208425 -0.218208E+02  0.130E-01    3.56       0.0  T
   2    -21.8208470 -0.448626E-05  0.792E-02    3.55       1.0  T
   3    -21.8208479 -0.919650E-06  0.128E-02    3.55       2.3  T
   4    -21.8208485 -0.596237E-06  0.534E-03    3.55       5.4  T
   5    -21.8208486 -0.102008E-06  0.198E-03    3.55      14.5  T
   6    -21.8208486 -0.472915E-08  0.970E-04    3.55      29.8  T
   7    -21.8208486 -0.117623E-08  0.205E-04    3.55     140.5  T
     SCC iter.                  ...        0 min,  0.002 sec
     gradient                   ...        0 min,  0.001 sec
 * total energy  :   -21.6138796 Eh     change       -0.6757944E-04 Eh
   gradient norm :     0.0070371 Eh/α   predicted     0.0000000E+00 (-100.00%)
   displ. norm   :     0.0915857 α      lambda       -0.1592817E-03
   maximum displ.:     0.0617653 α      in ANC's #1, #4, #7, ...

........................................................................
.............................. CYCLE   22 ..............................
........................................................................
   1    -21.8221749 -0.218222E+02  0.180E-01    3.55       0.0  T
   2    -21.8221786 -0.372693E-05  0.113E-01    3.55       1.0  T
   3    -21.8221785  0.103947E-06  0.156E-02    3.56       1.8  T
   4    -21.8221807 -0.215053E-05  0.334E-03    3.56       8.6  T
   5    -21.8221807 -0.927892E-08  0.908E-04    3.56      31.8  T
   6    -21.8221807 -0.555179E-09  0.319E-04    3.56      90.4  T
     SCC iter.                  ...        0 min,  0.002 sec
     gradient                   ...        0 min,  0.001 sec
 * total energy  :   -21.6139611 Eh     change       -0.8156780E-04 Eh
   gradient norm :     0.0042859 Eh/α   predicted    -0.8030916E-04 (  -1.54%)
   displ. norm   :     0.0806115 α      lambda       -0.9229653E-04
   maximum displ.:     0.0547789 α      in ANC's #1, #4, #2, ...

........................................................................
.............................. CYCLE   23 ..............................
........................................................................
   1    -21.8232657 -0.218233E+02  0.115E-01    3.55       0.0  T
   2    -21.8232669 -0.126042E-05  0.716E-02    3.55       1.0  T
   3    -21.8232673 -0.350696E-06  0.704E-03    3.56       4.1  T
   4    -21.8232677 -0.374759E-06  0.242E-03    3.56      11.9  T
   5    -21.8232677 -0.442271E-08  0.636E-04    3.56      45.4  T
     SCC iter.                  ...        0 min,  0.002 sec
     gradient                   ...        0 min,  0.086 sec
 * total energy  :   -21.6140149 Eh     change       -0.5372320E-04 Eh
   gradient norm :     0.0032916 Eh/α   predicted    -0.4644759E-04 ( -13.54%)
   displ. norm   :     0.1000666 α      lambda       -0.6537607E-04
   maximum displ.:     0.0621885 α      in ANC's #4, #1, #6, ...

........................................................................
.............................. CYCLE   24 ..............................
........................................................................
   1    -21.8239519 -0.218240E+02  0.547E-02    3.56       0.0  T
   2    -21.8239526 -0.647832E-06  0.323E-02    3.56       1.0  T
   3    -21.8239524  0.158285E-06  0.720E-03    3.56       4.0  T
   4    -21.8239527 -0.312999E-06  0.198E-03    3.56      14.6  T
   5    -21.8239527 -0.963981E-08  0.536E-04    3.56      53.8  T
   6    -21.8239527 -0.125670E-09  0.146E-04    3.56     198.4  T
     SCC iter.                  ...        0 min,  0.002 sec
     gradient                   ...        0 min,  0.001 sec
 * total energy  :   -21.6140680 Eh     change       -0.5310802E-04 Eh
   gradient norm :     0.0036655 Eh/α   predicted    -0.3301488E-04 ( -37.83%)
   displ. norm   :     0.4059030 α      lambda       -0.2074495E-03
   maximum displ.:     0.2772925 α      in ANC's #4, #1, #6, ...

........................................................................
.............................. CYCLE   25 ..............................
........................................................................
   1    -21.8228808 -0.218229E+02  0.275E-01    3.56       0.0  T
   2    -21.8228866 -0.576078E-05  0.169E-01    3.56       1.0  T
   3    -21.8228873 -0.715934E-06  0.180E-02    3.56       1.6  T
   4    -21.8228896 -0.233687E-05  0.652E-03    3.56       4.4  T
   5    -21.8228896 -0.305076E-07  0.215E-03    3.56      13.4  T
   6    -21.8228896 -0.711354E-08  0.762E-04    3.56      37.9  T
   7    -21.8228896 -0.978570E-09  0.185E-04    3.56     156.3  T
     SCC iter.                  ...        0 min,  0.002 sec
     gradient                   ...        0 min,  0.001 sec
 * total energy  :   -21.6142421 Eh     change       -0.1741120E-03 Eh
   gradient norm :     0.0064223 Eh/α   predicted    -0.1208199E-03 ( -30.61%)
   displ. norm   :     0.5159411 α      lambda       -0.2377468E-03
   maximum displ.:     0.3631603 α      in ANC's #4, #1, #6, ...

........................................................................
.............................. CYCLE   26 ..............................
........................................................................
   1    -21.8190902 -0.218191E+02  0.364E-01    3.56       0.0  T
   2    -21.8191024 -0.121306E-04  0.223E-01    3.57       1.0  T
   3    -21.8191056 -0.319763E-05  0.208E-02    3.57       1.4  T
   4    -21.8191082 -0.266737E-05  0.878E-03    3.57       3.3  T
   5    -21.8191084 -0.128551E-06  0.314E-03    3.57       9.2  T
   6    -21.8191084 -0.708940E-08  0.120E-03    3.57      24.1  T
   7    -21.8191084 -0.257145E-08  0.245E-04    3.57     118.0  T
     SCC iter.                  ...        0 min,  0.002 sec
     gradient                   ...        0 min,  0.087 sec
 * total energy  :   -21.6143804 Eh     change       -0.1383491E-03 Eh
   gradient norm :     0.0095385 Eh/α   predicted    -0.1505165E-03 (   8.79%)
   displ. norm   :     0.2252461 α      lambda       -0.1934963E-03
   maximum displ.:     0.1478197 α      in ANC's #4, #6, #1, ...

........................................................................
.............................. CYCLE   27 ..............................
........................................................................
   1    -21.8205748 -0.218206E+02  0.113E-01    3.58       0.0  T
   2    -21.8205772 -0.242673E-05  0.671E-02    3.58       1.0  T
   3    -21.8205764  0.806253E-06  0.154E-02    3.58       1.9  T
   4    -21.8205779 -0.155255E-05  0.365E-03    3.58       7.9  T
   5    -21.8205780 -0.254123E-07  0.163E-03    3.58      17.7  T
   6    -21.8205780 -0.337278E-08  0.757E-04    3.58      38.1  T
     SCC iter.                  ...        0 min,  0.002 sec
     gradient                   ...        0 min,  0.001 sec
 * total energy  :   -21.6145129 Eh     change       -0.1324814E-03 Eh
   gradient norm :     0.0080353 Eh/α   predicted    -0.1016576E-03 ( -23.27%)
   displ. norm   :     0.2491553 α      lambda       -0.2554653E-03
   maximum displ.:     0.1829097 α      in ANC's #4, #1, #6, ...

........................................................................
.............................. CYCLE   28 ..............................
........................................................................
   1    -21.8232312 -0.218232E+02  0.155E-01    3.60       0.0  T
   2    -21.8232355 -0.432189E-05  0.939E-02    3.59       1.0  T
   3    -21.8232362 -0.714832E-06  0.102E-02    3.59       2.8  T
   4    -21.8232365 -0.345493E-06  0.397E-03    3.59       7.3  T
   5    -21.8232366 -0.331664E-07  0.201E-03    3.59      14.4  T
   6    -21.8232366 -0.414579E-08  0.918E-04    3.59      31.4  T
     SCC iter.                  ...        0 min,  0.002 sec
     gradient                   ...        0 min,  0.002 sec
 * total energy  :   -21.6146650 Eh     change       -0.1520826E-03 Eh
   gradient norm :     0.0041599 Eh/α   predicted    -0.1356617E-03 ( -10.80%)
   displ. norm   :     0.5464526 α      lambda       -0.1919763E-03
   maximum displ.:     0.3700362 α      in ANC's #4, #1, #6, ...

........................................................................
.............................. CYCLE   29 ..............................
........................................................................
   1    -21.8198316 -0.218198E+02  0.315E-01    3.59       0.0  T
   2    -21.8198403 -0.873284E-05  0.192E-01    3.60       1.0  T
   3    -21.8198403  0.113010E-07  0.248E-02    3.60       1.2  T
   4    -21.8198448 -0.450136E-05  0.840E-03    3.60       3.4  T
   5    -21.8198449 -0.844437E-07  0.283E-03    3.60      10.2  T
   6    -21.8198449 -0.686698E-08  0.499E-04    3.60      57.9  T
     SCC iter.                  ...        0 min,  0.087 sec
     gradient                   ...        0 min,  0.002 sec
 * total energy  :   -21.6147283 Eh     change       -0.6327795E-04 Eh
   gradient norm :     0.0089801 Eh/α   predicted    -0.1246445E-03 (  96.98%)
   displ. norm   :     0.0588516 α      lambda       -0.1970292E-03
   maximum displ.:     0.0317758 α      in ANC's #4, #6, #9, ...

........................................................................
.............................. CYCLE   30 ..............................
........................................................................
   1    -21.8238597 -0.218239E+02  0.102E-01    3.60       0.0  T
   2    -21.8238635 -0.379023E-05  0.616E-02    3.60       1.0  T
   3    -21.8238641 -0.577578E-06  0.106E-02    3.60       2.7  T
   4    -21.8238643 -0.238761E-06  0.375E-03    3.60       7.7  T
   5    -21.8238644 -0.604956E-07  0.125E-03    3.60      23.1  T
   6    -21.8238644 -0.471607E-08  0.626E-04    3.60      46.1  T
     SCC iter.                  ...        0 min,  0.002 sec
     gradient                   ...        0 min,  0.002 sec
 * total energy  :   -21.6148025 Eh     change       -0.7424244E-04 Eh
   gradient norm :     0.0061951 Eh/α   predicted    -0.9885498E-04 (  33.15%)
   displ. norm   :     0.0793120 α      lambda       -0.1032238E-03
   maximum displ.:     0.0540491 α      in ANC's #1, #5, #4, ...

........................................................................
.............................. CYCLE   31 ..............................
........................................................................
   1    -21.8239654 -0.218240E+02  0.110E-01    3.59       0.0  T
   2    -21.8239678 -0.240269E-05  0.672E-02    3.59       1.0  T
   3    -21.8239685 -0.730793E-06  0.725E-03    3.59       4.0  T
   4    -21.8239686 -0.905116E-07  0.347E-03    3.59       8.3  T
   5    -21.8239687 -0.511949E-07  0.148E-03    3.59      19.5  T
   6    -21.8239687 -0.207775E-08  0.257E-04    3.59     112.2  T
     SCC iter.                  ...        0 min,  0.002 sec
     gradient                   ...        0 min,  0.001 sec
 * total energy  :   -21.6148326 Eh     change       -0.3011620E-04 Eh
   gradient norm :     0.0056631 Eh/α   predicted    -0.5193834E-04 (  72.46%)
   displ. norm   :     0.1817612 α      lambda       -0.6263475E-04
   maximum displ.:     0.1179701 α      in ANC's #1, #4, #6, ...

........................................................................
.............................. CYCLE   32 ..............................
........................................................................
   1    -21.8226983 -0.218227E+02  0.105E-01    3.60       0.0  T
   2    -21.8226993 -0.102911E-05  0.639E-02    3.59       1.0  T
   3    -21.8226993  0.126155E-07  0.898E-03    3.59       3.2  T
   4    -21.8226999 -0.591783E-06  0.305E-03    3.59       9.5  T
   5    -21.8226999 -0.808613E-08  0.103E-03    3.59      28.1  T
   6    -21.8226999 -0.112816E-08  0.317E-04    3.59      91.1  T
     SCC iter.                  ...        0 min,  0.002 sec
     gradient                   ...        0 min,  0.002 sec
 * total energy  :   -21.6148718 Eh     change       -0.3920678E-04 Eh
   gradient norm :     0.0029068 Eh/α   predicted    -0.3235089E-04 ( -17.49%)
   displ. norm   :     0.0921587 α      lambda       -0.2439220E-04
   maximum displ.:     0.0713817 α      in ANC's #1, #4, #6, ...

........................................................................
.............................. CYCLE   33 ..............................
........................................................................
   1    -21.8228541 -0.218229E+02  0.595E-02    3.60       0.0  T
   2    -21.8228545 -0.333392E-06  0.363E-02    3.59       1.0  T
   3    -21.8228545 -0.875931E-07  0.410E-03    3.60       7.0  T
   4    -21.8228547 -0.110659E-06  0.184E-03    3.59      15.7  T
   5    -21.8228547 -0.427465E-08  0.631E-04    3.59      45.8  T
   6    -21.8228547 -0.430525E-09  0.138E-04    3.59     209.3  T
     SCC iter.                  ...        0 min,  0.002 sec
     gradient                   ...        0 min,  0.002 sec
 * total energy  :   -21.6148896 Eh     change       -0.1775259E-04 Eh
   gradient norm :     0.0021340 Eh/α   predicted    -0.1229867E-04 ( -30.72%)
   displ. norm   :     0.1526547 α      lambda       -0.2689397E-04
   maximum displ.:     0.1196319 α      in ANC's #1, #4, #6, ...

........................................................................
.............................. CYCLE   34 ..............................
........................................................................
   1    -21.8229089 -0.218229E+02  0.102E-01    3.60       0.0  T
   2    -21.8229099 -0.100623E-05  0.625E-02    3.59       1.0  T
   3    -21.8229103 -0.361193E-06  0.686E-03    3.60       4.2  T
   4    -21.8229106 -0.282457E-06  0.325E-03    3.59       8.9  T
   5    -21.8229106 -0.117029E-07  0.109E-03    3.59      26.4  T
   6    -21.8229106 -0.137156E-08  0.187E-04    3.59     154.2  T
   7    -21.8229106 -0.589573E-10  0.861E-05    3.59     335.1  T
     SCC iter.                  ...        0 min,  0.002 sec
     gradient                   ...        0 min,  0.087 sec
 * total energy  :   -21.6149056 Eh     change       -0.1604302E-04 Eh
   gradient norm :     0.0019816 Eh/α   predicted    -0.1376191E-04 ( -14.22%)
   displ. norm   :     0.1280097 α      lambda       -0.2285227E-04
   maximum displ.:     0.0994756 α      in ANC's #1, #2, #7, ...

........................................................................
.............................. CYCLE   35 ..............................
........................................................................
   1    -21.8239014 -0.218239E+02  0.109E-01    3.59       0.0  T
   2    -21.8239031 -0.171548E-05  0.677E-02    3.59       1.0  T
   3    -21.8239038 -0.716496E-06  0.711E-03    3.59       4.1  T
   4    -21.8239041 -0.218527E-06  0.383E-03    3.59       7.5  T
   5    -21.8239041 -0.373122E-07  0.142E-03    3.59      20.4  T
   6    -21.8239041 -0.232742E-08  0.360E-04    3.59      80.3  T
   7    -21.8239041 -0.355715E-09  0.115E-04    3.59     251.5  T
     SCC iter.                  ...        0 min,  0.002 sec
     gradient                   ...        0 min,  0.001 sec
 * total energy  :   -21.6149040 Eh     change        0.1665815E-05 Eh
   gradient norm :     0.0042127 Eh/α   predicted    -0.1150906E-04 (-790.90%)
   displ. norm   :     0.0254211 α      lambda       -0.2431847E-04
   maximum displ.:     0.0173489 α      in ANC's #4, #3, #6, ...

........................................................................
.............................. CYCLE   36 ..............................
........................................................................
   1    -21.8238190 -0.218238E+02  0.218E-02    3.59       0.0  T
   2    -21.8238191 -0.148099E-06  0.132E-02    3.59       2.2  T
   3    -21.8238192 -0.347708E-07  0.180E-03    3.59      16.0  T
   4    -21.8238192 -0.543874E-08  0.838E-04    3.59      34.5  T
     SCC iter.                  ...        0 min,  0.001 sec
     gradient                   ...        0 min,  0.002 sec
 * total energy  :   -21.6149214 Eh     change       -0.1743586E-04 Eh
   gradient norm :     0.0021660 Eh/α   predicted    -0.1216597E-04 ( -30.22%)
   displ. norm   :     0.0534565 α      lambda       -0.1889864E-04
   maximum displ.:     0.0382515 α      in ANC's #4, #6, #2, ...

........................................................................
.............................. CYCLE   37 ..............................
........................................................................
   1    -21.8233170 -0.218233E+02  0.323E-02    3.59       0.0  T
   2    -21.8233173 -0.279349E-06  0.197E-02    3.59       1.5  T
   3    -21.8233173  0.469913E-07  0.484E-03    3.59       6.0  T
   4    -21.8233174 -0.152353E-06  0.137E-03    3.59      21.1  T
   5    -21.8233174 -0.419081E-08  0.507E-04    3.59      56.9  T
   6    -21.8233174 -0.170530E-09  0.137E-04    3.59     210.8  T
     SCC iter.                  ...        0 min,  0.287 sec
     gradient                   ...        0 min,  0.001 sec
 * total energy  :   -21.6149323 Eh     change       -0.1087594E-04 Eh
   gradient norm :     0.0015488 Eh/α   predicted    -0.9477063E-05 ( -12.86%)
   displ. norm   :     0.0849692 α      lambda       -0.1452580E-04
   maximum displ.:     0.0509432 α      in ANC's #2, #1, #7, ...

........................................................................
.............................. CYCLE   38 ..............................
........................................................................
   1    -21.8238778 -0.218239E+02  0.602E-02    3.60       0.0  T
   2    -21.8238783 -0.521585E-06  0.367E-02    3.59       1.0  T
   3    -21.8238783 -0.482301E-07  0.528E-03    3.59       5.5  T
   4    -21.8238785 -0.166874E-06  0.208E-03    3.59      13.8  T
   5    -21.8238785 -0.769904E-08  0.847E-04    3.59      34.1  T
   6    -21.8238785 -0.464322E-09  0.187E-04    3.59     154.2  T
     SCC iter.                  ...        0 min,  0.001 sec
     gradient                   ...        0 min,  0.001 sec
 * total energy  :   -21.6149408 Eh     change       -0.8487650E-05 Eh
   gradient norm :     0.0037030 Eh/α   predicted    -0.7286433E-05 ( -14.15%)
   displ. norm   :     0.0760816 α      lambda       -0.1674734E-04
   maximum displ.:     0.0464933 α      in ANC's #2, #1, #4, ...

........................................................................
.............................. CYCLE   39 ..............................
........................................................................
   1    -21.8233925 -0.218234E+02  0.674E-02    3.59       0.0  T
   2    -21.8233931 -0.523345E-06  0.419E-02    3.59       1.0  T
   3    -21.8233934 -0.323838E-06  0.362E-03    3.59       8.0  T
   4    -21.8233934 -0.389247E-07  0.211E-03    3.59      13.7  T
   5    -21.8233934 -0.518866E-08  0.636E-04    3.59      45.4  T
   6    -21.8233934 -0.107472E-08  0.204E-04    3.59     141.8  T
     SCC iter.                  ...        0 min,  0.001 sec
     gradient                   ...        0 min,  0.001 sec
 * total energy  :   -21.6149548 Eh     change       -0.1397431E-04 Eh
   gradient norm :     0.0031844 Eh/α   predicted    -0.8423346E-05 ( -39.72%)
   displ. norm   :     0.2012907 α      lambda       -0.4964025E-04
   maximum displ.:     0.1506152 α      in ANC's #2, #1, #7, ...

........................................................................
.............................. CYCLE   40 ..............................
........................................................................
   1    -21.8228316 -0.218228E+02  0.169E-01    3.56       0.0  T
   2    -21.8228350 -0.338834E-05  0.105E-01    3.57       1.0  T
   3    -21.8228371 -0.212300E-05  0.921E-03    3.57       3.1  T
   4    -21.8228373 -0.175380E-06  0.544E-03    3.57       5.3  T
   5    -21.8228373 -0.400325E-07  0.185E-03    3.57      15.6  T
   6    -21.8228373 -0.850485E-08  0.604E-04    3.57      47.8  T
   7    -21.8228373 -0.762824E-09  0.180E-04    3.57     160.0  T
     SCC iter.                  ...        0 min,  0.002 sec
     gradient                   ...        0 min,  0.001 sec
 * total energy  :   -21.6149760 Eh     change       -0.2126833E-04 Eh
   gradient norm :     0.0023363 Eh/α   predicted    -0.2582750E-04 (  21.44%)
   displ. norm   :     0.0413306 α      lambda       -0.8931116E-05
   maximum displ.:     0.0291573 α      in ANC's #1, #2, #4, ...

........................................................................
.............................. CYCLE   41 ..............................
........................................................................
   1    -21.8229768 -0.218230E+02  0.346E-02    3.57       0.0  T
   2    -21.8229770 -0.233215E-06  0.212E-02    3.57       1.4  T
   3    -21.8229771 -0.456445E-07  0.295E-03    3.57       9.8  T
   4    -21.8229771 -0.462409E-07  0.130E-03    3.57      22.3  T
   5    -21.8229771 -0.467616E-08  0.545E-04    3.57      52.9  T
   6    -21.8229771 -0.218506E-09  0.119E-04    3.57     243.5  T
     SCC iter.                  ...        0 min,  0.001 sec
     gradient                   ...        0 min,  0.001 sec
 * total energy  :   -21.6149818 Eh     change       -0.5798523E-05 Eh
   gradient norm :     0.0019613 Eh/α   predicted    -0.4471685E-05 ( -22.88%)
   displ. norm   :     0.0385207 α      lambda       -0.9510020E-05
   maximum displ.:     0.0225459 α      in ANC's #3, #4, #2, ...

........................................................................
.............................. CYCLE   42 ..............................
........................................................................
   1    -21.8247318 -0.218247E+02  0.318E-02    3.58       0.0  T
   2    -21.8247321 -0.357272E-06  0.190E-02    3.57       1.5  T
   3    -21.8247321  0.558678E-07  0.524E-03    3.57       5.5  T
   4    -21.8247322 -0.145268E-06  0.141E-03    3.57      20.4  T
   5    -21.8247322 -0.437941E-08  0.548E-04    3.57      52.7  T
   6    -21.8247322 -0.469015E-09  0.275E-04    3.57     104.8  T
     SCC iter.                  ...        0 min,  0.092 sec
     gradient                   ...        0 min,  0.001 sec
 * total energy  :   -21.6149803 Eh     change        0.1529223E-05 Eh
   gradient norm :     0.0033564 Eh/α   predicted    -0.4756285E-05 (-411.03%)
   displ. norm   :     0.0859089 α      lambda       -0.1097838E-04
   maximum displ.:     0.0513629 α      in ANC's #2, #1, #4, ...
 * RMSD in coord.:     0.8366927 α      energy gain  -0.1168288E-02 Eh

generating ANC from model Hessian ...
Using Lindh-Hessian (1995)
 Shifting diagonal of input Hessian by   9.728390880031908E-003
 Lowest  eigenvalues of input Hessian
   -0.000000   -0.000000   -0.000000   -0.000000    0.000000    0.000000
    0.010000    0.010180    0.010417    0.011671    0.012571    0.015749
    0.019682    0.022580    0.025760    0.051323    0.058748    0.079137
 Highest eigenvalues
    1.216311    1.303540    1.394001    1.440986    2.202236    2.236768
 

........................................................................
.............................. CYCLE   43 ..............................
........................................................................
   1    -21.8238843 -0.218239E+02  0.689E-02    3.57       0.0  T
   2    -21.8238849 -0.604510E-06  0.426E-02    3.57       1.0  T
   3    -21.8238852 -0.324636E-06  0.390E-03    3.57       7.4  T
   4    -21.8238853 -0.459471E-07  0.217E-03    3.57      13.3  T
   5    -21.8238853 -0.460065E-08  0.930E-04    3.57      31.0  T
   6    -21.8238853 -0.184610E-08  0.263E-04    3.57     109.9  T
     SCC iter.                  ...        0 min,  0.001 sec
     gradient                   ...        0 min,  0.001 sec
 * total energy  :   -21.6149876 Eh     change       -0.7325750E-05 Eh
   gradient norm :     0.0016199 Eh/α   predicted     0.0000000E+00 (-100.00%)
   displ. norm   :     0.0250408 α      lambda       -0.6061768E-05
   maximum displ.:     0.0153972 α      in ANC's #4, #5, #2, ...

........................................................................
.............................. CYCLE   44 ..............................
........................................................................
   1    -21.8235510 -0.218236E+02  0.461E-02    3.56       0.0  T
   2    -21.8235512 -0.215045E-06  0.285E-02    3.56       1.0  T
   3    -21.8235513 -0.766976E-07  0.196E-03    3.56      14.7  T
   4    -21.8235513 -0.173229E-07  0.853E-04    3.56      33.9  T
   5    -21.8235513 -0.101178E-08  0.400E-04    3.56      72.2  T
     SCC iter.                  ...        0 min,  0.091 sec
     gradient                   ...        0 min,  0.001 sec
 * total energy  :   -21.6149918 Eh     change       -0.4138205E-05 Eh
   gradient norm :     0.0009363 Eh/α   predicted    -0.3033890E-05 ( -26.69%)
   displ. norm   :     0.0454230 α      lambda       -0.7617291E-05
   maximum displ.:     0.0256064 α      in ANC's #4, #5, #2, ...

   *** GEOMETRY OPTIMIZATION CONVERGED AFTER 44 ITERATIONS ***

------------------------------------------------------------------------
 total energy gain   :        -0.0130759 Eh       -8.2052 kcal/mol
 total RMSD          :         1.3513381 a0        0.7151 Å
 total power (kW/mol):        -0.7802422 (step)  -18.1299 (real)
------------------------------------------------------------------------

 ANCopt (total)                0 d,  0 h,  0 min,  1.894 sec
 optimizer setup                ...        0 min,  0.000 sec (  0.016%)
 model hessian                  ...        0 min,  0.007 sec (  0.392%)
 ANC generation                 ...        0 min,  0.086 sec (  4.534%)
 coordinate transformation      ...        0 min,  0.002 sec (  0.088%)
 single point calculation       ...        0 min,  1.782 sec ( 94.111%)
 optimization log               ...        0 min,  0.004 sec (  0.191%)
 hessian update                 ...        0 min,  0.004 sec (  0.216%)
 rational function              ...        0 min,  0.003 sec (  0.143%)

================
 final structure:
================
12
 xtb: 6.2.3 (830e466)
C         0.38463250623133    0.78221851016296   -2.94829845350682
C         0.34322787582307    0.62058751206259   -1.45484913174133
C         1.29192177937745   -0.43708279809590   -0.97138001918998
O        -0.56642417101883    1.01696952547110   -3.63660221835589
O         1.80268126745508    3.20515937250576   -0.55117144756201
O         2.36691070823263   -0.67093220061194   -1.44655364356095
H         1.66772618610804    4.07864238976046   -0.92542846253146
H         2.75033640240998    3.06315999354102   -0.49121654161576
H         1.39879662914508    0.66033460014597   -3.36932642289684
H         0.91379589369805   -1.00971071522755   -0.10302872629336
H        -0.67433756733910    0.45887555064331   -1.10076294394955
H         0.70973248987166    1.57137825964328   -1.03718198879098
 
 Bond Distances (Angstroems)
 ---------------------------
C1-C2=1.5027         C1-O4=1.1972         C1-H9=1.1048         C2-C1=1.5027         C2-C3=1.5008         C2-H11=1.0895        
C2-H12=1.1013        C3-C2=1.5008         C3-O6=1.1984         C3-H10=1.1068        O4-C1=1.1972         O5-H7=0.9598         
O5-H8=0.9601         O6-C3=1.1984         H7-O5=0.9598         H8-O5=0.9601         H9-C1=1.1048         H10-C3=1.1068        
H11-C2=1.0895        H12-C2=1.1013        
 C  H  Rav=1.1006 sigma=0.0067  Rmin=1.0895  Rmax=1.1068     4
 C  C  Rav=1.5018 sigma=0.0010  Rmin=1.5008  Rmax=1.5027     2
 O  H  Rav=0.9600 sigma=0.0001  Rmin=0.9598  Rmax=0.9601     2
 O  C  Rav=1.1978 sigma=0.0006  Rmin=1.1972  Rmax=1.1984     2
 
 selected bond angles (degree)
 --------------------
O4-C1-C2=124.79                H9-C1-C2=113.09                H9-C1-O4=122.12                C3-C2-C1=112.24                
H11-C2-C1=111.39               H11-C2-C3=112.40               H12-C2-C1=105.96               H12-C2-C3=106.02               
H12-C2-H11=108.40              O6-C3-C2=125.23                H10-C3-C2=113.67               H10-C3-O6=121.11               
H8-O5-H7=107.32                
 
 selected dihedral angles (degree)
 ---------------------------------
C3-C2-C1-O4=143.31            C3-C2-C1-H9=323.41            H11-C2-C1-O4= 16.27           H11-C2-C1-H9=196.37           
H12-C2-C1-O4=258.58           H12-C2-C1-H9= 78.69           O6-C3-C2-C1= 35.42            O6-C3-C2-H11=161.92           
O6-C3-C2-H12=280.18           H10-C3-C2-C1=215.19           H10-C3-C2-H11=341.68          H10-C3-C2-H12= 99.95          
 
 CMA Distance (Angstroems)
 ---------------------------
R(CMA):  3.5251
           -------------------------------------------------
          |                Final Singlepoint                |
           -------------------------------------------------

          ...................................................
          :                      SETUP                      :
          :.................................................:
          :  # basis functions                  30          :
          :  # atomic orbitals                  30          :
          :  # shells                           18          :
          :  # electrons                        36          :
          :  max. iterations                   100          :
          :  Hamiltonian                  GFN2-xTB          :
          :  restarted?                      false          :
          :  GBSA solvation                  false          :
          :  PC potential                    false          :
          :  electronic temp.          300.0000000     K    :
          :  accuracy                    1.0000000          :
          :  -> integral cutoff          0.2500000E+02      :
          :  -> integral neglect         0.1000000E-07      :
          :  -> SCF convergence          0.1000000E-05 Eh   :
          :  -> wf. convergence          0.1000000E-03 e    :
          :  Broyden damping             0.4000000          :
          ...................................................

 iter      E             dE          RMSdq      gap      omega  full diag
   1    -21.8235513 -0.218236E+02  0.104E-04    3.56       0.0  T
   2    -21.8235513 -0.480114E-10  0.406E-05    3.56     711.4  T
   3    -21.8235513 -0.127436E-10  0.227E-05    3.56    1270.8  T

   *** convergence criteria satisfied after 3 iterations ***

         #    Occupation            Energy/Eh            Energy/eV
      -------------------------------------------------------------
         1        2.0000           -0.7313943             -19.9023
       ...           ...                  ...                  ...
        12        2.0000           -0.5410446             -14.7226
        13        2.0000           -0.5231787             -14.2364
        14        2.0000           -0.5086228             -13.8403
        15        2.0000           -0.4862594             -13.2318
        16        2.0000           -0.4681320             -12.7385
        17        2.0000           -0.4258206             -11.5872
        18        2.0000           -0.4046945             -11.0123 (HOMO)
        19                         -0.2737587              -7.4494 (LUMO)
        20                         -0.2660276              -7.2390
        21                          0.0462718               1.2591
        22                          0.0792914               2.1576
        23                          0.1009282               2.7464
       ...                                ...                  ...
        30                          0.6177015              16.8085
      -------------------------------------------------------------
                  HL-Gap            0.1309357 Eh            3.5629 eV
             Fermi-level           -0.3392266 Eh           -9.2308 eV

 SCC (total)                   0 d,  0 h,  0 min,  0.003 sec
 SCC setup                      ...        0 min,  0.000 sec (  3.746%)
 Dispersion                     ...        0 min,  0.000 sec (  1.568%)
 integral evaluation            ...        0 min,  0.000 sec ( 17.736%)
 zeroth order Hamiltonian       ...        0 min,  0.000 sec (  2.488%)
 iterations                     ...        0 min,  0.001 sec ( 27.142%)
 molecular gradient             ...        0 min,  0.001 sec ( 37.313%)
 printout                       ...        0 min,  0.000 sec (  2.716%)

         :::::::::::::::::::::::::::::::::::::::::::::::::::::
         ::                     SUMMARY                     ::
         :::::::::::::::::::::::::::::::::::::::::::::::::::::
         :: total energy             -21.614991743686 Eh    ::
         :: gradient norm              0.000935273496 Eh/a0 ::
         :: HOMO-LUMO gap              3.562941894332 eV    ::
         ::.................................................::
         :: SCC energy               -21.823551310974 Eh    ::
         :: -> isotropic ES            0.072298576714 Eh    ::
         :: -> anisotropic ES         -0.001307375755 Eh    ::
         :: -> anisotropic XC          0.003223680905 Eh    ::
         :: -> dispersion             -0.005397204279 Eh    ::
         :: repulsion energy           0.208541206186 Eh    ::
         :: add. restraining           0.000000000000 Eh    ::
         :::::::::::::::::::::::::::::::::::::::::::::::::::::

           -------------------------------------------------
          |                Property Printout                |
           -------------------------------------------------

    * Orbital Energies and Occupations

         #    Occupation            Energy/Eh            Energy/eV
      -------------------------------------------------------------
         1        2.0000           -0.7313943             -19.9023
       ...           ...                  ...                  ...
         6        2.0000           -0.5993748             -16.3098
         7        2.0000           -0.5932380             -16.1428
         8        2.0000           -0.5813511             -15.8194
         9        2.0000           -0.5687903             -15.4776
        10        2.0000           -0.5547681             -15.0960
        11        2.0000           -0.5446801             -14.8215
        12        2.0000           -0.5410446             -14.7226
        13        2.0000           -0.5231787             -14.2364
        14        2.0000           -0.5086228             -13.8403
        15        2.0000           -0.4862594             -13.2318
        16        2.0000           -0.4681320             -12.7385
        17        2.0000           -0.4258206             -11.5872
        18        2.0000           -0.4046945             -11.0123 (HOMO)
        19                         -0.2737587              -7.4494 (LUMO)
        20                         -0.2660276              -7.2390
        21                          0.0462718               1.2591
        22                          0.0792914               2.1576
        23                          0.1009282               2.7464
        24                          0.1401916               3.8148
        25                          0.2027809               5.5179
        26                          0.2213317               6.0227
        27                          0.2276610               6.1950
        28                          0.2553467               6.9483
        29                          0.6065556              16.5052
        30                          0.6177015              16.8085
      -------------------------------------------------------------
                  HL-Gap            0.1309357 Eh            3.5629 eV
             Fermi-level           -0.3392266 Eh           -9.2308 eV

     #   Z        covCN         q      C6AA      α(0)
     1   6 C      2.759     0.222    23.326     7.909
     2   6 C      3.802    -0.126    22.905     6.814
     3   6 C      2.759     0.217    23.413     7.924
     4   8 O      0.856    -0.317    20.091     6.010
     5   8 O      1.611    -0.569    24.456     6.675
     6   8 O      0.856    -0.321    20.171     6.022
     7   1 H      0.805     0.292     0.746     1.357
     8   1 H      0.805     0.293     0.743     1.354
     9   1 H      0.922     0.043     2.411     2.428
    10   1 H      0.922     0.030     2.588     2.516
    11   1 H      0.925     0.081     1.966     2.193
    12   1 H      0.923     0.155     1.358     1.822

 Mol. C6AA /au·bohr⁶  :       1274.150540
 Mol. C8AA /au·bohr⁸  :      27421.160382
 Mol. α(0) /au        :         53.021504


Wiberg/Mayer (AO) data.
largest (>0.10) Wiberg bond orders for each atom
          total WBO             WBO to atom ...
     1  C   3.916        O    4 1.925    C    2 1.001    H    9 0.930
     2  C   3.992        C    3 1.007    C    1 1.001    H   11 0.965    H   12 0.859
     3  C   3.920        O    6 1.918    C    2 1.007    H   10 0.931
     4  O   2.108        C    1 1.925
     5  O   1.859        H    8 0.913    H    7 0.912
     6  O   2.102        C    3 1.918
     7  H   0.915        O    5 0.912
     8  H   0.914        O    5 0.913
     9  H   0.998        C    1 0.930
    10  H   0.999        C    3 0.931
    11  H   0.993        C    2 0.965
    12  H   0.976        C    2 0.859

molecular dipole:
                 x           y           z       tot (Debye)
 q only:        0.285       0.825       0.826
   full:        0.466       0.983       0.966       3.698
molecular quadrupole (traceless):
                xx          xy          yy          xz          yz          zz
 q only:       -0.007      10.365      10.610      -2.965      -1.974     -10.602
  q+dip:        0.029      14.162      13.444      -4.795      -2.804     -13.473
   full:       -0.573      14.516      14.492      -4.219      -2.265     -13.919

           -------------------------------------------------
          |                Geometry Summary                 |
           -------------------------------------------------

      molecular mass/u    :       90.0780670
   center of mass at/Å    :        0.9850055       0.8582424      -1.7960050
  moments of inertia/u·Å² :        0.1833088E+03   0.2193974E+03   0.3545457E+03
rotational constants/cm⁻¹ :        0.9196302E-01   0.7683605E-01   0.4754713E-01

 * 6 selected distances

     #   Z        #   Z                                     value/Å
     1   6 C      4   8 O                                 1.1972380
     3   6 C      6   8 O                                 1.1983642 (max)
     5   8 O      7   1 H                                 0.9598197 (min)
     5   8 O      8   1 H                                 0.9601087
     2   6 C     11   1 H                                 1.0894803
     2   6 C     12   1 H                                 1.1012604

 * 3 distinct bonds (by element types)

   Z      Z             #   av. dist./Å        max./Å        min./Å
   1 H    6 C           2     1.0953703     1.1012604     1.0894803
   1 H    8 O           2     0.9599642     0.9601087     0.9598197
   6 C    8 O           2     1.1978011     1.1983642     1.1972380


optimized geometry written to: xtbopt.xyz


           -------------------------------------------------
          | TOTAL ENERGY              -21.614991743686 Eh   |
          | GRADIENT NORM               0.000935273496 Eh/α |
          | HOMO-LUMO GAP               3.562941894332 eV   |
           -------------------------------------------------

------------------------------------------------------------------------
 * finished run on 2020/12/23 at 21:40:57.160     
------------------------------------------------------------------------
 total:
 * wall-time:     0 d,  0 h,  0 min,  2.259 sec
 *  cpu-time:     0 d,  0 h,  0 min,  9.257 sec
 * ratio c/w:     4.097 speedup
 SCF:
 * wall-time:     0 d,  0 h,  0 min,  0.095 sec
 *  cpu-time:     0 d,  0 h,  0 min,  0.316 sec
 * ratio c/w:     3.320 speedup
 ANC optimizer:
 * wall-time:     0 d,  0 h,  0 min,  1.899 sec
 *  cpu-time:     0 d,  0 h,  0 min,  7.637 sec
 * ratio c/w:     4.021 speedup

