12
 energy: -21.542892029157 gnorm: 0.131942994598 xtb: 6.2.3 (830e466)
C         1.76309000000000    2.35854000000000   -2.67877000000000
C         0.06252000000000    0.63352000000000   -0.57725000000000
C         1.13553000000000   -0.38972000000000   -0.79982000000000
O         0.48063000000000    1.96345000000000   -2.26276000000000
O         0.50987000000000    1.91797000000000   -0.93947000000000
O         2.20964000000000   -0.29203000000000   -0.22760000000000
H         1.82544000000000    3.46631000000000   -2.71468000000000
H         2.56859000000000    1.94610000000000   -2.02872000000000
H         1.94256000000000    1.95315000000000   -3.69548000000000
H         0.95972000000000   -1.22211000000000   -1.47302000000000
H        -0.86134000000000    0.36174000000000   -1.13771000000000
H        -0.20725000000000    0.64269000000000    0.49949000000000
12
 energy: -21.554116138914 gnorm: 0.049905163221 xtb: 6.2.3 (830e466)
C         1.78545527337576    2.37078343126226   -2.70585754020087
C         0.03996848388250    0.61015939752465   -0.55696774216193
C         1.14282843279301   -0.40536820999930   -0.76251945371526
O         0.49862639969496    1.97642593108603   -2.29367681433926
O         0.45812348958630    1.90805241744053   -0.91338379491238
O         2.22348314084073   -0.29577896421790   -0.24056509662289
H         1.86576510983483    3.46508058658801   -2.71360798791965
H         2.55432678050295    1.95468258891594   -2.04108696309278
H         1.94221088163073    1.97901432838763   -3.71733952858492
H         0.95651108508508   -1.21939395751674   -1.47435129218077
H        -0.86674217259931    0.34868179205494   -1.12837682066799
H        -0.21155690462753    0.64727065847394    0.51194303439869
12
 energy: -21.556392138115 gnorm: 0.013283459771 xtb: 6.2.3 (830e466)
C         1.80516452270165    2.38696034999518   -2.71343402527746
C         0.02460641154460    0.59593512840371   -0.55330246967990
C         1.16671714855063   -0.39093268967021   -0.77310388619044
O         0.51210747299296    1.98591454001675   -2.32082412436659
O         0.40924255589149    1.90659360240840   -0.90390868650102
O         2.23130332346095   -0.30575982163172   -0.24076693300683
H         1.89642420121503    3.47499782398447   -2.70521869019376
H         2.55985733778164    1.95161851038877   -2.05834795373602
H         1.93082525031148    2.00706641244414   -3.72517552968490
H         0.92542184974026   -1.24399110774719   -1.43648705007987
H        -0.86873644389874    0.31380353847789   -1.11941697771069
H        -0.20393363029192    0.65740371292982    0.51419632642748
12
 energy: -21.556837168440 gnorm: 0.010102299209 xtb: 6.2.3 (830e466)
C         1.81531732696379    2.38887049777789   -2.71242679366023
C         0.01485805303066    0.59187883519522   -0.54916654023681
C         1.15562860637625   -0.40632467109804   -0.74317819532170
O         0.52058870413731    1.97222867008431   -2.33898645611922
O         0.38835968149500    1.90198590889183   -0.91306777526769
O         2.24713705477483   -0.28537863143438   -0.26863925851164
H         1.90654525651561    3.47777153277903   -2.68248415605010
H         2.57157236078774    1.93855559425504   -2.06891103580492
H         1.93383834514257    2.02943900934195   -3.73275122300227
H         0.91691881523879   -1.23493665846923   -1.44075020954871
H        -0.87661566544840    0.28626655067089   -1.10434482376102
H        -0.20514853901413    0.67925336200548    0.51891646728431
12
 energy: -21.557112968296 gnorm: 0.005889267156 xtb: 6.2.3 (830e466)
C         1.81611033982964    2.39004955552699   -2.71262766383632
C         0.01588151131694    0.59368543800903   -0.55158703072395
C         1.15656815677476   -0.40303561131696   -0.74724183928271
O         0.52286064773793    1.96392125363762   -2.34706635898754
O         0.38552909380664    1.90084098539983   -0.92375024660947
O         2.24792908855244   -0.27899389617188   -0.27393395555232
H         1.90615244517152    3.48008894692219   -2.65914348934968
H         2.57593299286291    1.92802443583622   -2.07857250788627
H         1.93670896555249    2.05222209094810   -3.74260184517975
H         0.90660746879087   -1.25096246180154   -1.41614271139344
H        -0.87788706646961    0.27850620413245   -1.10029450096029
H        -0.20339364392652    0.68526305887793    0.51717214976174
12
 energy: -21.557527683770 gnorm: 0.008497728875 xtb: 6.2.3 (830e466)
C         1.82197963280361    2.39336854152612   -2.71161523787398
C         0.01509067395947    0.59708504615583   -0.55632041895170
C         1.15469978074043   -0.40069777415579   -0.74653033680558
O         0.53500368470703    1.93295695935820   -2.37228056292537
O         0.37241693114518    1.89612828423078   -0.95312468581491
O         2.25467920203590   -0.25732149289986   -0.29863040504255
H         1.90270238620650    3.48307244968239   -2.59507519296203
H         2.59242457946898    1.90058337425555   -2.10852924601732
H         1.94438270370437    2.11820520267313   -3.76493841976824
H         0.87991414963423   -1.28871607697666   -1.35483396448312
H        -0.88430973015214    0.25951325905467   -1.08689777010973
H        -0.19998399425354    0.70543222709563    0.51298624075456
12
 energy: -21.557841661176 gnorm: 0.012571733025 xtb: 6.2.3 (830e466)
C         1.82997016265826    2.39631568776678   -2.70931551527842
C         0.01198658224790    0.59982982531525   -0.56034954643583
C         1.14992691166090   -0.40068572908116   -0.74300060861715
O         0.55188963083891    1.89706133480258   -2.39703899535721
O         0.35803667159146    1.89116189791032   -0.98121018824613
O         2.26249431068154   -0.23456049355826   -0.33345109274500
H         1.89462377818437    3.48102154632832   -2.53609755109944
H         2.61154312973019    1.88167262337838   -2.13729693406792
H         1.95312044522779    2.18025682152806   -3.77857909470443
H         0.85386045673754   -1.32230858509097   -1.29501543512981
H        -0.89273135730602    0.24578693157725   -1.07360400805598
H        -0.19572072225280    0.72405813912345    0.50916896973732
12
 energy: -21.558258840953 gnorm: 0.012843692595 xtb: 6.2.3 (830e466)
C         1.84057246210488    2.39796970425913   -2.70529945462953
C         0.00623321496230    0.60269504430144   -0.56470844675937
C         1.14176990645524   -0.40127873456333   -0.73848113452217
O         0.57623939013804    1.85306404122958   -2.42165498532510
O         0.34280432758837    1.88538961968127   -1.01081613479827
O         2.26994012739438   -0.20861500250854   -0.38423463257971
H         1.87944409037799    3.47073248338296   -2.47646937830993
H         2.63597074967313    1.87071448106479   -2.16737144017279
H         1.96249306355836    2.24289887823321   -3.78281678475571
H         0.82812349795175   -1.35275353257060   -1.22850774996680
H        -0.90400424034752    0.23735389634371   -1.06007116416303
H        -0.19058658985688    0.74143912114637    0.50464130598242
12
 energy: -21.558660001464 gnorm: 0.005837599696 xtb: 6.2.3 (830e466)
C         1.85052784732346    2.39704683071080   -2.70409339170054
C        -0.00153616456372    0.60360079388458   -0.56870513538309
C         1.13360215620960   -0.40250749736586   -0.72992118308953
O         0.60131073947888    1.81885076074816   -2.43564455403847
O         0.33428991801980    1.87966762081243   -1.03083778958868
O         2.27128328633929   -0.18881558576236   -0.42917463950633
H         1.86534525155364    3.45438125546807   -2.42862561067815
H         2.65894751857068    1.86434569881987   -2.19611020955215
H         1.96078991267845    2.29246648447622   -3.78341295690607
H         0.81777547310532   -1.36735102488052   -1.17282371393181
H        -0.91290252813553    0.23630331645544   -1.05599872489491
H        -0.19043341057983    0.75162134663318    0.49955790926977
12
 energy: -21.558634539030 gnorm: 0.027865275693 xtb: 6.2.3 (830e466)
C         1.86740178198900    2.40072738924479   -2.70470033798579
C        -0.01430450079601    0.60200394473549   -0.57556172138920
C         1.12237638769308   -0.40596494564850   -0.71680515977645
O         0.63663306789351    1.77187611737617   -2.46093404579389
O         0.31939327700115    1.86957266786534   -1.06346667484379
O         2.28283530997274   -0.14821989755571   -0.50985705867199
H         1.85398607123850    3.43967233312812   -2.34572225217840
H         2.69472895425503    1.85079948030758   -2.24165166076293
H         1.96108151432008    2.38133421902214   -3.79569673633796
H         0.78488259740277   -1.41540995227708   -1.06167443185803
H        -0.92596346331389    0.22213910279146   -1.05154733512262
H        -0.19405099765589    0.77107954101020    0.49182741472107
12
 energy: -21.559031159873 gnorm: 0.005402978031 xtb: 6.2.3 (830e466)
C         1.86294205721019    2.40405046497878   -2.70850891215622
C        -0.01093791789059    0.59958684984970   -0.57591360561779
C         1.12552804889492   -0.40827398344932   -0.71593945360558
O         0.62976300471200    1.79093019284091   -2.44815379011566
O         0.33038990510191    1.87124802002463   -1.05101781614333
O         2.27328149942943   -0.16756110833175   -0.48839351972318
H         1.85958015066929    3.44155895942915   -2.37104937941902
H         2.68975360070768    1.86266959353324   -2.23941374403644
H         1.95077636456482    2.36500917112152   -3.79212192298373
H         0.79590248684524   -1.40882095518933   -1.07234003620828
H        -0.91875152734021    0.22758523939201   -1.06333813923761
H        -0.19922767290462    0.76162755580044    0.49040031924685
12
 energy: -21.559209766350 gnorm: 0.006297845736 xtb: 6.2.3 (830e466)
C         1.86678698351198    2.40852597844260   -2.71091058910660
C        -0.01370238050088    0.59647154453968   -0.57845529464370
C         1.12204887449103   -0.41221253223625   -0.70726734416407
O         0.63911822449373    1.78342821760183   -2.44956433508982
O         0.33369520335204    1.86652946939071   -1.05625103511660
O         2.27447049054912   -0.16062770054166   -0.51619419862136
H         1.86106534242311    3.43728035943723   -2.35084810231274
H         2.70273645296853    1.86303412646412   -2.26092034876796
H         1.94345191049424    2.39429286247302   -3.79497578271556
H         0.78834614201349   -1.42383359156659   -1.02435765315535
H        -0.91815074885521    0.22382173708927   -1.07148624221944
H        -0.21086649494112    0.76289952890602    0.48544092591321
12
 energy: -21.559393420886 gnorm: 0.025130669030 xtb: 6.2.3 (830e466)
C         1.88053016314396    2.42569052939730   -2.71968054513477
C        -0.01933665424140    0.58600958750502   -0.59053297868927
C         1.11416737906544   -0.42496906591009   -0.67531984150427
O         0.66880332264958    1.76211484088982   -2.45796615767965
O         0.34206700352138    1.85396212984763   -1.07305445411404
O         2.28217273362544   -0.13784673255608   -0.62268519329164
H         1.87458554463729    3.42528682403452   -2.26957662756202
H         2.74257280592719    1.85495443529673   -2.34204608010490
H         1.91185862480567    2.50428125505916   -3.80899210944463
H         0.75737656713659   -1.48201654745875   -0.83093417244811
H        -0.90866791971589    0.20664476946906   -1.10842170616146
H        -0.25712957055517    0.76549797442566    0.46341986613479
12
 energy: -21.559795276082 gnorm: 0.009101345059 xtb: 6.2.3 (830e466)
C         1.87348863650966    2.42392873469123   -2.72054102931700
C        -0.01417285297623    0.58506359083510   -0.58572977058930
C         1.11934714446414   -0.42379706940039   -0.67669342706138
O         0.65060921945622    1.78468882545395   -2.44717354897159
O         0.34873236759460    1.85783142799244   -1.05545827409447
O         2.28170736784746   -0.15462455052542   -0.59595361186868
H         1.88643503845364    3.43354383301651   -2.30382306898263
H         2.72406914860923    1.85692077704002   -2.32450146082666
H         1.91056947322895    2.46522582519752   -3.80599926073637
H         0.77180643421694   -1.45353947374406   -0.87314672962275
H        -0.90011153555727    0.20870239752976   -1.11462416737625
H        -0.26348044184725    0.75566568191335    0.46785434944710
12
 energy: -21.560099295790 gnorm: 0.012189914900 xtb: 6.2.3 (830e466)
C         1.87229442182091    2.43240966880255   -2.72100985304053
C        -0.00865614021939    0.58200043632607   -0.59370353652233
C         1.12274727815841   -0.42781897070011   -0.67122224092196
O         0.64536223410052    1.80506487886337   -2.43997912196120
O         0.35755302199038    1.86059258832686   -1.04540936258331
O         2.28592377820948   -0.16001176007684   -0.62697407401296
H         1.90050047120544    3.43540677133945   -2.30755203970373
H         2.72008870168125    1.86008028225221   -2.33663859437591
H         1.89674205077282    2.47468195698585   -3.80045905961783
H         0.76287189651228   -1.47279293547724   -0.80630182539173
H        -0.88504451194490    0.20912219573987   -1.14197392902305
H        -0.28138320228712    0.74087488761796    0.45543363715456
12
 energy: -21.560414967375 gnorm: 0.021882967987 xtb: 6.2.3 (830e466)
C         1.86879031237481    2.45094410075211   -2.72763204507990
C         0.00523968938194    0.57351234511971   -0.61920620967289
C         1.13340991666839   -0.43842045644914   -0.63698585618481
O         0.62959628021366    1.85964955304395   -2.42594471231121
O         0.38470796557082    1.86412112034594   -1.02236969123052
O         2.29353052002977   -0.16819503127223   -0.70486081640687
H         1.95034076709990    3.43826677611645   -2.26846387539216
H         2.71284623691307    1.82097729599016   -2.40840800172544
H         1.83805447705782    2.54584997981570   -3.81539364145169
H         0.75604419444593   -1.51535716855701   -0.59115924954225
H        -0.83718232708102    0.20556555976227   -1.22989978271103
H        -0.34637803267494    0.70269592533208    0.41453388170879
12
 energy: -21.561025452226 gnorm: 0.010158896058 xtb: 6.2.3 (830e466)
C         1.86270421833365    2.44297842658613   -2.72387898009788
C         0.00688682932503    0.57494098029482   -0.61485204060568
C         1.13601954515396   -0.43350589598464   -0.64115726288511
O         0.61143346344556    1.87743676033340   -2.41992695691846
O         0.38583950641023    1.86666645936475   -1.00923769176208
O         2.30140593693348   -0.16707068966443   -0.70596567677400
H         1.95793273042664    3.43997892168579   -2.29307413295448
H         2.68931022302807    1.81518443477154   -2.38266829000903
H         1.84961769809889    2.50670179693220   -3.80754363301861
H         0.76625079231633   -1.48665109728100   -0.62480389077503
H        -0.83105997601842    0.20970175398494   -1.23072664558244
H        -0.34734096745332    0.69324814897647    0.41804520138283
12
 energy: -21.561208553441 gnorm: 0.014806527429 xtb: 6.2.3 (830e466)
C         1.85060663757574    2.44128972768612   -2.72222779065410
C         0.01653186614744    0.57689232498843   -0.62432853281794
C         1.14568603640699   -0.43132070549710   -0.63816213877907
O         0.57976862017491    1.92395400862753   -2.41138623370416
O         0.39423007904047    1.87411422711427   -0.99059685617028
O         2.30465054049907   -0.17599242676308   -0.70539301961260
H         1.98284506088935    3.44617019100067   -2.30364680951908
H         2.65261229032061    1.78095875173259   -2.37877743700877
H         1.84187992407672    2.49298287920091   -3.81039080576258
H         0.78222944905272   -1.47633742733783   -0.59496078795643
H        -0.80647221288910    0.21787608869971   -1.25912008951424
H        -0.35556829129481    0.66902236054776    0.40320050149926
12
 energy: -21.561127713210 gnorm: 0.029205421604 xtb: 6.2.3 (830e466)
C         1.83898683989154    2.44422730039547   -2.72047638268677
C         0.02742041802206    0.57344380194692   -0.63947554595405
C         1.15542874358344   -0.43240763487534   -0.62344535175169
O         0.54340701635330    1.98823064754551   -2.39600209859220
O         0.41046169418180    1.88016337539751   -0.96370179957473
O         2.32259594770557   -0.17732539282183   -0.78442178096931
H         2.02838169839547    3.44497368468806   -2.30458591098083
H         2.60931160460864    1.74498755891432   -2.38903578481982
H         1.82581995350088    2.49640753521000   -3.80550262290427
H         0.78741097812959   -1.47375897334611   -0.46561675968669
H        -0.76481757361217    0.21984062223392   -1.31964816470658
H        -0.39540732075995    0.63082747471157    0.37612220262695
12
 energy: -21.561496422362 gnorm: 0.007283495023 xtb: 6.2.3 (830e466)
C         1.84572616902007    2.44034568437913   -2.71982764707670
C         0.02019623772525    0.57668075601899   -0.63237779588118
C         1.14905050011662   -0.43136539905709   -0.63601247731190
O         0.56720175507616    1.95031623473513   -2.40480709139560
O         0.39777114172751    1.87655443653688   -0.98483308010442
O         2.31267285888596   -0.17561790528801   -0.74864129258922
H         1.99690906879208    3.43833995536813   -2.30115541770186
H         2.62974300826299    1.76512173738760   -2.37568608176291
H         1.84152755035453    2.49874811978803   -3.80812889051165
H         0.78386281060117   -1.47589960877271   -0.53294000992880
H        -0.78992004319565    0.22025510097718   -1.28096559208449
H        -0.36574105736655    0.65613088792673    0.38958537634875
12
 energy: -21.561570459365 gnorm: 0.004727544460 xtb: 6.2.3 (830e466)
C         1.84273574290197    2.44139067572442   -2.71952742870704
C         0.02175506254992    0.57602196105804   -0.63542686592988
C         1.15341974030527   -0.42986381366859   -0.63647864412658
O         0.55916619298315    1.96504905751386   -2.40211705497535
O         0.39502155946137    1.87967555899220   -0.98268391476959
O         2.31503668416264   -0.17641380727210   -0.75662054346097
H         2.00922044659828    3.43783460756051   -2.29769139432683
H         2.62184383499477    1.75299045479072   -2.37840730029153
H         1.83595850765439    2.49648505077593   -3.80662262457589
H         0.78868925687406   -1.47327019086501   -0.51617270019475
H        -0.78403620541460    0.21615491829671   -1.28960227366643
H        -0.36981082307108    0.65355552709330    0.38556074502486
12
 energy: -21.561687387046 gnorm: 0.003287756420 xtb: 6.2.3 (830e466)
C         1.84493515794723    2.44260025900534   -2.71614923657971
C         0.01933543580609    0.57424946203279   -0.63779619072656
C         1.15248547501409   -0.43048087312569   -0.64792926995211
O         0.55948693706565    1.96661994286046   -2.40521937182137
O         0.38606362941882    1.87879415853245   -0.98919794182855
O         2.31199964711844   -0.17807247998720   -0.78614764870442
H         2.00958561614333    3.43771359073680   -2.29435536043493
H         2.62225881783510    1.75687344686156   -2.36777931357669
H         1.84584809163390    2.49510050574739   -3.80381882350799
H         0.79193933976431   -1.46888173977551   -0.48936123175681
H        -0.79108725036322    0.21077750796916   -1.28424323259563
H        -0.36385089738360    0.65431621914245    0.38620762148478
12
 energy: -21.561858487185 gnorm: 0.009051579485 xtb: 6.2.3 (830e466)
C         1.85207613861099    2.44381463906634   -2.70420415449295
C         0.01270913971812    0.57106211294883   -0.64136624342066
C         1.15219255310920   -0.42756950533710   -0.65907688592993
O         0.56047339176332    1.96665388250831   -2.41681364246591
O         0.35608334191846    1.87809767142514   -1.01050609675839
O         2.30266697460663   -0.18107903044715   -0.88591256131630
H         2.00718185824577    3.43810809682901   -2.28492699105574
H         2.62389535679061    1.76599998028606   -2.33182578651531
H         1.87839473735014    2.48662571252878   -3.79321131213085
H         0.80035867020419   -1.45557261845872   -0.43388035390424
H        -0.80940999822674    0.18951752464972   -1.26400212466960
H        -0.34762216409056    0.66395153400079    0.38993615265993
12
 energy: -21.561916735891 gnorm: 0.003926617921 xtb: 6.2.3 (830e466)
C         1.85278653540474    2.44345133269436   -2.70114342540545
C         0.01400945534110    0.57210996735727   -0.64283256398861
C         1.15186403982521   -0.42702618189143   -0.66370901720277
O         0.55976447414812    1.96634711086283   -2.41824443346853
O         0.35317272503463    1.88017577301108   -1.01141151521902
O         2.29910730804025   -0.18439072293264   -0.89885373529390
H         2.00446779126997    3.44143522430015   -2.28486950717881
H         2.62258669602067    1.76376872456323   -2.32626798844798
H         1.88172102736592    2.48373595368587   -3.78936735739910
H         0.80263795570104   -1.45264569748399   -0.42376388642509
H        -0.80795747577970    0.18824112372003   -1.26389486744623
H        -0.34516053237181    0.66440739211325    0.38856829747555
12
 energy: -21.561954521194 gnorm: 0.002108443332 xtb: 6.2.3 (830e466)
C         1.85481471792398    2.44338019922150   -2.69635187159289
C         0.01424960099007    0.57297269555707   -0.64353020048050
C         1.15142485864886   -0.42536883521461   -0.66914780404036
O         0.56019490856053    1.96415025116675   -2.42182379649721
O         0.34637592245846    1.88163328445729   -1.01479689917384
O         2.29311496468213   -0.19115540099774   -0.93462485272818
H         1.99890672693139    3.44584418965805   -2.28413424588616
H         2.62186871603184    1.76514387062394   -2.31234377307924
H         1.89216866459204    2.47854516561208   -3.78387013529468
H         0.80639557530762   -1.44585011794655   -0.40258178650252
H        -0.80816723553054    0.18407420714656   -1.26090314119321
H        -0.34234742059624    0.66624049071569    0.38831850646884
12
 energy: -21.561969455942 gnorm: 0.000937635996 xtb: 6.2.3 (830e466)
C         1.85532629617695    2.44461391060563   -2.69546972892362
C         0.01488123572770    0.57337420555265   -0.64283354338744
C         1.15072204165370   -0.42567004905418   -0.66935023325525
O         0.56160250563026    1.96207565390767   -2.42285992556862
O         0.34655602829212    1.88133996362487   -1.01480037944959
O         2.28905843102593   -0.19883524987655   -0.95116313159031
H         1.99464903085495    3.44902634316988   -2.28564337515279
H         2.62249671317155    1.76984840005050   -2.30639314659147
H         1.89650183434090    2.47670246791032   -3.78265001453539
H         0.80739326805636   -1.44277892037983   -0.39142508217704
H        -0.80636831292822    0.18364413205150   -1.26134111469748
H        -0.34381907200204    0.66626914243754    0.38813967532907
12
 energy: -21.561972630728 gnorm: 0.003387231797 xtb: 6.2.3 (830e466)
C         1.85686897777134    2.44899017871866   -2.69332151176558
C         0.01513771828777    0.57277109959657   -0.64296678003406
C         1.14839083661154   -0.42881424210146   -0.67169363768133
O         0.56519448940852    1.95881551223733   -2.42521952495751
O         0.34704735809929    1.87956239703903   -1.01678321561550
O         2.28112552599723   -0.21436265610125   -0.98972781684693
H         1.98692231809475    3.45613893231210   -2.28794429620833
H         2.62602932827863    1.78242840364028   -2.29494721694141
H         1.90561660657026    2.47508250372245   -3.78036857455575
H         0.80804072361433   -1.43903689007003   -0.35788067549012
H        -0.80577086882626    0.18172978755238   -1.26214926978823
H        -0.34560301390724    0.66630497345396    0.38721251988482
12
 energy: -21.561983102223 gnorm: 0.001119971464 xtb: 6.2.3 (830e466)
C         1.85603206237018    2.45062063339085   -2.69554140206517
C         0.01581696799138    0.57229976680345   -0.64240950049998
C         1.14779928268101   -0.43110369880816   -0.66830700648282
O         0.56630263845075    1.95886699062241   -2.42320094801505
O         0.35284523151045    1.87833590129041   -1.01409375115002
O         2.28114827244031   -0.21719731209095   -0.97903359786600
H         1.98662248587851    3.45744202929921   -2.29056479358854
H         2.62756726832588    1.78539358330845   -2.29992928682313
H         1.90127058992216    2.47699764335264   -3.78274546826028
H         0.80604259773572   -1.44136207425732   -0.36100405699075
H        -0.80366432585256    0.18444807161521   -1.26552457233755
H        -0.34878307145365    0.66486846547381    0.38656438407937
12
 energy: -21.561986111902 gnorm: 0.000698163328 xtb: 6.2.3 (830e466)
C         1.85589548270201    2.45244703176869   -2.69684614319715
C         0.01602055201033    0.57123562578549   -0.64237117347879
C         1.14698398823608   -0.43385581742937   -0.66559939673158
O         0.56769372651710    1.95901745433596   -2.42141174475711
O         0.35725583717178    1.87702936375192   -1.01250722757798
O         2.28099998613841   -0.21906319789879   -0.97254264164367
H         1.98620912537416    3.45970893841546   -2.29284494667522
H         2.62990467738421    1.78803245802510   -2.30386886120680
H         1.89768307246798    2.47850274135070   -3.78440295519216
H         0.80383371438566   -1.44349806852278   -0.36123787193165
H        -0.80272888110614    0.18594774978971   -1.26794147454263
H        -0.35075128128143    0.66410572062793    0.38578443693479
