12
 energy: -21.619898715619 gnorm: 0.085664463859 xtb: 6.2.3 (830e466)
C         0.94647000000000    1.14999000000000   -2.52212000000000
C         1.00211000000000    1.14283000000000   -0.98906000000000
C         1.84726000000000   -0.00812000000000   -0.51627000000000
O         0.12042000000000    2.18524000000000   -2.98227000000000
O         1.53617000000000    2.35463000000000   -0.51859000000000
O         2.84528000000000    0.17641000000000    0.16368000000000
H         0.81530000000000    3.03399000000000   -0.58373000000000
H         1.96673000000000    1.30200000000000   -2.93582000000000
H         0.57909000000000    0.17161000000000   -2.90970000000000
H         1.56491000000000   -1.02250000000000   -0.78017000000000
H        -0.81495000000000    1.86448000000000   -2.88972000000000
H        -0.01978000000000    0.98903000000000   -0.57204000000000
12
 energy: -21.625190658952 gnorm: 0.034680332589 xtb: 6.2.3 (830e466)
C         0.93416992867011    1.14318813695442   -2.52241800967351
C         1.00360357688228    1.13846622298576   -0.98143148214265
C         1.86630904905343   -0.00008681128666   -0.49447070615713
O         0.10131787080863    2.17076692198624   -2.99547744832204
O         1.52380780332677    2.34829504863894   -0.49611916094026
O         2.85189749925429    0.14942078231948    0.17737660059502
H         0.85224975380734    3.04275163262374   -0.63302360511426
H         1.94105894189356    1.34043621109599   -2.91464702775459
H         0.60366661972858    0.15830191343064   -2.89627363789820
H         1.55277881782184   -1.00640582196337   -0.80061525556075
H        -0.82264994815350    1.88550188548053   -2.89065481800524
H        -0.01919991309333    0.96895387773429   -0.58805544902640
12
 energy: -21.627054306153 gnorm: 0.014488193870 xtb: 6.2.3 (830e466)
C         0.94129028712942    1.14432932580029   -2.52116074389634
C         1.00302032436987    1.13765354985379   -0.97168405021482
C         1.88464661571071    0.00415006905589   -0.49211965630232
O         0.08071937902185    2.15073599128036   -2.99239033982941
O         1.50572409638855    2.34712360187677   -0.47552158077147
O         2.85088505770693    0.11482931405235    0.19418661618205
H         0.88643041944122    3.06153655626786   -0.70587914378107
H         1.93190659093783    1.39011711679083   -2.91058300869192
H         0.63972611704306    0.15466493236517   -2.88269222283783
H         1.51287094722780   -0.99132441123790   -0.82159900303692
H        -0.83159329464813    1.88082594208501   -2.86923503240940
H        -0.01661654032911    0.94494801180957   -0.58713183441055
12
 energy: -21.627503564230 gnorm: 0.024069979091 xtb: 6.2.3 (830e466)
C         0.94812502826738    1.14665687007152   -2.51236465871643
C         1.00136606987276    1.14038732483505   -0.96023330670873
C         1.87295925255639    0.00004402773533   -0.47272602801233
O         0.06860477905701    2.13564017108949   -2.98732580686497
O         1.48989731130515    2.35181054573692   -0.46094635238850
O         2.85217793949494    0.08645539913414    0.19499171341330
H         0.91243764065750    3.07979752475839   -0.77909356234986
H         1.93250627517856    1.42078262263138   -2.89551156891641
H         0.67162786173515    0.15138732209723   -2.87522623940465
H         1.50040756841107   -0.98195957940300   -0.86310807796419
H        -0.84197492078513    1.87036690934934   -2.84002891581895
H        -0.01912480575077    0.93822086196422   -0.58423719626827
12
 energy: -21.628037057090 gnorm: 0.014027492816 xtb: 6.2.3 (830e466)
C         0.95455162588558    1.15243357741238   -2.51148215141153
C         1.00619193773511    1.14385424778661   -0.96060687956819
C         1.87534778567564   -0.00257713465508   -0.48167614097152
O         0.05767179261471    2.12639339236991   -2.98469901387690
O         1.47908835375979    2.35947088743451   -0.46103241497393
O         2.84697226741335    0.06668764460478    0.20132882088842
H         0.92701737510457    3.08018894702258   -0.81559438654429
H         1.93461037434234    1.44814014809138   -2.89033914558856
H         0.70081556943875    0.15197392082914   -2.88079218075139
H         1.47287428060380   -0.97750164770918   -0.85646144053860
H        -0.85225758031558    1.85970630102294   -2.80805368658059
H        -0.01387378225806    0.93081971579002   -0.58640138008291
12
 energy: -21.628464175178 gnorm: 0.009205055305 xtb: 6.2.3 (830e466)
C         0.96064142054351    1.16163005147081   -2.50722954960729
C         1.00573546361492    1.14380032021269   -0.95960628464174
C         1.86755436983616   -0.00846009239860   -0.48388741895784
O         0.04616428818582    2.11957785394578   -2.97488603606822
O         1.46573880256086    2.36152316073535   -0.45735076539643
O         2.83878159561237    0.05364099459897    0.20070135508390
H         0.95469952918687    3.07769731702203   -0.86976756446123
H         1.93589619801124    1.47864317633861   -2.88241030934673
H         0.72996584100554    0.16004526119043   -2.89194817234272
H         1.45839715924204   -0.97687169641379   -0.84868339886717
H        -0.85811859909956    1.84277448895269   -2.77221334011184
H        -0.01644606869977    0.92558916434504   -0.58852851528270
12
 energy: -21.628767346338 gnorm: 0.009045200751 xtb: 6.2.3 (830e466)
C         0.96310195741370    1.17157521678201   -2.50138136526214
C         1.00144260204731    1.14105017831093   -0.95756074694286
C         1.85853137759105   -0.01391649355519   -0.48276549274217
O         0.03342912521328    2.11659557110139   -2.96112509460106
O         1.45089059432242    2.35914739167834   -0.44746419536148
O         2.83458592940646    0.04797358680075    0.19692013634417
H         0.99404204983872    3.07185012677969   -0.92738901988211
H         1.93462635241566    1.50839378123779   -2.86979609591013
H         0.75314819714761    0.17102808240453   -2.90226415060034
H         1.45153466206713   -0.97902963745648   -0.84092457524257
H        -0.86151651773485    1.82399390695981   -2.74905347856854
H        -0.02480632972849    0.92092828895643   -0.59300592123078
12
 energy: -21.628768849596 gnorm: 0.017536288196 xtb: 6.2.3 (830e466)
C         0.96183630473150    1.17711746972144   -2.49900025407872
C         0.99345267003092    1.13720316367237   -0.95805743497123
C         1.84920758565510   -0.01523326387583   -0.47849180369242
O         0.02952364711847    2.11888298979664   -2.95487484593636
O         1.43866989523387    2.35624054005449   -0.44364758590970
O         2.83600479743706    0.05987876082885    0.18593027359219
H         1.02722349910236    3.05660148724006   -0.94446520209750
H         1.93276057476125    1.51838690227150   -2.86125546630607
H         0.75902698452007    0.18031804813192   -2.90920031804601
H         1.45610538870195   -0.98423993380373   -0.82979176408700
H        -0.85907620144713    1.81460954122395   -2.74586143891613
H        -0.03572514584543    0.91982429473832   -0.59709415955105
12
 energy: -21.628944158341 gnorm: 0.014908913703 xtb: 6.2.3 (830e466)
C         0.96250184837229    1.18512746469215   -2.49384586754029
C         0.98292834072654    1.12949355566978   -0.95324726465057
C         1.84728095770348   -0.01816910040955   -0.47796216982199
O         0.02078354874501    2.12109501358359   -2.94318393837501
O         1.41372986249645    2.34894370803359   -0.42172542429733
O         2.83780275416878    0.06535251122963    0.18027771341222
H         1.07680161294777    3.05293592405790   -1.01087528767682
H         1.93118547744707    1.54264058906779   -2.84690314799935
H         0.77411824554492    0.19080103558661   -2.91434624985654
H         1.45452592420035   -0.99201158146082   -0.82089762157423
H        -0.86280773977072    1.80857111037377   -2.72872911795056
H        -0.04984083258194    0.90480976957555   -0.60437162366954
12
 energy: -21.629092267307 gnorm: 0.003150589359 xtb: 6.2.3 (830e466)
C         0.95998170168495    1.17653193524950   -2.49828966697602
C         0.98618788360037    1.13140163357128   -0.95451256461225
C         1.85663289889188   -0.01379372310186   -0.48132708315399
O         0.03141876705722    2.12432381011070   -2.95416900634136
O         1.42478801131732    2.35052519069649   -0.42923962684987
O         2.84224373431973    0.06963610273587    0.18265942981627
H         1.04408775514453    3.05984828399902   -0.96509970156326
H         1.93311065112438    1.51883358119546   -2.85578277813933
H         0.75517441211839    0.18052665166583   -2.90770265048511
H         1.45880846785145   -0.99092251344443   -0.82375150836723
H        -0.86091540013650    1.82597131164377   -2.74806461569635
H        -0.04250888297373    0.90670773567835   -0.60053022763149
12
 energy: -21.629163396405 gnorm: 0.002717240456 xtb: 6.2.3 (830e466)
C         0.95857410386140    1.17597845698349   -2.49691161550032
C         0.98074017892655    1.12773863605106   -0.95276800980725
C         1.85795651203393   -0.01289181803753   -0.48069619035143
O         0.03584374040659    2.12927948231304   -2.95320709928586
O         1.41343854728950    2.34797512520786   -0.42365059193954
O         2.84832870019544    0.07845767167073    0.17542048498252
H         1.05284439622198    3.05671988195629   -0.97469763446766
H         1.93364655587133    1.51461071552453   -2.85159007859755
H         0.75040108055464    0.18166590847431   -2.90804096583253
H         1.46369726652355   -0.99439335546114   -0.81822836055360
H        -0.85907602311488    1.83523964392232   -2.75002305433042
H        -0.04738505877004    0.89920965139503   -0.60141688431636
12
 energy: -21.629308623325 gnorm: 0.012330087461 xtb: 6.2.3 (830e466)
C         0.95258471897260    1.17272010663355   -2.48906989546428
C         0.95577593988936    1.11038102482238   -0.94434077524683
C         1.86627898452440   -0.00818860251676   -0.47993377143890
O         0.05957393986426    2.15561758107977   -2.94487897909477
O         1.35463854238468    2.33748750395827   -0.39878985292023
O         2.88126426572007    0.11927668857315    0.13545391829563
H         1.08884129827363    3.04038603017263   -1.02234210095525
H         1.93946486238798    1.49195558935837   -2.83075299324680
H         0.72410694367899    0.18658770147638   -2.90946765384146
H         1.48339462717215   -1.00890177486869   -0.78582802970716
H        -0.84770713026341    1.88309068228272   -2.76038554362942
H        -0.06920699260470    0.85917746902821   -0.60547432275053
12
 energy: -21.629411143960 gnorm: 0.004556929352 xtb: 6.2.3 (830e466)
C         0.95140516675825    1.16882399686254   -2.48951605580460
C         0.95589479921690    1.10935820905324   -0.94447605952742
C         1.87046824768504   -0.00588394357925   -0.48035221615519
O         0.06939230391297    2.16130457256046   -2.94664608658692
O         1.35178188967671    2.33785445096385   -0.40166716130122
O         2.88621185321702    0.12515207827006    0.13115158523091
H         1.07276713306253    3.03878145858655   -1.00900639130926
H         1.94103038669884    1.47470624856162   -2.83392340889553
H         0.71012618795468    0.18460965307892   -2.90690714278690
H         1.48947657044423   -1.00790258671325   -0.78320856108454
H        -0.84223545749200    1.89743973662115   -2.76718694201082
H        -0.06730908113518    0.85534612573410   -0.60407155976851
12
 energy: -21.629490146004 gnorm: 0.003030425407 xtb: 6.2.3 (830e466)
C         0.94991979769909    1.16576932209096   -2.48664520662494
C         0.94978484106837    1.10404844255750   -0.94209102950962
C         1.87578135827643   -0.00276183792187   -0.48084637075451
O         0.08370905292417    2.17306393684160   -2.94205961669826
O         1.32880082323058    2.33678957697166   -0.39813286337335
O         2.89952629881941    0.13821324540011    0.11418913958234
H         1.07090926176561    3.03120596205485   -1.01970713353703
H         1.94489835524711    1.45688704255998   -2.82962503554142
H         0.69357320486053    0.18626660245184   -2.90691704637083
H         1.49576951276999   -1.00830306252260   -0.76975577117138
H        -0.83222303236570    1.92007930421173   -2.76984352893374
H        -0.07143947429561    0.83833146530423   -0.60437553706725
12
 energy: -21.629591291990 gnorm: 0.004690724935 xtb: 6.2.3 (830e466)
C         0.94704620459151    1.15967749984774   -2.48033702494554
C         0.93498855285926    1.09196678607611   -0.93642735971534
C         1.88718055977188    0.00409975186863   -0.48177637530484
O         0.11468643976078    2.19774974110979   -2.93211522010823
O         1.27374019669716    2.33435124182323   -0.38914181530353
O         2.92969061274694    0.16575841181644    0.07575011380056
H         1.07132239589230    3.01450961338116   -1.05106531915889
H         1.95360086695653    1.42049580463565   -2.81827388635550
H         0.66072670504204    0.19074223588848   -2.90799236340474
H         1.50747067402331   -1.00839720616549   -0.73961128741144
H        -0.80939988932686    1.96956823966481   -2.76856623396120
H        -0.08204331901485    0.79906788005343   -0.60625322813131
12
 energy: -21.629622726737 gnorm: 0.002000245853 xtb: 6.2.3 (830e466)
C         0.94582946945668    1.15601599604814   -2.47977922701574
C         0.93104953983113    1.08806442364004   -0.93557831676853
C         1.89211823391299    0.00730857391888   -0.48241797986163
O         0.12806441446974    2.20551513727526   -2.92998760275073
O         1.25596449224404    2.33345956592727   -0.38969637095076
O         2.93752816701583    0.17509802798279    0.06505462644041
H         1.06380952225632    3.00935335616421   -1.05628787308569
H         1.95604179537287    1.40326621599662   -2.81731691758988
H         0.64659297979796    0.19194223236654   -2.90894171555159
H         1.51357018308293   -1.00632279121882   -0.73049098120013
H        -0.79800939106318    1.98982585729765   -2.76369520834250
H        -0.08354940637732    0.78606340460139   -0.60667243332324
12
 energy: -21.629643151973 gnorm: 0.002219143542 xtb: 6.2.3 (830e466)
C         0.94390191298180    1.15228091823078   -2.48001905663726
C         0.92393354878470    1.08274348206163   -0.93480159449756
C         1.89547695726399    0.01063914045013   -0.48240223890091
O         0.14202923839535    2.21299638583704   -2.93070422501965
O         1.23557987423541    2.33004947083842   -0.38720917472235
O         2.94835204007407    0.19023055869256    0.04914998026827
H         1.06178410299762    3.00375457692136   -1.06042757601756
H         1.95828000354941    1.38659394232671   -2.81441411940386
H         0.63359998765535    0.19291088342097   -2.91094092489675
H         1.52061937684121   -1.00786838623238   -0.71690021621473
H        -0.78660639399650    2.01284691417884   -2.75853558740366
H        -0.08794064878241    0.77241211327393   -0.60860526655399
12
 energy: -21.629655846380 gnorm: 0.001580681498 xtb: 6.2.3 (830e466)
C         0.94223186924016    1.14929253395896   -2.48136362993547
C         0.91837468687720    1.07791442671597   -0.93546126540799
C         1.89838036482438    0.01361761434464   -0.48285398336156
O         0.15270980442678    2.21801511659446   -2.93201187797383
O         1.21872525614212    2.32649435744229   -0.38440123868733
O         2.95298801520438    0.20459191105898    0.03929254911096
H         1.06337318858564    2.99933713448392   -1.06421977116374
H         1.95895176032306    1.37325353516370   -2.81349429323792
H         0.62309531929199    0.19377756323999   -2.91287359273641
H         1.52914710658127   -1.00983164460180   -0.70554862965663
H        -0.77717968957336    2.03316479430141   -2.74999954984071
H        -0.09178768192362    0.75996265729747   -0.61287471710937
12
 energy: -21.629659845476 gnorm: 0.000811514381 xtb: 6.2.3 (830e466)
C         0.94087247780914    1.14716059024828   -2.48234482088541
C         0.91381175004052    1.07424965393109   -0.93624926220885
C         1.89935125600924    0.01560788113809   -0.48268047961213
O         0.15898593670112    2.22044735326387   -2.93405018209025
O         1.20923046786858    2.32315888299252   -0.38298285201662
O         2.95680210394598    0.21541427958767    0.03117143346248
H         1.06543098427261    2.99700804785285   -1.06307858485485
H         1.95955957676885    1.36557631103591   -2.81230425002566
H         0.61691532326645    0.19307101253735   -2.91435256287540
H         1.53482820219190   -1.01158760913579   -0.69726832094401
H        -0.77105086894237    2.04665377496512   -2.74572516522882
H        -0.09572720993201    0.75282982158302   -0.61594495272048
