      -----------------------------------------------------------      
     |                   =====================                   |     
     |                           x T B                           |     
     |                   =====================                   |     
     |                         S. Grimme                         |     
     |          Mulliken Center for Theoretical Chemistry        |     
     |                    University of Bonn                     |     
      -----------------------------------------------------------      

   * xtb version 6.2.3 (830e466) compiled by 'ehlert@majestix' on 2020-03-16

   xtb is free software: you can redistribute it and/or modify it under
   the terms of the GNU Lesser General Public License as published by
   the Free Software Foundation, either version 3 of the License, or
   (at your option) any later version.
   
   xtb is distributed in the hope that it will be useful,
   but WITHOUT ANY WARRANTY; without even the implied warranty of
   MERCHANTABILITY or FITNESS FOR A PARTICULAR PURPOSE.  See the
   GNU Lesser General Public License for more details.
   
   Cite this work as:
   * S. Grimme, C. Bannwarth, P. Shushkov, J. Chem. Theory Comput., 2017,
     13, 1989-2009. DOI: 10.1021/acs.jctc.7b00118
   * C. Bannwarth, S. Ehlert and S. Grimme., J. Chem. Theory Comput., 2019,
     15, 1652-1671. DOI: 10.1021/acs.jctc.8b01176
   * P. Pracht, E. Caldeweyher, S. Ehlert, S. Grimme, ChemRxiv, 2019, preprint.
     DOI: 10.26434/chemrxiv.8326202.v1
   
   for DFT-D4:
   * E. Caldeweyher, C. Bannwarth and S. Grimme, J. Chem. Phys., 2017,
     147, 034112. DOI: 10.1063/1.4993215
   * E. Caldeweyher, S. Ehlert, A. Hansen, H. Neugebauer, S. Spicher,
     C. Bannwarth and S. Grimme, J. Chem. Phys., 2019, 150, 154122.
     DOI: 10.1063/1.5090222
   
   for sTDA-xTB:
   * S. Grimme and C. Bannwarth, J. Chem. Phys., 2016, 145, 054103.
     DOI: 10.1063/1.4959605
   
   in the mass-spec context:
   * V. Asgeirsson, C. Bauer and S. Grimme, Chem. Sci., 2017, 8, 4879.
     DOI: 10.1039/c7sc00601b
   
   for metadynamics refer to:
   * S. Grimme, J. Chem. Theory Comput., 2019, 155, 2847-2862
     DOI: 10.1021/acs.jctc.9b00143
   
   with help from (in alphabetical order)
   C. Bannwarth, F. Bohle, G. Brandenburg, E. Caldeweyher, M. Checinski,
   S. Dohm, S. Ehlert, S. Ehrlich, F. März, H. Neugebauer, J. Pisarek,
   P. Pracht, P. Shushkov, and S. Spicher.
   
 * started run on 2020/12/23 at 21:42:29.770     

           -------------------------------------------------
          |                Calculation Setup                |
           -------------------------------------------------

          program call               : xtb -c 0 -u 0 -a 1.0 --iterations 100 --opt normal --namespace product_23 /scratch/bell/zhao922/YARP/paper-example/potential_product/test/reaction_channel/pp_0/pp_22_1.xyz
          hostname                   : bell-fe05.rcac.purdue.edu
          calculation namespace      : product_23
          coordinate file            : /scratch/bell/zhao922/YARP/paper-example/potential_product/test/reaction_channel/pp_0/pp_22_1.xyz
          omp threads                :                    32
          number of atoms            :                    12
          number of electrons        :                    36
          charge                     :                     0
          spin                       :                   0.0
          first test random number   :      0.45384416150709

           ------------------------------------------------- 
          |                 G F N 2 - x T B                 |
          | Geometry, Frequencies, Noncovalent interactions |
          |            JCTC 2019 parametrisation            |
           ------------------------------------------------- 
             k(s)              :                1.8500
             k(p)              :                2.2300
             k(d)              :                2.2300
             k(f)              :                2.0000
             kEN (H0ij)        :               -2.0000
             D4 a1             :                0.5200
             D4 a2             :                5.0000
             D4 s6             :                1.0000
             D4 s8             :                2.7000
             D4 s9             :                5.0000
             alphaj            :                2.0000

  Z AO/shell   Hii/eV     exponent
  1     Wed Apr 25 08:07:45 CEST 2018   EN: 2.200 GM2: 0.406  GM3: 0.0800  RAES: 1.40
     1s    -10.707211    1.230000
  6     Wed Apr 25 08:07:45 CEST 2018   EN: 2.550 GM2: 0.538  GM3: 0.1500  RAES: 3.00
     2s    -13.970922    2.096432
     2p    -10.063292    1.800000
  8     Wed Apr 25 08:07:45 CEST 2018   EN: 3.440 GM2: 0.452  GM3:-0.0517  RAES: 1.80
     2s    -20.229985    2.439742
     2p    -15.503117    2.137023

           ------------------------------------------------- 
          |        Self-Consistent Charge Iterations        |
           ------------------------------------------------- 

          ...................................................
          :                      SETUP                      :
          :.................................................:
          :  # basis functions                  30          :
          :  # atomic orbitals                  30          :
          :  # shells                           18          :
          :  # electrons                        36          :
          :  max. iterations                   100          :
          :  Hamiltonian                  GFN2-xTB          :
          :  restarted?                      false          :
          :  GBSA solvation                  false          :
          :  PC potential                    false          :
          :  electronic temp.          300.0000000     K    :
          :  accuracy                    1.0000000          :
          :  -> integral cutoff          0.2500000E+02      :
          :  -> integral neglect         0.1000000E-07      :
          :  -> SCF convergence          0.1000000E-05 Eh   :
          :  -> wf. convergence          0.1000000E-03 e    :
          :  Broyden damping             0.4000000          :
          ...................................................

 iter      E             dE          RMSdq      gap      omega  full diag
   1    -21.7081188 -0.217081E+02  0.487E+00    8.51       0.0  T
   2    -21.7322139 -0.240951E-01  0.275E+00    8.45       1.0  T
   3    -21.7323958 -0.181905E-03  0.854E-01    8.50       1.0  T
   4    -21.7331733 -0.777543E-03  0.112E-01    8.51       1.0  T
   5    -21.7332079 -0.346078E-04  0.552E-02    8.51       1.0  T
   6    -21.7332095 -0.153747E-05  0.169E-02    8.51       1.7  T
   7    -21.7332097 -0.228012E-06  0.374E-03    8.51       7.7  T
   8    -21.7332097 -0.195214E-07  0.142E-03    8.51      20.3  T
   9    -21.7332097 -0.698364E-08  0.454E-04    8.51      63.6  T
  10    -21.7332097 -0.844572E-09  0.175E-04    8.51     165.0  T

   *** convergence criteria satisfied after 10 iterations ***

         #    Occupation            Energy/Eh            Energy/eV
      -------------------------------------------------------------
         1        2.0000           -0.7478199             -20.3492
       ...           ...                  ...                  ...
        12        2.0000           -0.5226353             -14.2216
        13        2.0000           -0.5097927             -13.8722
        14        2.0000           -0.4950021             -13.4697
        15        2.0000           -0.4764573             -12.9651
        16        2.0000           -0.4696102             -12.7787
        17        2.0000           -0.4482653             -12.1979
        18        2.0000           -0.3957967             -10.7702 (HOMO)
        19                         -0.0829378              -2.2569 (LUMO)
        20                          0.0038862               0.1057
        21                          0.0286628               0.7800
        22                          0.0843999               2.2966
        23                          0.0929259               2.5286
       ...                                ...                  ...
        30                          0.2784020               7.5757
      -------------------------------------------------------------
                  HL-Gap            0.3128589 Eh            8.5133 eV
             Fermi-level           -0.2393672 Eh           -6.5135 eV

 SCC (total)                   0 d,  0 h,  0 min,  0.009 sec
 SCC setup                      ...        0 min,  0.000 sec (  1.521%)
 Dispersion                     ...        0 min,  0.000 sec (  0.643%)
 integral evaluation            ...        0 min,  0.001 sec ( 13.366%)
 zeroth order Hamiltonian       ...        0 min,  0.000 sec (  0.719%)
 iterations                     ...        0 min,  0.005 sec ( 58.191%)
 molecular gradient             ...        0 min,  0.002 sec ( 22.472%)
 printout                       ...        0 min,  0.000 sec (  1.111%)

         :::::::::::::::::::::::::::::::::::::::::::::::::::::
         ::                     SUMMARY                     ::
         :::::::::::::::::::::::::::::::::::::::::::::::::::::
         :: total energy             -21.589934802913 Eh    ::
         :: gradient norm              0.123065594107 Eh/a0 ::
         :: HOMO-LUMO gap              8.513322942651 eV    ::
         ::.................................................::
         :: SCC energy               -21.733209741874 Eh    ::
         :: -> isotropic ES            0.049123053700 Eh    ::
         :: -> anisotropic ES         -0.000809540653 Eh    ::
         :: -> anisotropic XC         -0.010735416201 Eh    ::
         :: -> dispersion             -0.006297667925 Eh    ::
         :: repulsion energy           0.143270862492 Eh    ::
         :: add. restraining           0.000000000000 Eh    ::
         :::::::::::::::::::::::::::::::::::::::::::::::::::::

      ----------------------------------------------------------- 
     |                   =====================                   |
     |                        A N C O P T                        |
     |                   =====================                   |
     |               Approximate Normal Coordinate               |
     |                Rational Function Optimizer                |
      ----------------------------------------------------------- 

          ...................................................
          :                      SETUP                      :
          :.................................................:
          :   optimization level            normal          :
          :   max. optcycles                   200          :
          :   ANC micro-cycles                  20          :
          :   degrees of freedom                30          :
          :.................................................:
          :   RF solver                   davidson          :
          :   write xtbopt.log                true          :
          :   linear?                        false          :
          :   energy convergence         0.5000000E-05 Eh   :
          :   grad. convergence          0.1000000E-02 Eh/α :
          :   maximium RF displ.         1.0000000          :
          :   Hlow (freq-cutoff)         0.1000000E-01      :
          :   Hmax (freq-cutoff)         5.0000000          :
          :   S6 in model hess.         20.0000000          :
          ...................................................

generating ANC from model Hessian ...
Using Lindh-Hessian (1995)
 Shifting diagonal of input Hessian by   0.000000000000000E+000
 Lowest  eigenvalues of input Hessian
   -0.000000   -0.000000   -0.000000    0.000000    0.000000    0.000000
    0.012212    0.024487    0.034464    0.047620    0.052606    0.055104
    0.062403    0.078339    0.083988    0.091830    0.101417    0.136407
 Highest eigenvalues
    1.198623    1.309344    1.372369    1.424300    1.520293    1.657813
 

........................................................................
.............................. CYCLE    1 ..............................
........................................................................
   1    -21.7332097 -0.217332E+02  0.100E-04    8.51       0.0  T
   2    -21.7332097 -0.401315E-10  0.557E-05    8.51     518.0  T
   3    -21.7332097 -0.628830E-11  0.366E-05    8.51     788.6  T
     SCC iter.                  ...        0 min,  0.001 sec
     gradient                   ...        0 min,  0.001 sec
 * total energy  :   -21.5899348 Eh     change        0.1073164E-07 Eh
   gradient norm :     0.1230663 Eh/α   predicted     0.0000000E+00 (-100.00%)
   displ. norm   :     0.2741282 α      lambda       -0.1647429E-01
   maximum displ.:     0.1376820 α      in ANC's #7, #3, #8, ...

........................................................................
.............................. CYCLE    2 ..............................
........................................................................
   1    -21.7479793 -0.217480E+02  0.324E-01    7.42       0.0  T
   2    -21.7480611 -0.817502E-04  0.197E-01    7.42       1.0  T
   3    -21.7480731 -0.120508E-04  0.448E-02    7.42       1.0  T
   4    -21.7480752 -0.201534E-05  0.135E-02    7.42       2.1  T
   5    -21.7480755 -0.382345E-06  0.406E-03    7.42       7.1  T
   6    -21.7480755 -0.101962E-07  0.183E-03    7.42      15.8  T
     SCC iter.                  ...        0 min,  0.001 sec
     gradient                   ...        0 min,  0.001 sec
 * total energy  :   -21.6009646 Eh     change       -0.1102985E-01 Eh
   gradient norm :     0.0491087 Eh/α   predicted    -0.8856128E-02 ( -19.71%)
   displ. norm   :     0.2188464 α      lambda       -0.4410609E-02
   maximum displ.:     0.1701369 α      in ANC's #3, #1, #2, ...

........................................................................
.............................. CYCLE    3 ..............................
........................................................................
   1    -21.7533193 -0.217533E+02  0.255E-01    6.78       0.0  T
   2    -21.7533451 -0.258321E-04  0.155E-01    6.79       1.0  T
   3    -21.7533499 -0.485623E-05  0.248E-02    6.79       1.2  T
   4    -21.7533513 -0.135517E-05  0.102E-02    6.79       2.8  T
   5    -21.7533515 -0.242903E-06  0.347E-03    6.79       8.3  T
   6    -21.7533516 -0.870603E-08  0.140E-03    6.79      20.6  T
     SCC iter.                  ...        0 min,  0.002 sec
     gradient                   ...        0 min,  0.090 sec
 * total energy  :   -21.6036530 Eh     change       -0.2688409E-02 Eh
   gradient norm :     0.0107538 Eh/α   predicted    -0.2310924E-02 ( -14.04%)
   displ. norm   :     0.1428034 α      lambda       -0.6329466E-03
   maximum displ.:     0.1235832 α      in ANC's #3, #1, #2, ...

........................................................................
.............................. CYCLE    4 ..............................
........................................................................
   1    -21.7530592 -0.217531E+02  0.175E-01    6.58       0.0  T
   2    -21.7530631 -0.391494E-05  0.107E-01    6.58       1.0  T
   3    -21.7530645 -0.140612E-05  0.883E-03    6.58       3.3  T
   4    -21.7530647 -0.187830E-06  0.437E-03    6.58       6.6  T
   5    -21.7530647 -0.215951E-07  0.137E-03    6.58      21.1  T
   6    -21.7530647 -0.205808E-08  0.550E-04    6.58      52.5  T
     SCC iter.                  ...        0 min,  0.002 sec
     gradient                   ...        0 min,  0.002 sec
 * total energy  :   -21.6040754 Eh     change       -0.4223145E-03 Eh
   gradient norm :     0.0058407 Eh/α   predicted    -0.3229275E-03 ( -23.53%)
   displ. norm   :     0.1227496 α      lambda       -0.2463715E-03
   maximum displ.:     0.0912981 α      in ANC's #3, #1, #11, ...

........................................................................
.............................. CYCLE    5 ..............................
........................................................................
   1    -21.7532103 -0.217532E+02  0.146E-01    6.50       0.0  T
   2    -21.7532124 -0.203761E-05  0.904E-02    6.50       1.0  T
   3    -21.7532132 -0.821446E-06  0.615E-03    6.50       4.7  T
   4    -21.7532134 -0.190581E-06  0.302E-03    6.50       9.6  T
   5    -21.7532134 -0.521574E-08  0.815E-04    6.50      35.4  T
   6    -21.7532134 -0.542880E-09  0.230E-04    6.50     125.6  T
     SCC iter.                  ...        0 min,  0.093 sec
     gradient                   ...        0 min,  0.003 sec
 * total energy  :   -21.6042457 Eh     change       -0.1703094E-03 Eh
   gradient norm :     0.0058091 Eh/α   predicted    -0.1250433E-03 ( -26.58%)
   displ. norm   :     0.1047088 α      lambda       -0.1267675E-03
   maximum displ.:     0.0752436 α      in ANC's #1, #3, #11, ...

........................................................................
.............................. CYCLE    6 ..............................
........................................................................
   1    -21.7535842 -0.217536E+02  0.125E-01    6.51       0.0  T
   2    -21.7535860 -0.178661E-05  0.775E-02    6.50       1.0  T
   3    -21.7535866 -0.628361E-06  0.507E-03    6.50       5.7  T
   4    -21.7535868 -0.110314E-06  0.233E-03    6.50      12.4  T
   5    -21.7535868 -0.859404E-08  0.931E-04    6.50      31.0  T
     SCC iter.                  ...        0 min,  0.002 sec
     gradient                   ...        0 min,  0.092 sec
 * total energy  :   -21.6043304 Eh     change       -0.8477227E-04 Eh
   gradient norm :     0.0041683 Eh/α   predicted    -0.6407953E-04 ( -24.41%)
   displ. norm   :     0.0577201 α      lambda       -0.4272870E-04
   maximum displ.:     0.0414363 α      in ANC's #1, #3, #2, ...

........................................................................
.............................. CYCLE    7 ..............................
........................................................................
   1    -21.7539081 -0.217539E+02  0.748E-02    6.55       0.0  T
   2    -21.7539089 -0.794167E-06  0.466E-02    6.55       1.0  T
   3    -21.7539092 -0.263889E-06  0.316E-03    6.55       9.1  T
   4    -21.7539092 -0.246738E-07  0.137E-03    6.55      21.1  T
   5    -21.7539092 -0.226698E-08  0.573E-04    6.55      50.4  T
     SCC iter.                  ...        0 min,  0.002 sec
     gradient                   ...        0 min,  0.001 sec
 * total energy  :   -21.6043582 Eh     change       -0.2773496E-04 Eh
   gradient norm :     0.0024424 Eh/α   predicted    -0.2143486E-04 ( -22.72%)
   displ. norm   :     0.0225571 α      lambda       -0.1187713E-04
   maximum displ.:     0.0118943 α      in ANC's #1, #3, #2, ...

........................................................................
.............................. CYCLE    8 ..............................
........................................................................
   1    -21.7540670 -0.217541E+02  0.365E-02    6.58       0.0  T
   2    -21.7540672 -0.194051E-06  0.228E-02    6.58       1.3  T
   3    -21.7540672 -0.706070E-07  0.162E-03    6.58      17.8  T
   4    -21.7540672 -0.580754E-08  0.778E-04    6.58      37.1  T
   5    -21.7540672 -0.479584E-09  0.293E-04    6.58      98.6  T
     SCC iter.                  ...        0 min,  0.001 sec
     gradient                   ...        0 min,  0.001 sec
 * total energy  :   -21.6043664 Eh     change       -0.8176631E-05 Eh
   gradient norm :     0.0014106 Eh/α   predicted    -0.5941282E-05 ( -27.34%)
   displ. norm   :     0.0208387 α      lambda       -0.6245069E-05
   maximum displ.:     0.0106173 α      in ANC's #4, #3, #2, ...

........................................................................
.............................. CYCLE    9 ..............................
........................................................................
   1    -21.7541280 -0.217541E+02  0.422E-02    6.61       0.0  T
   2    -21.7541282 -0.215789E-06  0.263E-02    6.61       1.1  T
   3    -21.7541283 -0.941066E-07  0.186E-03    6.61      15.5  T
   4    -21.7541283 -0.110604E-07  0.960E-04    6.61      30.1  T
   5    -21.7541283 -0.389335E-09  0.301E-04    6.61      95.8  T
     SCC iter.                  ...        0 min,  0.003 sec
     gradient                   ...        0 min,  0.002 sec
 * total energy  :   -21.6043716 Eh     change       -0.5277388E-05 Eh
   gradient norm :     0.0011557 Eh/α   predicted    -0.3123880E-05 ( -40.81%)
   displ. norm   :     0.0166696 α      lambda       -0.2759011E-05
   maximum displ.:     0.0154113 α      in ANC's #1, #4, #6, ...

........................................................................
.............................. CYCLE   10 ..............................
........................................................................
   1    -21.7541277 -0.217541E+02  0.193E-02    6.61       0.0  T
   2    -21.7541278 -0.398111E-07  0.119E-02    6.61       2.4  T
   3    -21.7541278 -0.174970E-07  0.889E-04    6.61      32.5  T
   4    -21.7541278 -0.127224E-08  0.422E-04    6.61      68.5  T
     SCC iter.                  ...        0 min,  0.093 sec
     gradient                   ...        0 min,  0.002 sec
 * total energy  :   -21.6043748 Eh     change       -0.3137630E-05 Eh
   gradient norm :     0.0008228 Eh/α   predicted    -0.1380353E-05 ( -56.01%)
   displ. norm   :     0.0261431 α      lambda       -0.2988737E-05
   maximum displ.:     0.0213911 α      in ANC's #1, #4, #3, ...

   *** GEOMETRY OPTIMIZATION CONVERGED AFTER 10 ITERATIONS ***

------------------------------------------------------------------------
 total energy gain   :        -0.0144400 Eh       -9.0612 kcal/mol
 total RMSD          :         0.2342981 a0        0.1240 Å
 total power (kW/mol):        -3.7912131 (step)  -48.0385 (real)
------------------------------------------------------------------------

 ANCopt (total)                0 d,  0 h,  0 min,  0.789 sec
 optimizer setup                ...        0 min,  0.085 sec ( 10.792%)
 model hessian                  ...        0 min,  0.006 sec (  0.765%)
 ANC generation                 ...        0 min,  0.000 sec (  0.044%)
 coordinate transformation      ...        0 min,  0.000 sec (  0.048%)
 single point calculation       ...        0 min,  0.602 sec ( 76.304%)
 optimization log               ...        0 min,  0.001 sec (  0.181%)
 hessian update                 ...        0 min,  0.091 sec ( 11.583%)
 rational function              ...        0 min,  0.001 sec (  0.093%)

================
 final structure:
================
12
 xtb: 6.2.3 (830e466)
C         0.65888224951966    1.28576476377540   -2.77527872610337
C         0.52058381088835    0.32979585660476   -1.59142942587380
C         1.22718166902702    1.17830541052400   -0.53192346765404
O         0.51335794286236    2.57359717158620   -2.22290165032150
O         0.92562193467760    2.50494120982128   -0.84739136805777
O         2.59693707830871    0.91550609994844   -0.59150474866854
H         3.07345596527787    1.62113994336566   -0.13863478371165
H         1.64669001935049    1.17476370619356   -3.24166072634819
H        -0.12717659587370    1.18037499074793   -3.52270765113233
H         0.84655256594359    1.01721150479046    0.48906616393132
H         1.02909895111431   -0.61681816723609   -1.74036268912022
H        -0.52220559109627    0.17500750987843   -1.32107092693990
 
 Bond Distances (Angstroems)
 ---------------------------
C1-C2=1.5279         C1-O4=1.4088         C1-H8=1.0980         C1-H9=1.0898         C2-C1=1.5279         C2-C3=1.5303         
C2-H11=1.0848        C2-H12=1.0883        C3-C2=1.5303         C3-O5=1.3966         C3-O6=1.3960         C3-H10=1.1015        
O4-C1=1.4088         O4-O5=1.4376         O5-C3=1.3966         O5-O4=1.4376         O6-C3=1.3960         O6-H7=0.9644         
H7-O6=0.9644         H8-C1=1.0980         H9-C1=1.0898         H10-C3=1.1015        H11-C2=1.0848        H12-C2=1.0883        
 C  H  Rav=1.0925 sigma=0.0062  Rmin=1.0848  Rmax=1.1015     5
 C  C  Rav=1.5291 sigma=0.0012  Rmin=1.5279  Rmax=1.5303     2
 O  H  Rav=0.9644 sigma=0.0000  Rmin=0.9644  Rmax=0.9644     1
 O  C  Rav=1.4005 sigma=0.0059  Rmin=1.3960  Rmax=1.4088     3
 O  O  Rav=1.4376 sigma=0.0000  Rmin=1.4376  Rmax=1.4376     1
 
 selected bond angles (degree)
 --------------------
O4-C1-C2=105.00                H8-C1-C2=110.32                H8-C1-O4=110.60                H9-C1-C2=113.93                
H9-C1-O4=106.43                H9-C1-H8=110.35                C3-C2-C1= 98.50                H11-C2-C1=113.40               
H11-C2-C3=111.25               H12-C2-C1=111.60               H12-C2-C3=110.44               H12-C2-H11=111.05              
O5-C3-C2=105.70                O6-C3-C2=108.61                O6-C3-O5=112.40                H10-C3-C2=113.65               
H10-C3-O5=105.88               H10-C3-O6=110.55               O5-O4-C1=107.57                O4-O5-C3=108.87                
H7-O6-C3=109.09                
 
 selected dihedral angles (degree)
 ---------------------------------
C3-C2-C1-O4=323.59            C3-C2-C1-H8= 82.78            C3-C2-C1-H9=207.54            H11-C2-C1-O4=205.95           
H11-C2-C1-H8=325.14           H11-C2-C1-H9= 89.90           H12-C2-C1-O4= 79.63           H12-C2-C1-H8=198.82           
H12-C2-C1-H9=323.58           O5-C3-C2-C1= 33.95            O5-C3-C2-H11=153.22           O5-C3-C2-H12=277.02           
O6-C3-C2-C1=273.13            O6-C3-C2-H11= 32.41           O6-C3-C2-H12=156.20           H10-C3-C2-C1=149.64           
H10-C3-C2-H11=268.91          H10-C3-C2-H12= 32.70          O5-O4-C1-C2= 26.60            O5-O4-C1-H8=267.60            
O5-O4-C1-H9=147.72            O4-O5-C3-C2=339.98            O4-O5-C3-O6= 98.30            O4-O5-C3-H10=219.10           
C3-O5-O4-C1=355.81            H7-O6-C3-C2=162.60            H7-O6-C3-O5= 46.00            H7-O6-C3-H10=287.93           
           -------------------------------------------------
          |                Final Singlepoint                |
           -------------------------------------------------

          ...................................................
          :                      SETUP                      :
          :.................................................:
          :  # basis functions                  30          :
          :  # atomic orbitals                  30          :
          :  # shells                           18          :
          :  # electrons                        36          :
          :  max. iterations                   100          :
          :  Hamiltonian                  GFN2-xTB          :
          :  restarted?                      false          :
          :  GBSA solvation                  false          :
          :  PC potential                    false          :
          :  electronic temp.          300.0000000     K    :
          :  accuracy                    1.0000000          :
          :  -> integral cutoff          0.2500000E+02      :
          :  -> integral neglect         0.1000000E-07      :
          :  -> SCF convergence          0.1000000E-05 Eh   :
          :  -> wf. convergence          0.1000000E-03 e    :
          :  Broyden damping             0.4000000          :
          ...................................................

 iter      E             dE          RMSdq      gap      omega  full diag
   1    -21.7541278 -0.217541E+02  0.880E-05    6.61       0.0  T
   2    -21.7541278 -0.148539E-10  0.431E-05    6.61     669.0  T
   3    -21.7541278 -0.176215E-11  0.176E-05    6.61    1643.0  T

   *** convergence criteria satisfied after 3 iterations ***

         #    Occupation            Energy/Eh            Energy/eV
      -------------------------------------------------------------
         1        2.0000           -0.7400838             -20.1387
       ...           ...                  ...                  ...
        12        2.0000           -0.5292938             -14.4028
        13        2.0000           -0.5103411             -13.8871
        14        2.0000           -0.4901126             -13.3366
        15        2.0000           -0.4852034             -13.2031
        16        2.0000           -0.4707411             -12.8095
        17        2.0000           -0.4454245             -12.1206
        18        2.0000           -0.4100319             -11.1575 (HOMO)
        19                         -0.1671854              -4.5493 (LUMO)
        20                          0.0156100               0.4248
        21                          0.0479027               1.3035
        22                          0.0666720               1.8142
        23                          0.0924628               2.5160
       ...                                ...                  ...
        30                          0.2875085               7.8235
      -------------------------------------------------------------
                  HL-Gap            0.2428465 Eh            6.6082 eV
             Fermi-level           -0.2886087 Eh           -7.8534 eV

 SCC (total)                   0 d,  0 h,  0 min,  0.094 sec
 SCC setup                      ...        0 min,  0.000 sec (  0.106%)
 Dispersion                     ...        0 min,  0.000 sec (  0.046%)
 integral evaluation            ...        0 min,  0.000 sec (  0.527%)
 zeroth order Hamiltonian       ...        0 min,  0.000 sec (  0.062%)
 iterations                     ...        0 min,  0.002 sec (  1.720%)
 molecular gradient             ...        0 min,  0.091 sec ( 97.255%)
 printout                       ...        0 min,  0.000 sec (  0.074%)

         :::::::::::::::::::::::::::::::::::::::::::::::::::::
         ::                     SUMMARY                     ::
         :::::::::::::::::::::::::::::::::::::::::::::::::::::
         :: total energy             -21.604374768583 Eh    ::
         :: gradient norm              0.000823064329 Eh/a0 ::
         :: HOMO-LUMO gap              6.608188526868 eV    ::
         ::.................................................::
         :: SCC energy               -21.754127795007 Eh    ::
         :: -> isotropic ES            0.050371930271 Eh    ::
         :: -> anisotropic ES         -0.002878803399 Eh    ::
         :: -> anisotropic XC         -0.007293350709 Eh    ::
         :: -> dispersion             -0.006230836361 Eh    ::
         :: repulsion energy           0.149748631802 Eh    ::
         :: add. restraining           0.000000000000 Eh    ::
         :::::::::::::::::::::::::::::::::::::::::::::::::::::

           -------------------------------------------------
          |                Property Printout                |
           -------------------------------------------------

    * Orbital Energies and Occupations

         #    Occupation            Energy/Eh            Energy/eV
      -------------------------------------------------------------
         1        2.0000           -0.7400838             -20.1387
       ...           ...                  ...                  ...
         6        2.0000           -0.6319352             -17.1958
         7        2.0000           -0.6080716             -16.5465
         8        2.0000           -0.5948544             -16.1868
         9        2.0000           -0.5668627             -15.4251
        10        2.0000           -0.5566781             -15.1480
        11        2.0000           -0.5499961             -14.9662
        12        2.0000           -0.5292938             -14.4028
        13        2.0000           -0.5103411             -13.8871
        14        2.0000           -0.4901126             -13.3366
        15        2.0000           -0.4852034             -13.2031
        16        2.0000           -0.4707411             -12.8095
        17        2.0000           -0.4454245             -12.1206
        18        2.0000           -0.4100319             -11.1575 (HOMO)
        19                         -0.1671854              -4.5493 (LUMO)
        20                          0.0156100               0.4248
        21                          0.0479027               1.3035
        22                          0.0666720               1.8142
        23                          0.0924628               2.5160
        24                          0.1251434               3.4053
        25                          0.1283883               3.4936
        26                          0.1448060               3.9404
        27                          0.1725547               4.6955
        28                          0.2169729               5.9041
        29                          0.2272305               6.1833
        30                          0.2875085               7.8235
      -------------------------------------------------------------
                  HL-Gap            0.2428465 Eh            6.6082 eV
             Fermi-level           -0.2886087 Eh           -7.8534 eV

     #   Z        covCN         q      C6AA      α(0)
     1   6 C      3.722     0.083    19.300     6.274
     2   6 C      3.804    -0.071    21.864     6.657
     3   6 C      3.649     0.260    16.889     5.904
     4   8 O      1.774    -0.194    17.229     5.605
     5   8 O      1.776    -0.229    17.787     5.695
     6   8 O      1.657    -0.445    21.732     6.293
     7   1 H      0.805     0.312     0.687     1.301
     8   1 H      0.923     0.053     2.279     2.361
     9   1 H      0.925     0.067     2.120     2.277
    10   1 H      0.923     0.033     2.548     2.496
    11   1 H      0.925     0.072     2.064     2.247
    12   1 H      0.925     0.059     2.208     2.324

 Mol. C6AA /au·bohr⁶  :       1185.352395
 Mol. C8AA /au·bohr⁸  :      24948.618065
 Mol. α(0) /au        :         49.433048


Wiberg/Mayer (AO) data.
largest (>0.10) Wiberg bond orders for each atom
          total WBO             WBO to atom ...
     1  C   3.944        C    2 0.996    O    4 0.991    H    8 0.969    H    9 0.960
     2  C   3.992        C    1 0.996    H   12 0.977    C    3 0.977    H   11 0.975
     3  C   3.930        O    6 0.996    O    5 0.986    C    2 0.977    H   10 0.940
     4  O   2.020        C    1 0.991    O    5 0.936
     5  O   2.047        C    3 0.986    O    4 0.936
     6  O   1.973        C    3 0.996    H    7 0.884
     7  H   0.903        O    6 0.884
     8  H   0.997        C    1 0.969
     9  H   0.996        C    1 0.960
    10  H   0.999        C    3 0.940
    11  H   0.995        C    2 0.975
    12  H   0.996        C    2 0.977

molecular dipole:
                 x           y           z       tot (Debye)
 q only:       -0.040      -0.840      -0.012
   full:       -0.024      -0.845       0.123       2.172
molecular quadrupole (traceless):
                xx          xy          yy          xz          yz          zz
 q only:        2.350       1.142      -7.972       1.924       5.057       5.622
  q+dip:        4.095       2.830      -9.743       1.843       6.017       5.648
   full:        3.433       2.699      -9.355       2.402       6.147       5.921

           -------------------------------------------------
          |                Geometry Summary                 |
           -------------------------------------------------

      molecular mass/u    :       90.0780670
   center of mass at/Å    :        1.1042812       1.4881020      -1.4095925
  moments of inertia/u·Å² :        0.8350504E+02   0.1336450E+03   0.1699985E+03
rotational constants/cm⁻¹ :        0.2018756E+00   0.1261374E+00   0.9916342E-01

 * 12 selected distances

     #   Z        #   Z                                     value/Å
     1   6 C      2   6 C                                 1.5279078
     2   6 C      3   6 C                                 1.5302947 (max)
     1   6 C      4   8 O                                 1.4088329
     3   6 C      5   8 O                                 1.3965747
     4   8 O      5   8 O                                 1.4376035
     3   6 C      6   8 O                                 1.3960098
     6   8 O      7   1 H                                 0.9644069 (min)
     1   6 C      8   1 H                                 1.0979971
     1   6 C      9   1 H                                 1.0897915
     3   6 C     10   1 H                                 1.1014761
     2   6 C     11   1 H                                 1.0848257
     2   6 C     12   1 H                                 1.0883303

 * 5 distinct bonds (by element types)

   Z      Z             #   av. dist./Å        max./Å        min./Å
   1 H    6 C           5     1.0924841     1.1014761     1.0848257
   6 C    6 C           2     1.5291012     1.5302947     1.5279078
   1 H    8 O           1     0.9644069     0.9644069     0.9644069
   6 C    8 O           3     1.4004724     1.4088329     1.3960098
   8 O    8 O           1     1.4376035     1.4376035     1.4376035


optimized geometry written to: xtbopt.xyz


           -------------------------------------------------
          | TOTAL ENERGY              -21.604374768583 Eh   |
          | GRADIENT NORM               0.000823064329 Eh/α |
          | HOMO-LUMO GAP               6.608188526868 eV   |
           -------------------------------------------------

------------------------------------------------------------------------
 * finished run on 2020/12/23 at 21:42:30.865     
------------------------------------------------------------------------
 total:
 * wall-time:     0 d,  0 h,  0 min,  1.095 sec
 *  cpu-time:     0 d,  0 h,  0 min,  4.647 sec
 * ratio c/w:     4.244 speedup
 SCF:
 * wall-time:     0 d,  0 h,  0 min,  0.010 sec
 *  cpu-time:     0 d,  0 h,  0 min,  0.218 sec
 * ratio c/w:    22.460 speedup
 ANC optimizer:
 * wall-time:     0 d,  0 h,  0 min,  0.887 sec
 *  cpu-time:     0 d,  0 h,  0 min,  3.314 sec
 * ratio c/w:     3.738 speedup

