12
 energy: -21.516238011980 gnorm: 0.157989391948 xtb: 6.2.3 (830e466)
C         2.42038000000000    2.02346000000000   -0.59147000000000
C         1.32236000000000    1.81823000000000    0.13256000000000
C         0.40614000000000   -0.51510000000000   -2.60585000000000
O         0.52365000000000    0.63916000000000   -3.29294000000000
O        -0.45333000000000    1.48602000000000   -3.33178000000000
O         1.34283000000000   -1.29493000000000   -2.56463000000000
H        -0.14475000000000    2.25169000000000   -2.78325000000000
H         3.27709000000000    2.52544000000000   -0.15432000000000
H         2.46773000000000    1.69109000000000   -1.62297000000000
H        -0.51510000000000   -0.75390000000000   -2.08323000000000
H         0.46417000000000    1.31683000000000   -0.30191000000000
H         1.27783000000000    2.15161000000000    1.16397000000000
12
 energy: -21.528013045150 gnorm: 0.056443596263 xtb: 6.2.3 (830e466)
C         2.41057983256664    2.03024659163014   -0.59484622155948
C         1.32194918406071    1.82808290795924    0.12499880021875
C         0.43222446240459   -0.52513053245557   -2.60147325752339
O         0.56275558286368    0.61536351810966   -3.29567756192542
O        -0.47552251172729    1.49039869397681   -3.29757392317846
O         1.33542677626692   -1.30835140410939   -2.56880164030943
H        -0.16201113656054    2.26897446506797   -2.78840853422827
H         3.27306382232909    2.51727778377658   -0.16954541973030
H         2.48171932954341    1.68760402320317   -1.61540965457598
H        -0.52410792932958   -0.72359222173204   -2.09918442006115
H         0.46518389724910    1.31487595767064   -0.28412524587008
H         1.26773869033327    2.14385021690280    1.15422707874320
12
 energy: -21.530955711147 gnorm: 0.015385159465 xtb: 6.2.3 (830e466)
C         2.41286742374185    2.00766437494113   -0.59176426365077
C         1.32681787988845    1.81285391457393    0.12570928886733
C         0.44548403734260   -0.54701026128455   -2.63152308417098
O         0.59464187759580    0.60313048207866   -3.29670604073400
O        -0.49874654568658    1.48169233462410   -3.24568697473050
O         1.34185350722707   -1.31751259859821   -2.56389884286252
H        -0.16440132030225    2.27126958738458   -2.78303542681452
H         3.26766607993406    2.52279721453204   -0.18988834643347
H         2.49072022245267    1.69134993768957   -1.61789944791668
H        -0.52761062450510   -0.66836574437483   -2.10981998512290
H         0.45303578793923    1.32444227190741   -0.27324520071133
H         1.24667167437219    2.15728848652618    1.14193832428034
12
 energy: -21.531128169438 gnorm: 0.025779399982 xtb: 6.2.3 (830e466)
C         2.39799744978050    2.02856567088581   -0.60422141257297
C         1.31287206502534    1.83779733351394    0.11446517099658
C         0.47690319853633   -0.53318801290864   -2.59442342736860
O         0.61028593210655    0.60212245353940   -3.28463223280752
O        -0.51814388098171    1.46828330832777   -3.19143736213411
O         1.33696212195231   -1.34896907504392   -2.59635564757477
H        -0.14964943252973    2.28534569046603   -2.79841784055185
H         3.26910004311438    2.51401363260707   -0.19923405647806
H         2.49997856727996    1.67070045445119   -1.61620207023978
H        -0.53597397566321   -0.65193589972796   -2.14387310361080
H         0.44933757513440    1.31122434125079   -0.26138448680829
H         1.23933033624490    2.15564010263858    1.13989646915016
12
 energy: -21.531884186114 gnorm: 0.009664052215 xtb: 6.2.3 (830e466)
C         2.39865467308548    2.02395054302047   -0.60652762135283
C         1.31407755999128    1.83233986758783    0.11469179354620
C         0.46329888055593   -0.54516531126851   -2.61822709749011
O         0.61860710785216    0.61325837518143   -3.26968523921939
O        -0.50239629168415    1.47286093602910   -3.19774138545347
O         1.33701144501464   -1.34619833078664   -2.58138963251777
H        -0.15687829720331    2.28106368983675   -2.78263088142952
H         3.26556058447430    2.52070012111285   -0.20396549656067
H         2.49408445848401    1.66836203813727   -1.62007671381793
H        -0.53418673057145   -0.65205629786962   -2.14366862462726
H         0.44973861960388    1.30873976866381   -0.26410392573779
H         1.24142799039725    2.16174460035527    1.13750482466053
12
 energy: -21.532065528121 gnorm: 0.006812183642 xtb: 6.2.3 (830e466)
C         2.40037201620512    2.00772077045158   -0.60696679724718
C         1.31704293060649    1.81729974416195    0.11702029850730
C         0.46425499313624   -0.54847345502579   -2.61824116502703
O         0.62812419431230    0.62345993194841   -3.24807846579476
O        -0.49554463023345    1.47182425551578   -3.17524157264237
O         1.33309920354630   -1.35678429485272   -2.58770037989207
H        -0.14616402685476    2.29193891489741   -2.78243946428569
H         3.25567477466667    2.53544702844786   -0.21598090882517
H         2.48485486610575    1.66751444940658   -1.62601321208994
H        -0.53530791997839   -0.65683486082019   -2.15668946055485
H         0.44606098497334    1.30865241162009   -0.26562677548668
H         1.23653261351442    2.17783510424907    1.13013790333842
12
 energy: -21.532336521348 gnorm: 0.007814696467 xtb: 6.2.3 (830e466)
C         2.39052199944950    2.01242515288244   -0.61833996814437
C         1.30967997662068    1.82433241056082    0.11021356523545
C         0.46610224042962   -0.55744680385470   -2.62480496483977
O         0.64823287057489    0.63865075842868   -3.21299348616399
O        -0.48548764981371    1.46955040785057   -3.13509690140015
O         1.32828964383534   -1.37264168818639   -2.59508507402405
H        -0.13269787107506    2.30601623753010   -2.77728293367643
H         3.24675803256171    2.54247430802110   -0.23198547057599
H         2.47906288150704    1.64988062349824   -1.63029032836999
H        -0.53965818549970   -0.65906432781578   -2.18113768897355
H         0.44483700684915    1.29561752201323   -0.26105842661941
H         1.23335905456060    2.18980539907172    1.12204167755223
12
 energy: -21.532511221109 gnorm: 0.008085902252 xtb: 6.2.3 (830e466)
C         2.38063647658929    2.01670001246905   -0.63141060047718
C         1.30280344388392    1.83318406587026    0.10276767960786
C         0.47080611431484   -0.56516945946217   -2.62620765509497
O         0.67550890249716    0.65527492757354   -3.16646752899389
O        -0.46791332727826    1.47007247795400   -3.08755846468221
O         1.31995621353809   -1.39273366875270   -2.60825627793878
H        -0.12137394359934    2.31712480207498   -2.76124651701786
H         3.23652873708151    2.55279880398132   -0.25390507884049
H         2.47309041206366    1.62885922434362   -1.63442988956172
H        -0.55344505109380   -0.67138099254768   -2.22457061551214
H         0.44379190203269    1.28504161207702   -0.25480937029473
H         1.22861011997033    2.20982819441880    1.11027431880607
12
 energy: -21.532599917853 gnorm: 0.010099907817 xtb: 6.2.3 (830e466)
C         2.37685285948170    2.01679331976418   -0.63469214236610
C         1.29908205475354    1.83823210455443    0.10061346903569
C         0.47241943903313   -0.57074171770140   -2.62914447511767
O         0.67794332450331    0.65643833665412   -3.14837317799043
O        -0.46581184895793    1.47071223440852   -3.05374722688165
O         1.31799602622857   -1.40013129457281   -2.62507142669433
H        -0.10329515514587    2.32943614328789   -2.76366029278953
H         3.23076811100901    2.55908619962760   -0.26325600797748
H         2.47194487168324    1.61623445912287   -1.63210372138194
H        -0.55538582665288   -0.68175376722275   -2.24005278425444
H         0.44391840464834    1.28078855974619   -0.25019294548446
H         1.22256773941592    2.22450542233120    1.10386073190229
12
 energy: -21.532754610414 gnorm: 0.007230124041 xtb: 6.2.3 (830e466)
C         2.37415747603336    2.01805278107557   -0.63697463158228
C         1.29572324056971    1.84832508288634    0.09938469816459
C         0.46971992633053   -0.58202811648464   -2.64011578067968
O         0.68116757877134    0.65438834369133   -3.12279358675974
O        -0.45536057380775    1.47739957494800   -3.00952943068945
O         1.31197879155729   -1.41399367986690   -2.65606495619337
H        -0.08067036527214    2.33758411671488   -2.75094393757127
H         3.22336453306784    2.57422518357828   -0.27671519920227
H         2.47361532797704    1.59663472042507   -1.62467519363330
H        -0.56383410376720   -0.70395799465421   -2.26962015421343
H         0.44655280485682    1.27748836523144   -0.24149559437479
H         1.21258536368326    2.25548162245492    1.09372376673493
12
 energy: -21.532935933196 gnorm: 0.006356967897 xtb: 6.2.3 (830e466)
C         2.37131632659915    2.02201461130125   -0.63770352428058
C         1.29212891219624    1.86543426940227    0.10078846093702
C         0.45790823509540   -0.60940239577160   -2.67027034369288
O         0.68688131415828    0.65059946006118   -3.07751799993475
O        -0.43621638957374    1.48937367871069   -2.92909776185922
O         1.29771594041585   -1.44561079448865   -2.71887797999792
H        -0.03670539873819    2.35517224725516   -2.72994076931427
H         3.20907556348343    2.61098303121833   -0.29902825219906
H         2.47953837214811    1.56174417971025   -1.60797142676083
H        -0.58069006083953   -0.74756020509899   -2.32024375069808
H         0.45303365103142    1.26964850399950   -0.22268754056874
H         1.19501353402372    2.31720341370071    1.07673088836920
12
 energy: -21.533039544748 gnorm: 0.005943833529 xtb: 6.2.3 (830e466)
C         2.37683309468472    2.02986966295724   -0.62793800256146
C         1.29480086394633    1.88320516161887    0.10844173228112
C         0.44030221735088   -0.62955250686603   -2.70145580569725
O         0.68008095491404    0.63520138641009   -3.06647677297449
O        -0.42666588847987    1.49521880692603   -2.89393287461901
O         1.28440163930626   -1.46141529388880   -2.76829255278007
H        -0.01491825713858    2.35184553104425   -2.71497204611084
H         3.20580728111816    2.63860501664353   -0.30281186121364
H         2.49388375457920    1.54531761828173   -1.58486035458854
H        -0.59591143951597   -0.77939150881740   -2.35030116531979
H         0.46357983665056    1.27006062034126   -0.20357027476241
H         1.18680594258443    2.36063550534935    1.07034997834625
12
 energy: -21.533096403733 gnorm: 0.004396843178 xtb: 6.2.3 (830e466)
C         2.37836781950635    2.03875239839138   -0.62276550245517
C         1.29644885027654    1.89674326478173    0.11458381436016
C         0.42863790711484   -0.64677324357363   -2.72414488598341
O         0.68320585406196    0.62974831749363   -3.04479777431279
O        -0.41891465178235    1.49292397246056   -2.85267954240128
O         1.26942235938138   -1.48182273213467   -2.81098244659845
H         0.00585561718749    2.35608449003303   -2.71297142026892
H         3.20070520363146    2.66234511558051   -0.30951446865147
H         2.50237773326042    1.53273716598815   -1.56811521374377
H        -0.61085482203828   -0.80397760269068   -2.38346890343579
H         0.47191406791815    1.26790285073515   -0.18568885255712
H         1.18183406148222    2.39493600293497    1.06472519604785
12
 energy: -21.533166881871 gnorm: 0.004142394576 xtb: 6.2.3 (830e466)
C         2.38362215645595    2.04693403576370   -0.61352526862274
C         1.30254278074231    1.90261968687446    0.12428451067676
C         0.42073456168969   -0.65157154616776   -2.73630567230594
O         0.68367424368555    0.62432239577278   -3.04679074289285
O        -0.42051292542221    1.48110064880003   -2.85324988787211
O         1.25643009163845   -1.49095265906244   -2.83163800073431
H         0.00106976437239    2.34716285983996   -2.72262829904901
H         3.20350343504640    2.67289977712608   -0.30366894122215
H         2.51085267040277    1.53695766291787   -1.55445237509116
H        -0.61917239052008   -0.80578638810850   -2.39520099099441
H         0.48015271196619    1.27080202129986   -0.17203016568483
H         1.18610289994278    2.40511150494408    1.06938583379259
12
 energy: -21.533250482873 gnorm: 0.008032904415 xtb: 6.2.3 (830e466)
C         2.39545453271054    2.06086909965927   -0.59250561643217
C         1.31296133637646    1.92478302239096    0.14539616486919
C         0.40239826439098   -0.67074000383979   -2.77525309541754
O         0.68424290668081    0.61124952792887   -3.04220990559484
O        -0.41938134318396    1.46354122303660   -2.82885063370382
O         1.22359813388212   -1.52237749790677   -2.90269218911962
H         0.00218882906780    2.33103902484781   -2.72633269242139
H         3.20349826776229    2.71308668447325   -0.29976083343215
H         2.53549469302183    1.51967765177254   -1.51667948507279
H        -0.63829651224010   -0.81930994210330   -2.43607182948801
H         0.50230401439114    1.26774416834711   -0.13398494581964
H         1.18453687714032    2.46003704139357    1.07312506163260
12
 energy: -21.533308386847 gnorm: 0.004748340893 xtb: 6.2.3 (830e466)
C         2.40685481474554    2.07153116035076   -0.57342411948574
C         1.32201378203559    1.94352481693452    0.16275362097903
C         0.38891084534098   -0.68751079425735   -2.80615655798103
O         0.67778254768344    0.59536445948265   -3.04948706998629
O        -0.42359286173244    1.44895512297006   -2.81730008677849
O         1.20114019186411   -1.54247168365813   -2.95142252478072
H         0.00054045513062    2.31707835967511   -2.73247352457360
H         3.20831830315698    2.73583514138923   -0.29095934229635
H         2.55370180404160    1.51712080142766   -1.48727319714575
H        -0.65084127662536   -0.82975489437753   -2.46296046383448
H         0.51835490172468    1.27612441007348   -0.10720050313487
H         1.18581649263450    2.49380309998968    1.08008376901806
12
 energy: -21.533330135520 gnorm: 0.005899986347 xtb: 6.2.3 (830e466)
C         2.41929424985826    2.09122044912505   -0.55184933053543
C         1.33384714443630    1.97256044089867    0.18468389596091
C         0.36819126328199   -0.71789751242123   -2.85143653936768
O         0.67712354931047    0.57692697050887   -3.03865732142491
O        -0.41686284571181    1.43373316555063   -2.78611018481848
O         1.16692253431673   -1.57841613916233   -3.02344138895810
H         0.00439398319725    2.30280835020819   -2.72730466084089
H         3.21240685458752    2.77158872878953   -0.28697743258817
H         2.57491739444120    1.51019643718631   -1.44758106576532
H        -0.67838850739267   -0.86151162382374   -2.52286248054883
H         0.54007771711589    1.28898454115117   -0.06875953059090
H         1.18707666255914    2.54940619198902    1.08447603947751
12
 energy: -21.533361340973 gnorm: 0.002733396632 xtb: 6.2.3 (830e466)
C         2.42029913008492    2.09563354691187   -0.54703201785241
C         1.33581139666529    1.97579593900265    0.19005011939002
C         0.36610764639562   -0.71999237207062   -2.85555215312522
O         0.66948700884089    0.56882078374605   -3.04910357827087
O        -0.41778806131548    1.43200523738706   -2.78877533947010
O         1.16280216007788   -1.58207816792344   -3.03672007983281
H         0.00818426528473    2.30048459318021   -2.73148959126505
H         3.21364943745729    2.77558628710264   -0.28401743331574
H         2.57597196949872    1.51052183049029   -1.44010646867955
H        -0.67714193934499   -0.86109061157083   -2.51971832489430
H         0.54273088953283    1.29039592910420   -0.06145943873744
H         1.18888609682256    2.55351700464005    1.08810430605320
12
 energy: -21.533365418825 gnorm: 0.003332845386 xtb: 6.2.3 (830e466)
C         2.42058986063220    2.09357751304766   -0.54645379935750
C         1.33616400271671    1.97710400557690    0.19190210884470
C         0.36544634022950   -0.71989072584793   -2.85690274237679
O         0.67037358627729    0.56837280966834   -3.04976025216265
O        -0.41633395536865    1.43049435682759   -2.78942960072040
O         1.16308591432804   -1.57915320161902   -3.03465298651389
H         0.00837814300802    2.29975288876742   -2.73154287763617
H         3.21361415203974    2.77758555073456   -0.28727730994481
H         2.57333681468888    1.50926256542686   -1.43917233569749
H        -0.67980690283823   -0.86161861398437   -2.52549809278441
H         0.54325926073082    1.28843756062257   -0.05637292240220
H         1.19089278355596    2.55567529077956    1.08934081075133
12
 energy: -21.533375200747 gnorm: 0.002071474092 xtb: 6.2.3 (830e466)
C         2.42240571942666    2.09822297457514   -0.54109770954597
C         1.33826067878311    1.98619861569810    0.19868560175455
C         0.35951883845216   -0.72898714530848   -2.87183180382880
O         0.67090086662204    0.56200342603332   -3.04637559194313
O        -0.41266048198063    1.42559360715366   -2.77327305126532
O         1.15363014840076   -1.59026645296643   -3.06159643318397
H         0.01572363322157    2.29512709200119   -2.72698717563725
H         3.21300975596567    2.78844546982961   -0.28989579839848
H         2.57709834458510    1.50372632456941   -1.42729331484945
H        -0.68630023063494   -0.86950068646918   -2.54286023020862
H         0.54748665395145    1.29299373131693   -0.04271253722156
H         1.18992607320734    2.57604304356686    1.08941804432772
12
 energy: -21.533384429366 gnorm: 0.003991776033 xtb: 6.2.3 (830e466)
C         2.42139921846825    2.10341573352877   -0.53842259075542
C         1.33920221969425    1.99498314448718    0.20462722021838
C         0.35638426034726   -0.73664652086934   -2.88459960412820
O         0.67364665314460    0.55588262189383   -3.04627907891021
O        -0.40663913768057    1.41994189088328   -2.76132299806851
O         1.14668438402663   -1.60007491636340   -3.08469533396830
H         0.02140253441179    2.28660662834623   -2.71351658320079
H         3.21330735971451    2.79083917461713   -0.29368703760309
H         2.57583707883146    1.50047884684041   -1.41912618075827
H        -0.68994187905869   -0.87320057277683   -2.55778917683737
H         0.54689789982259    1.30547371145644   -0.03124154405918
H         1.19081940827821    2.59190025795645    1.09023290807065
12
 energy: -21.533407828438 gnorm: 0.001680487779 xtb: 6.2.3 (830e466)
C         2.42053216763874    2.10224823687706   -0.53938087236778
C         1.33712098812862    1.99874782822907    0.20215926702296
C         0.35588172766321   -0.73664803273927   -2.88836542641191
O         0.67625369511383    0.55490069753766   -3.04283718056586
O        -0.40485075487108    1.41827109447699   -2.76199390338046
O         1.14632104392744   -1.59964827981077   -3.08545443579384
H         0.02491968904112    2.28480836726303   -2.69984230918736
H         3.21264986297153    2.79132367849625   -0.29666269663875
H         2.57373544954799    1.49810664999302   -1.41936702353934
H        -0.69063322201497   -0.87304603080082   -2.56201628046569
H         0.54585313942088    1.30469918629188   -0.02979266978544
H         1.19121621343297    2.59583660418605    1.08773353111317
12
 energy: -21.533381620076 gnorm: 0.009862553218 xtb: 6.2.3 (830e466)
C         2.41578156435071    2.09823498249139   -0.54532466444446
C         1.33193172790679    2.00822007132499    0.19641172470264
C         0.35966113545671   -0.73644347577830   -2.88600978665677
O         0.68560233112070    0.55114044755935   -3.03101860278798
O        -0.39609157880484    1.41315933213051   -2.75826604097563
O         1.14410075755137   -1.59967518914331   -3.09585569196929
H         0.04066373992737    2.27785471836742   -2.64270188914223
H         3.20826633540681    2.79368433373834   -0.31195443255510
H         2.56546761232105    1.48663467139326   -1.42042598111060
H        -0.69656948667751   -0.87393225045826   -2.59032945190194
H         0.53988081615274    1.30570533365934   -0.02538023230673
H         1.19030504528838    2.61501702471541    1.07503504914783
12
 energy: -21.533448593144 gnorm: 0.007195698656 xtb: 6.2.3 (830e466)
C         2.41419956628560    2.09918797203232   -0.54743838141605
C         1.33244876953315    2.00708465587471    0.19748203027196
C         0.35757019092535   -0.73751629998335   -2.89452858785746
O         0.68692608284602    0.55103950110636   -3.02849622036464
O        -0.39455247798837    1.41448554023216   -2.75778889518086
O         1.14513323428841   -1.60113901029792   -3.09503383779643
H         0.04338891344692    2.27658341631383   -2.63297175631965
H         3.20697443200110    2.79369913061562   -0.31477741598163
H         2.56539652041361    1.48420626502102   -1.41996725931717
H        -0.69603285062767   -0.87430975201939   -2.59011303069883
H         0.53876861170009    1.30819655029882   -0.02522851937172
H         1.18877900717606    2.61808203080596    1.07304187403221
12
 energy: -21.533482849973 gnorm: 0.001433163605 xtb: 6.2.3 (830e466)
C         2.41168121126786    2.10157055753318   -0.55032028335515
C         1.32988987832931    2.01004110430303    0.19548938335531
C         0.35678653564495   -0.73938866233937   -2.89905104591013
O         0.68706860326637    0.55110977503532   -3.02829869423839
O        -0.39079956259940    1.41793601525521   -2.74916861890118
O         1.14524126909108   -1.60434642752132   -3.09854360254467
H         0.04719316043575    2.27515419629185   -2.62883324655586
H         3.20536781570282    2.79260587361328   -0.31740947449125
H         2.56603338205649    1.48105064642885   -1.41857843131913
H        -0.69560833036849   -0.87562573149977   -2.59101679937098
H         0.53925135272034    1.30995815803954   -0.02270977996519
H         1.18689468445322    2.61953449486034    1.07262059329635
12
 energy: -21.533530224271 gnorm: 0.003118036416 xtb: 6.2.3 (830e466)
C         2.40833038663576    2.09775369294594   -0.55439898034790
C         1.32732811629006    2.01455815020173    0.19390536613718
C         0.35614059273598   -0.74245699874378   -2.90988720134438
O         0.69485221760562    0.54831157257593   -3.01762315306829
O        -0.38102712096307    1.41841818419959   -2.74081845874470
O         1.14372424592197   -1.60883239209114   -3.10815844098767
H         0.06414484588356    2.26673560611135   -2.57663319305126
H         3.19895003506796    2.79614609376687   -0.33374562365249
H         2.55964390344095    1.47178190623997   -1.41924365032181
H        -0.69923036770732   -0.87797626448580   -2.61156682883982
H         0.53419127797132    1.31623249838308   -0.01823252050455
H         1.18195186711747    2.63892795089640    1.06058268472546
12
 energy: -21.533581821212 gnorm: 0.008036397400 xtb: 6.2.3 (830e466)
C         2.39983708985284    2.09778905544792   -0.56442749004984
C         1.32098033467419    2.02551885317805    0.18830222589349
C         0.35626015350594   -0.74636653699408   -2.92228531548982
O         0.70629040147384    0.54401021779078   -3.00308892971183
O        -0.36635485986915    1.41834751701208   -2.72785671696849
O         1.14037855136785   -1.61471838525580   -3.12424674035891
H         0.08895151708057    2.25307104845280   -2.50092531487603
H         3.19112554261153    2.79930202878984   -0.35573418789088
H         2.55177620599927    1.45517678252159   -1.41742417411616
H        -0.70472981238837   -0.88046188229331   -2.64281851319234
H         0.52799062074335    1.32243966306338   -0.00953410240304
H         1.17649425494840    2.66549163828690    1.04421925916367
12
 energy: -21.533662395854 gnorm: 0.007571105836 xtb: 6.2.3 (830e466)
C         2.39152166077387    2.09596464170188   -0.57219142507190
C         1.31433096898116    2.03641646704346    0.18428718563634
C         0.35676905310846   -0.75140628879701   -2.93474315692185
O         0.71800477124470    0.53833530682790   -2.99127477569521
O        -0.34552768312199    1.41868760730947   -2.69957327456624
O         1.13363634320304   -1.62271165076719   -3.14996656565805
H         0.11791586650061    2.23621685276339   -2.43067271134884
H         3.18093330763017    2.80462800471866   -0.38041566632365
H         2.54137122049369    1.43925406444513   -1.41513547945836
H        -0.70936472402433   -0.88222135161759   -2.67374383292136
H         0.52033483076534    1.33070585174241    0.00122795569279
H         1.16907438444555    2.69573049462965    1.02638174663619
12
 energy: -21.533780350882 gnorm: 0.003756213022 xtb: 6.2.3 (830e466)
C         2.37897229234044    2.09709442322887   -0.58186000190010
C         1.30395333738195    2.05416967294502    0.17915131877467
C         0.35584196377436   -0.75800854088735   -2.95419817154061
O         0.73322428346227    0.52912942123499   -2.97927853698083
O        -0.31560396550806    1.41705572626481   -2.65656931295309
O         1.12114486417112   -1.63409777131171   -3.19095189457463
H         0.15680282338971    2.21082645481802   -2.35183672193177
H         3.16694824097707    2.81291108897720   -0.41116513598774
H         2.52863377758916    1.41864116694823   -1.40809874771246
H        -0.71383514399644   -0.88086629233212   -2.70698530401958
H         0.51207727167172    1.33951393341057    0.02007829500125
H         1.16084025474693    2.73323071670363    1.00589421382482
12
 energy: -21.533810113570 gnorm: 0.014798510364 xtb: 6.2.3 (830e466)
C         2.35484560375147    2.10233096636918   -0.60151790236326
C         1.28490787652502    2.09080190969700    0.16939083184062
C         0.35112556757249   -0.77023468449842   -2.99653598377848
O         0.76416924658852    0.51001179544467   -2.95139811746981
O        -0.26333343963807    1.41133177064691   -2.59721050436523
O         1.09724832136034   -1.65541814599837   -3.26331945482282
H         0.23116452895347    2.15741701936817   -2.18369485329212
H         3.14059948097017    2.83083848500017   -0.47048614722958
H         2.50651491269251    1.37962536687344   -1.39257931153164
H        -0.72629181475168   -0.87660010683886   -2.77617055257348
H         0.50033894617224    1.35424186390102    0.05980943227708
H         1.14771076980375    2.80525376003525    0.96789256330873
12
 energy: -21.534012239863 gnorm: 0.004176443103 xtb: 6.2.3 (830e466)
C         2.35555588952247    2.10763758506080   -0.59604527694017
C         1.28798164394270    2.09067351422632    0.17625665581299
C         0.34727302981187   -0.76849595772499   -2.99885342515325
O         0.76192786876702    0.50616891010201   -2.95981147179191
O        -0.26437535558976    1.40510726580769   -2.60296133091391
O         1.08939492317110   -1.65410150112170   -3.27189252089687
H         0.22833574530789    2.14856615741230   -2.21452990559894
H         3.13949093822708    2.83655910605012   -0.46570115021732
H         2.51022270020508    1.38575605758020   -1.38396316019041
H        -0.72619122892654   -0.86819167074438   -2.76367806528982
H         0.50863156243853    1.34896599635449    0.07060093981434
H         1.15075228312278    2.80095453699728    0.97475871136527
12
 energy: -21.534162763079 gnorm: 0.004822002908 xtb: 6.2.3 (830e466)
C         2.34448955165177    2.11576452060985   -0.59906910879027
C         1.28348939162079    2.10987825828116    0.18259241720115
C         0.33869297789369   -0.77599184629647   -3.02951123050828
O         0.77704798678096    0.48860739775415   -2.95321450011721
O        -0.23478289729306    1.39560737425819   -2.57792733000488
O         1.06498421275862   -1.66753926648400   -3.32616265486846
H         0.26962409114491    2.10622470655680   -2.14162632393783
H         3.12135216399853    2.85802056606259   -0.49754524698821
H         2.50351293023943    1.36946018412538   -1.36319997647462
H        -0.73654732299055   -0.85981689640906   -2.79684419900198
H         0.51291728571264    1.35450242107776    0.10773295963711
H         1.14421962848248    2.84488258046377    0.95895519385354
12
 energy: -21.534251392126 gnorm: 0.019835405552 xtb: 6.2.3 (830e466)
C         2.32510505217998    2.13903274778855   -0.59745312597943
C         1.27965118377281    2.15708580993432    0.20726603598607
C         0.31122888835960   -0.79795091098717   -3.11142733862214
O         0.80992632856425    0.43941189314509   -2.94203635676593
O        -0.16625618092577    1.36993115765178   -2.53059226551345
O         0.99853952674343   -1.70318127425940   -3.46064413343353
H         0.36391627990705    1.99724345936403   -1.97150950631189
H         3.07605498889781    2.92062037195331   -0.57189683273572
H         2.49854988324350    1.33698516740536   -1.30312023083831
H        -0.77027361328803   -0.84424941284869   -2.88634592950797
H         0.53441565920425    1.37081238333768    0.20676566859568
H         1.12814200334133    2.95385860751523    0.92517401512681
12
 energy: -21.534489911532 gnorm: 0.005681730062 xtb: 6.2.3 (830e466)
C         2.33795018785641    2.14114842988125   -0.58477763350029
C         1.29091425697029    2.14560085641584    0.21721598888949
C         0.30846001928148   -0.79637043025811   -3.10235779731755
O         0.79596451054309    0.44060043791690   -2.95679237283627
O        -0.18701930447125    1.36776594736472   -2.55854674472165
O         1.00178636834571   -1.69783487565939   -3.43984567156576
H         0.33244880225868    2.01259526360986   -2.03996075045968
H         3.08610531112880    2.91877163641288   -0.54596049418782
H         2.51399486221513    1.35673118041800   -1.30172333412186
H        -0.77043063705265   -0.84838888090294   -2.86436924385939
H         0.54541089681572    1.36943688513349    0.19811937581663
H         1.13341472610881    2.92954354966761    0.94317867786430
12
 energy: -21.534609701267 gnorm: 0.007201262940 xtb: 6.2.3 (830e466)
C         2.33284817394020    2.15295695207631   -0.58168292545256
C         1.28942986608441    2.16691441089530    0.22576062781180