      -----------------------------------------------------------      
     |                   =====================                   |     
     |                           x T B                           |     
     |                   =====================                   |     
     |                         S. Grimme                         |     
     |          Mulliken Center for Theoretical Chemistry        |     
     |                    University of Bonn                     |     
      -----------------------------------------------------------      

   * xtb version 6.2.3 (830e466) compiled by 'ehlert@majestix' on 2020-03-16

   xtb is free software: you can redistribute it and/or modify it under
   the terms of the GNU Lesser General Public License as published by
   the Free Software Foundation, either version 3 of the License, or
   (at your option) any later version.
   
   xtb is distributed in the hope that it will be useful,
   but WITHOUT ANY WARRANTY; without even the implied warranty of
   MERCHANTABILITY or FITNESS FOR A PARTICULAR PURPOSE.  See the
   GNU Lesser General Public License for more details.
   
   Cite this work as:
   * S. Grimme, C. Bannwarth, P. Shushkov, J. Chem. Theory Comput., 2017,
     13, 1989-2009. DOI: 10.1021/acs.jctc.7b00118
   * C. Bannwarth, S. Ehlert and S. Grimme., J. Chem. Theory Comput., 2019,
     15, 1652-1671. DOI: 10.1021/acs.jctc.8b01176
   * P. Pracht, E. Caldeweyher, S. Ehlert, S. Grimme, ChemRxiv, 2019, preprint.
     DOI: 10.26434/chemrxiv.8326202.v1
   
   for DFT-D4:
   * E. Caldeweyher, C. Bannwarth and S. Grimme, J. Chem. Phys., 2017,
     147, 034112. DOI: 10.1063/1.4993215
   * E. Caldeweyher, S. Ehlert, A. Hansen, H. Neugebauer, S. Spicher,
     C. Bannwarth and S. Grimme, J. Chem. Phys., 2019, 150, 154122.
     DOI: 10.1063/1.5090222
   
   for sTDA-xTB:
   * S. Grimme and C. Bannwarth, J. Chem. Phys., 2016, 145, 054103.
     DOI: 10.1063/1.4959605
   
   in the mass-spec context:
   * V. Asgeirsson, C. Bauer and S. Grimme, Chem. Sci., 2017, 8, 4879.
     DOI: 10.1039/c7sc00601b
   
   for metadynamics refer to:
   * S. Grimme, J. Chem. Theory Comput., 2019, 155, 2847-2862
     DOI: 10.1021/acs.jctc.9b00143
   
   with help from (in alphabetical order)
   C. Bannwarth, F. Bohle, G. Brandenburg, E. Caldeweyher, M. Checinski,
   S. Dohm, S. Ehlert, S. Ehrlich, F. März, H. Neugebauer, J. Pisarek,
   P. Pracht, P. Shushkov, and S. Spicher.
   
 * started run on 2020/12/23 at 21:43:09.866     

           -------------------------------------------------
          |                Calculation Setup                |
           -------------------------------------------------

          program call               : xtb -c 0 -u 0 -a 1.0 --iterations 100 --opt normal --namespace product_30 /scratch/bell/zhao922/YARP/paper-example/potential_product/test/reaction_channel/pp_0/pp_5_0.xyz
          hostname                   : bell-fe05.rcac.purdue.edu
          calculation namespace      : product_30
          coordinate file            : /scratch/bell/zhao922/YARP/paper-example/potential_product/test/reaction_channel/pp_0/pp_5_0.xyz
          omp threads                :                    32
          number of atoms            :                    12
          number of electrons        :                    36
          charge                     :                     0
          spin                       :                   0.0
          first test random number   :      0.49884900702264

           ------------------------------------------------- 
          |                 G F N 2 - x T B                 |
          | Geometry, Frequencies, Noncovalent interactions |
          |            JCTC 2019 parametrisation            |
           ------------------------------------------------- 
             k(s)              :                1.8500
             k(p)              :                2.2300
             k(d)              :                2.2300
             k(f)              :                2.0000
             kEN (H0ij)        :               -2.0000
             D4 a1             :                0.5200
             D4 a2             :                5.0000
             D4 s6             :                1.0000
             D4 s8             :                2.7000
             D4 s9             :                5.0000
             alphaj            :                2.0000

  Z AO/shell   Hii/eV     exponent
  1     Wed Apr 25 08:07:45 CEST 2018   EN: 2.200 GM2: 0.406  GM3: 0.0800  RAES: 1.40
     1s    -10.707211    1.230000
  6     Wed Apr 25 08:07:45 CEST 2018   EN: 2.550 GM2: 0.538  GM3: 0.1500  RAES: 3.00
     2s    -13.970922    2.096432
     2p    -10.063292    1.800000
  8     Wed Apr 25 08:07:45 CEST 2018   EN: 3.440 GM2: 0.452  GM3:-0.0517  RAES: 1.80
     2s    -20.229985    2.439742
     2p    -15.503117    2.137023

           ------------------------------------------------- 
          |        Self-Consistent Charge Iterations        |
           ------------------------------------------------- 

          ...................................................
          :                      SETUP                      :
          :.................................................:
          :  # basis functions                  30          :
          :  # atomic orbitals                  30          :
          :  # shells                           18          :
          :  # electrons                        36          :
          :  max. iterations                   100          :
          :  Hamiltonian                  GFN2-xTB          :
          :  restarted?                      false          :
          :  GBSA solvation                  false          :
          :  PC potential                    false          :
          :  electronic temp.          300.0000000     K    :
          :  accuracy                    1.0000000          :
          :  -> integral cutoff          0.2500000E+02      :
          :  -> integral neglect         0.1000000E-07      :
          :  -> SCF convergence          0.1000000E-05 Eh   :
          :  -> wf. convergence          0.1000000E-03 e    :
          :  Broyden damping             0.4000000          :
          ...................................................

 iter      E             dE          RMSdq      gap      omega  full diag
   1    -21.7269832 -0.217270E+02  0.571E+00    3.93       0.0  T
   2    -21.7708544 -0.438712E-01  0.286E+00    3.02       1.0  T
   3    -21.7709786 -0.124165E-03  0.182E+00    3.38       1.0  T
   4    -21.7791390 -0.816048E-02  0.238E-01    3.06       1.0  T
   5    -21.7792822 -0.143121E-03  0.102E-01    3.13       1.0  T
   6    -21.7793008 -0.186021E-04  0.360E-02    3.14       1.0  T
   7    -21.7793013 -0.587990E-06  0.744E-03    3.13       3.9  T
   8    -21.7793016 -0.245372E-06  0.249E-03    3.13      11.6  T
   9    -21.7793016 -0.193660E-07  0.769E-04    3.13      37.5  T
  10    -21.7793016 -0.195637E-08  0.175E-04    3.13     164.5  T

   *** convergence criteria satisfied after 10 iterations ***

         #    Occupation            Energy/Eh            Energy/eV
      -------------------------------------------------------------
         1        2.0000           -0.7322826             -19.9264
       ...           ...                  ...                  ...
        12        2.0000           -0.5365395             -14.6000
        13        2.0000           -0.5133576             -13.9692
        14        2.0000           -0.5072191             -13.8021
        15        2.0000           -0.4771397             -12.9836
        16        2.0000           -0.4578238             -12.4580
        17        2.0000           -0.4305658             -11.7163
        18        2.0000           -0.4077798             -11.0963 (HOMO)
        19                         -0.2926383              -7.9631 (LUMO)
        20                          0.0148855               0.4051
        21                          0.0325051               0.8845
        22                          0.0621488               1.6912
        23                          0.0923832               2.5139
       ...                                ...                  ...
        30                          0.5155313              14.0283
      -------------------------------------------------------------
                  HL-Gap            0.1151414 Eh            3.1332 eV
             Fermi-level           -0.3502091 Eh           -9.5297 eV

 SCC (total)                   0 d,  0 h,  0 min,  0.009 sec
 SCC setup                      ...        0 min,  0.000 sec (  1.444%)
 Dispersion                     ...        0 min,  0.000 sec (  0.904%)
 integral evaluation            ...        0 min,  0.002 sec ( 23.977%)
 zeroth order Hamiltonian       ...        0 min,  0.000 sec (  0.692%)
 iterations                     ...        0 min,  0.005 sec ( 53.491%)
 molecular gradient             ...        0 min,  0.001 sec ( 16.692%)
 printout                       ...        0 min,  0.000 sec (  0.854%)

         :::::::::::::::::::::::::::::::::::::::::::::::::::::
         ::                     SUMMARY                     ::
         :::::::::::::::::::::::::::::::::::::::::::::::::::::
         :: total energy             -21.621716366597 Eh    ::
         :: gradient norm              0.082321570871 Eh/a0 ::
         :: HOMO-LUMO gap              3.133158177281 eV    ::
         ::.................................................::
         :: SCC energy               -21.779301614919 Eh    ::
         :: -> isotropic ES            0.062301588431 Eh    ::
         :: -> anisotropic ES          0.001814640959 Eh    ::
         :: -> anisotropic XC         -0.001056847814 Eh    ::
         :: -> dispersion             -0.005918033985 Eh    ::
         :: repulsion energy           0.157581689067 Eh    ::
         :: add. restraining           0.000000000000 Eh    ::
         :::::::::::::::::::::::::::::::::::::::::::::::::::::

      ----------------------------------------------------------- 
     |                   =====================                   |
     |                        A N C O P T                        |
     |                   =====================                   |
     |               Approximate Normal Coordinate               |
     |                Rational Function Optimizer                |
      ----------------------------------------------------------- 

          ...................................................
          :                      SETUP                      :
          :.................................................:
          :   optimization level            normal          :
          :   max. optcycles                   200          :
          :   ANC micro-cycles                  20          :
          :   degrees of freedom                30          :
          :.................................................:
          :   RF solver                   davidson          :
          :   write xtbopt.log                true          :
          :   linear?                        false          :
          :   energy convergence         0.5000000E-05 Eh   :
          :   grad. convergence          0.1000000E-02 Eh/α :
          :   maximium RF displ.         1.0000000          :
          :   Hlow (freq-cutoff)         0.1000000E-01      :
          :   Hmax (freq-cutoff)         5.0000000          :
          :   S6 in model hess.         20.0000000          :
          ...................................................

generating ANC from model Hessian ...
Using Lindh-Hessian (1995)
 Shifting diagonal of input Hessian by   6.899604593242219E-003
 Lowest  eigenvalues of input Hessian
   -0.000000   -0.000000   -0.000000   -0.000000    0.000000    0.000000
    0.010000    0.012872    0.017664    0.024525    0.034988    0.044701
    0.056430    0.069337    0.078218    0.084508    0.088713    0.106260
 Highest eigenvalues
    1.178607    1.264016    1.366194    1.457816    1.579918    2.099656
 

........................................................................
.............................. CYCLE    1 ..............................
........................................................................
   1    -21.7793016 -0.217793E+02  0.675E-05    3.13       0.0  T
   2    -21.7793016 -0.120224E-10  0.357E-05    3.13     809.1  T
   3    -21.7793016 -0.788702E-12  0.173E-05    3.13    1668.8  T
     SCC iter.                  ...        0 min,  0.002 sec
     gradient                   ...        0 min,  0.002 sec
 * total energy  :   -21.6217164 Eh     change        0.1240971E-07 Eh
   gradient norm :     0.0823240 Eh/α   predicted     0.0000000E+00 (-100.00%)
   displ. norm   :     0.1914600 α      lambda       -0.7571416E-02
   maximum displ.:     0.0921444 α      in ANC's #1, #9, #5, ...

........................................................................
.............................. CYCLE    2 ..............................
........................................................................
   1    -21.7928439 -0.217928E+02  0.309E-01    3.25       0.0  T
   2    -21.7929454 -0.101502E-03  0.188E-01    3.22       1.0  T
   3    -21.7929485 -0.308135E-05  0.646E-02    3.20       1.0  T
   4    -21.7929566 -0.815964E-05  0.232E-02    3.21       1.2  T
   5    -21.7929589 -0.226862E-05  0.744E-03    3.20       3.9  T
   6    -21.7929590 -0.145574E-06  0.395E-03    3.21       7.3  T
   7    -21.7929591 -0.142402E-07  0.811E-04    3.21      35.6  T
     SCC iter.                  ...        0 min,  0.004 sec
     gradient                   ...        0 min,  0.002 sec
 * total energy  :   -21.6265470 Eh     change       -0.4830679E-02 Eh
   gradient norm :     0.0320805 Eh/α   predicted    -0.3924477E-02 ( -18.76%)
   displ. norm   :     0.2262282 α      lambda       -0.2266750E-02
   maximum displ.:     0.1627823 α      in ANC's #1, #2, #4, ...

........................................................................
.............................. CYCLE    3 ..............................
........................................................................
   1    -21.8003373 -0.218003E+02  0.280E-01    3.29       0.0  T
   2    -21.8003945 -0.572722E-04  0.172E-01    3.26       1.0  T
   3    -21.8003989 -0.436245E-05  0.437E-02    3.24       1.0  T
   4    -21.8004021 -0.316856E-05  0.128E-02    3.24       2.3  T
   5    -21.8004025 -0.472095E-06  0.548E-03    3.24       5.3  T
   6    -21.8004026 -0.905830E-07  0.301E-03    3.24       9.6  T
     SCC iter.                  ...        0 min,  0.004 sec
     gradient                   ...        0 min,  0.002 sec
 * total energy  :   -21.6274797 Eh     change       -0.9326694E-03 Eh
   gradient norm :     0.0126089 Eh/α   predicted    -0.1191383E-02 (  27.74%)
   displ. norm   :     0.1592676 α      lambda       -0.8418332E-03
   maximum displ.:     0.1173610 α      in ANC's #1, #5, #2, ...

........................................................................
.............................. CYCLE    4 ..............................
........................................................................
   1    -21.8007237 -0.218007E+02  0.166E-01    3.25       0.0  T
   2    -21.8007316 -0.789066E-05  0.104E-01    3.26       1.0  T
   3    -21.8007286  0.299281E-05  0.289E-02    3.25       1.0  T
   4    -21.8007341 -0.551308E-05  0.568E-03    3.25       5.1  T
   5    -21.8007342 -0.846280E-07  0.277E-03    3.25      10.4  T
   6    -21.8007342 -0.864105E-08  0.123E-03    3.25      23.6  T
     SCC iter.                  ...        0 min,  0.002 sec
     gradient                   ...        0 min,  0.002 sec
 * total energy  :   -21.6279577 Eh     change       -0.4780442E-03 Eh
   gradient norm :     0.0098256 Eh/α   predicted    -0.4315933E-03 (  -9.72%)
   displ. norm   :     0.1713445 α      lambda       -0.3505156E-03
   maximum displ.:     0.1395870 α      in ANC's #1, #2, #5, ...

........................................................................
.............................. CYCLE    5 ..............................
........................................................................
   1    -21.7987943 -0.217988E+02  0.177E-01    3.23       0.0  T
   2    -21.7987970 -0.269222E-05  0.109E-01    3.23       1.0  T
   3    -21.7987978 -0.852943E-06  0.907E-03    3.23       3.2  T
   4    -21.7987982 -0.405304E-06  0.384E-03    3.23       7.5  T
   5    -21.7987983 -0.262443E-07  0.152E-03    3.23      19.0  T
   6    -21.7987983 -0.180809E-08  0.470E-04    3.23      61.4  T
     SCC iter.                  ...        0 min,  0.003 sec
     gradient                   ...        0 min,  0.001 sec
 * total energy  :   -21.6282381 Eh     change       -0.2803502E-03 Eh
   gradient norm :     0.0063125 Eh/α   predicted    -0.1804041E-03 ( -35.65%)
   displ. norm   :     0.2499428 α      lambda       -0.3967332E-03
   maximum displ.:     0.1959753 α      in ANC's #1, #2, #4, ...

........................................................................
.............................. CYCLE    6 ..............................
........................................................................
   1    -21.7977303 -0.217977E+02  0.250E-01    3.21       0.0  T
   2    -21.7977351 -0.480924E-05  0.154E-01    3.22       1.0  T
   3    -21.7977373 -0.219208E-05  0.919E-03    3.22       3.1  T
   4    -21.7977375 -0.172751E-06  0.457E-03    3.22       6.3  T
   5    -21.7977375 -0.127446E-07  0.137E-03    3.22      21.1  T
   6    -21.7977375 -0.184015E-08  0.613E-04    3.22      47.1  T
     SCC iter.                  ...        0 min,  0.002 sec
     gradient                   ...        0 min,  0.001 sec
 * total energy  :   -21.6285533 Eh     change       -0.3151767E-03 Eh
   gradient norm :     0.0085262 Eh/α   predicted    -0.2107596E-03 ( -33.13%)
   displ. norm   :     0.3488357 α      lambda       -0.4641364E-03
   maximum displ.:     0.2667636 α      in ANC's #1, #2, #4, ...

........................................................................
.............................. CYCLE    7 ..............................
........................................................................
   1    -21.7968233 -0.217968E+02  0.334E-01    3.20       0.0  T
   2    -21.7968319 -0.867590E-05  0.206E-01    3.20       1.0  T
   3    -21.7968358 -0.384303E-05  0.131E-02    3.20       2.2  T
   4    -21.7968362 -0.428299E-06  0.678E-03    3.20       4.3  T
   5    -21.7968362 -0.267245E-07  0.172E-03    3.20      16.8  T
   6    -21.7968362 -0.235880E-08  0.801E-04    3.20      36.0  T
     SCC iter.                  ...        0 min,  0.003 sec
     gradient                   ...        0 min,  0.086 sec
 * total energy  :   -21.6289179 Eh     change       -0.3646699E-03 Eh
   gradient norm :     0.0122893 Eh/α   predicted    -0.2603022E-03 ( -28.62%)
   displ. norm   :     0.4239812 α      lambda       -0.5890690E-03
   maximum displ.:     0.3085746 α      in ANC's #1, #3, #4, ...

........................................................................
.............................. CYCLE    8 ..............................
........................................................................
   1    -21.7962338 -0.217962E+02  0.394E-01    3.18       0.0  T
   2    -21.7962485 -0.147095E-04  0.242E-01    3.19       1.0  T
   3    -21.7962539 -0.541027E-05  0.182E-02    3.18       1.6  T
   4    -21.7962550 -0.111590E-05  0.898E-03    3.19       3.2  T
   5    -21.7962550 -0.566397E-07  0.215E-03    3.19      13.4  T
   6    -21.7962551 -0.508475E-08  0.580E-04    3.19      49.7  T
     SCC iter.                  ...        0 min,  0.002 sec
     gradient                   ...        0 min,  0.001 sec
 * total energy  :   -21.6293362 Eh     change       -0.4182228E-03 Eh
   gradient norm :     0.0160194 Eh/α   predicted    -0.3474824E-03 ( -16.91%)
   displ. norm   :     0.2901541 α      lambda       -0.6547273E-03
   maximum displ.:     0.1998482 α      in ANC's #1, #3, #4, ...

........................................................................
.............................. CYCLE    9 ..............................
........................................................................
   1    -21.7992595 -0.217993E+02  0.270E-01    3.20       0.0  T
   2    -21.7992682 -0.870364E-05  0.166E-01    3.20       1.0  T
   3    -21.7992710 -0.282140E-05  0.144E-02    3.20       2.0  T
   4    -21.7992718 -0.742884E-06  0.688E-03    3.20       4.2  T
   5    -21.7992718 -0.324246E-07  0.308E-03    3.20       9.4  T
   6    -21.7992718 -0.284331E-07  0.123E-03    3.20      23.5  T
   7    -21.7992718 -0.321796E-08  0.293E-04    3.20      98.5  T
     SCC iter.                  ...        0 min,  0.002 sec
     gradient                   ...        0 min,  0.001 sec
 * total energy  :   -21.6298427 Eh     change       -0.5064958E-03 Eh
   gradient norm :     0.0126340 Eh/α   predicted    -0.3549235E-03 ( -29.93%)
   displ. norm   :     0.4441539 α      lambda       -0.8629058E-03
   maximum displ.:     0.3115009 α      in ANC's #1, #4, #2, ...

........................................................................
.............................. CYCLE   10 ..............................
........................................................................
   1    -21.7996677 -0.217997E+02  0.442E-01    3.25       0.0  T
   2    -21.7996858 -0.181349E-04  0.273E-01    3.25       1.0  T
   3    -21.7996936 -0.782752E-05  0.186E-02    3.24       1.6  T
   4    -21.7996945 -0.926978E-06  0.956E-03    3.25       3.0  T
   5    -21.7996946 -0.681608E-07  0.343E-03    3.25       8.4  T
   6    -21.7996946 -0.977061E-08  0.862E-04    3.25      33.5  T
   7    -21.7996946 -0.434181E-08  0.395E-04    3.25      73.1  T
     SCC iter.                  ...        0 min,  0.089 sec
     gradient                   ...        0 min,  0.002 sec
 * total energy  :   -21.6303913 Eh     change       -0.5486703E-03 Eh
   gradient norm :     0.0098967 Eh/α   predicted    -0.5165674E-03 (  -5.85%)
   displ. norm   :     0.2729747 α      lambda       -0.8648142E-03
   maximum displ.:     0.1325900 α      in ANC's #4, #3, #1, ...

........................................................................
.............................. CYCLE   11 ..............................
........................................................................
   1    -21.8063889 -0.218064E+02  0.280E-01    3.27       0.0  T
   2    -21.8064089 -0.199750E-04  0.173E-01    3.28       1.0  T
   3    -21.8064142 -0.530263E-05  0.213E-02    3.28       1.4  T
   4    -21.8064155 -0.124725E-05  0.887E-03    3.28       3.3  T
   5    -21.8064156 -0.101185E-06  0.392E-03    3.28       7.4  T
   6    -21.8064156 -0.147935E-07  0.746E-04    3.28      38.7  T
   7    -21.8064156 -0.156503E-08  0.252E-04    3.28     114.5  T
     SCC iter.                  ...        0 min,  0.002 sec
     gradient                   ...        0 min,  0.001 sec
 * total energy  :   -21.6307165 Eh     change       -0.3251312E-03 Eh
   gradient norm :     0.0149406 Eh/α   predicted    -0.4646264E-03 (  42.90%)
   displ. norm   :     0.5906540 α      lambda       -0.9737398E-03
   maximum displ.:     0.3292001 α      in ANC's #1, #4, #3, ...

........................................................................
.............................. CYCLE   12 ..............................
........................................................................
   1    -21.7943078 -0.217943E+02  0.568E-01    3.23       0.0  T
   2    -21.7943578 -0.500849E-04  0.351E-01    3.25       1.0  T
   3    -21.7943612 -0.333809E-05  0.473E-02    3.24       1.0  T
   4    -21.7943768 -0.155792E-04  0.160E-02    3.26       1.8  T
   5    -21.7943772 -0.401241E-06  0.970E-03    3.25       3.0  T
   6    -21.7943773 -0.172056E-06  0.209E-03    3.25      13.8  T
   7    -21.7943773 -0.679453E-08  0.618E-04    3.25      46.7  T
     SCC iter.                  ...        0 min,  0.002 sec
     gradient                   ...        0 min,  0.002 sec
 * total energy  :   -21.6301382 Eh     change        0.5782780E-03 Eh
   gradient norm :     0.0369752 Eh/α   predicted    -0.6567277E-03 (-213.57%)
   displ. norm   :     0.2459667 α      lambda       -0.2483278E-02
   maximum displ.:     0.1580862 α      in ANC's #3, #4, #1, ...

........................................................................
.............................. CYCLE   13 ..............................
........................................................................
   1    -21.8028022 -0.218028E+02  0.266E-01    3.37       0.0  T
   2    -21.8028317 -0.294206E-04  0.164E-01    3.35       1.0  T
   3    -21.8028315  0.174724E-06  0.371E-02    3.35       1.0  T
   4    -21.8028381 -0.664420E-05  0.899E-03    3.34       3.2  T
   5    -21.8028383 -0.212427E-06  0.572E-03    3.34       5.0  T
   6    -21.8028384 -0.573831E-07  0.184E-03    3.34      15.6  T
     SCC iter.                  ...        0 min,  0.002 sec
     gradient                   ...        0 min,  0.001 sec
 * total energy  :   -21.6312062 Eh     change       -0.1068042E-02 Eh
   gradient norm :     0.0137010 Eh/α   predicted    -0.1316755E-02 (  23.29%)
   displ. norm   :     0.0778108 α      lambda       -0.3661109E-03
   maximum displ.:     0.0382058 α      in ANC's #3, #5, #1, ...

........................................................................
.............................. CYCLE   14 ..............................
........................................................................
   1    -21.8038426 -0.218038E+02  0.977E-02    3.28       0.0  T
   2    -21.8038510 -0.831704E-05  0.600E-02    3.30       1.0  T
   3    -21.8038520 -0.108399E-05  0.168E-02    3.30       1.7  T
   4    -21.8038525 -0.454929E-06  0.517E-03    3.30       5.6  T
   5    -21.8038526 -0.976263E-07  0.236E-03    3.30      12.2  T
   6    -21.8038526 -0.122068E-07  0.136E-03    3.30      21.2  T
     SCC iter.                  ...        0 min,  0.002 sec
     gradient                   ...        0 min,  0.001 sec
 * total energy  :   -21.6313851 Eh     change       -0.1789142E-03 Eh
   gradient norm :     0.0089858 Eh/α   predicted    -0.1841662E-03 (   2.94%)
   displ. norm   :     0.1720429 α      lambda       -0.2957602E-03
   maximum displ.:     0.0818715 α      in ANC's #3, #4, #2, ...

........................................................................
.............................. CYCLE   15 ..............................
........................................................................
   1    -21.8042141 -0.218042E+02  0.161E-01    3.32       0.0  T
   2    -21.8042166 -0.250014E-05  0.997E-02    3.32       1.0  T
   3    -21.8042181 -0.153944E-05  0.821E-03    3.32       3.5  T
   4    -21.8042183 -0.215847E-06  0.487E-03    3.32       5.9  T
   5    -21.8042184 -0.334052E-07  0.146E-03    3.32      19.8  T
   6    -21.8042184 -0.456267E-08  0.503E-04    3.32      57.4  T
     SCC iter.                  ...        0 min,  0.002 sec
     gradient                   ...        0 min,  0.086 sec
 * total energy  :   -21.6316272 Eh     change       -0.2420883E-03 Eh
   gradient norm :     0.0091562 Eh/α   predicted    -0.1522574E-03 ( -37.11%)
   displ. norm   :     0.4354172 α      lambda       -0.5422063E-03
   maximum displ.:     0.2023347 α      in ANC's #1, #3, #4, ...

........................................................................
.............................. CYCLE   16 ..............................
........................................................................
   1    -21.7997793 -0.217998E+02  0.409E-01    3.32       0.0  T
   2    -21.7997980 -0.187621E-04  0.254E-01    3.33       1.0  T
   3    -21.7998057 -0.769996E-05  0.256E-02    3.32       1.1  T
   4    -21.7998096 -0.388813E-05  0.124E-02    3.33       2.3  T
   5    -21.7998098 -0.192392E-06  0.555E-03    3.33       5.2  T
   6    -21.7998099 -0.484810E-07  0.153E-03    3.33      18.9  T
   7    -21.7998099 -0.541602E-08  0.398E-04    3.33      72.5  T
     SCC iter.                  ...        0 min,  0.002 sec
     gradient                   ...        0 min,  0.002 sec
 * total energy  :   -21.6317746 Eh     change       -0.1473752E-03 Eh
   gradient norm :     0.0169562 Eh/α   predicted    -0.3225018E-03 ( 118.83%)
   displ. norm   :     0.1274943 α      lambda       -0.4220389E-03
   maximum displ.:     0.0695472 α      in ANC's #1, #4, #2, ...

........................................................................
.............................. CYCLE   17 ..............................
........................................................................
   1    -21.8050691 -0.218051E+02  0.126E-01    3.37       0.0  T
   2    -21.8050740 -0.484111E-05  0.781E-02    3.36       1.0  T
   3    -21.8050735  0.498444E-06  0.170E-02    3.37       1.7  T
   4    -21.8050752 -0.175460E-05  0.386E-03    3.36       7.5  T
   5    -21.8050753 -0.400971E-07  0.234E-03    3.36      12.3  T
   6    -21.8050753 -0.756188E-08  0.655E-04    3.36      44.1  T
     SCC iter.                  ...        0 min,  0.002 sec
     gradient                   ...        0 min,  0.002 sec
 * total energy  :   -21.6319758 Eh     change       -0.2011786E-03 Eh
   gradient norm :     0.0048577 Eh/α   predicted    -0.2144503E-03 (   6.60%)
   displ. norm   :     0.0829806 α      lambda       -0.1173056E-03
   maximum displ.:     0.0455577 α      in ANC's #3, #20, #5, ...

........................................................................
.............................. CYCLE   18 ..............................
........................................................................
   1    -21.8052508 -0.218053E+02  0.872E-02    3.36       0.0  T
   2    -21.8052523 -0.145802E-05  0.544E-02    3.36       1.0  T
   3    -21.8052529 -0.673227E-06  0.543E-03    3.36       5.3  T
   4    -21.8052530 -0.753193E-07  0.280E-03    3.36      10.3  T
   5    -21.8052530 -0.958797E-08  0.122E-03    3.36      23.6  T
     SCC iter.                  ...        0 min,  0.087 sec
     gradient                   ...        0 min,  0.002 sec
 * total energy  :   -21.6320727 Eh     change       -0.9689854E-04 Eh
   gradient norm :     0.0052500 Eh/α   predicted    -0.5905764E-04 ( -39.05%)
   displ. norm   :     0.2748990 α      lambda       -0.2755229E-03
   maximum displ.:     0.1601315 α      in ANC's #3, #20, #5, ...

........................................................................
.............................. CYCLE   19 ..............................
........................................................................
   1    -21.8041183 -0.218041E+02  0.277E-01    3.35       0.0  T
   2    -21.8041283 -0.100066E-04  0.173E-01    3.35       1.0  T
   3    -21.8041343 -0.600612E-05  0.151E-02    3.35       1.9  T
   4    -21.8041350 -0.662848E-06  0.885E-03    3.35       3.3  T
   5    -21.8041351 -0.820470E-07  0.370E-03    3.35       7.8  T
   6    -21.8041351 -0.347899E-07  0.115E-03    3.35      25.1  T
   7    -21.8041351 -0.457069E-08  0.199E-04    3.35     145.3  T
     SCC iter.                  ...        0 min,  0.002 sec
     gradient                   ...        0 min,  0.002 sec
 * total energy  :   -21.6322262 Eh     change       -0.1534807E-03 Eh
   gradient norm :     0.0106324 Eh/α   predicted    -0.1481716E-03 (  -3.46%)
   displ. norm   :     0.0525802 α      lambda       -0.1203755E-03
   maximum displ.:     0.0261655 α      in ANC's #3, #5, #19, ...

........................................................................
.............................. CYCLE   20 ..............................
........................................................................
   1    -21.8049633 -0.218050E+02  0.595E-02    3.37       0.0  T
   2    -21.8049639 -0.646648E-06  0.368E-02    3.37       1.0  T
   3    -21.8049638  0.110008E-06  0.728E-03    3.37       4.0  T
   4    -21.8049642 -0.402222E-06  0.210E-03    3.37      13.7  T
   5    -21.8049642 -0.488287E-08  0.109E-03    3.37      26.5  T
     SCC iter.                  ...        0 min,  0.002 sec
     gradient                   ...        0 min,  0.289 sec
 * total energy  :   -21.6323081 Eh     change       -0.8194689E-04 Eh
   gradient norm :     0.0060342 Eh/α   predicted    -0.6035543E-04 ( -26.35%)
   displ. norm   :     0.1411524 α      lambda       -0.1214162E-03
   maximum displ.:     0.0915924 α      in ANC's #3, #1, #20, ...
 * RMSD in coord.:     1.0298857 α      energy gain  -0.1059174E-01 Eh

generating ANC from model Hessian ...
Using Lindh-Hessian (1995)
 Shifting diagonal of input Hessian by   7.145486350507452E-003
 Lowest  eigenvalues of input Hessian
   -0.000000   -0.000000    0.000000    0.000000    0.000000    0.000000
    0.010000    0.014614    0.015735    0.024870    0.041878    0.048976
    0.061049    0.075969    0.083547    0.088409    0.103355    0.115537
 Highest eigenvalues
    1.173758    1.275507    1.359155    1.532285    1.665385    2.217182
 

........................................................................
.............................. CYCLE   21 ..............................
........................................................................
   1    -21.8058025 -0.218058E+02  0.160E-01    3.39       0.0  T
   2    -21.8058051 -0.267355E-05  0.989E-02    3.39       1.0  T
   3    -21.8058072 -0.208877E-05  0.749E-03    3.39       3.9  T
   4    -21.8058073 -0.472640E-07  0.378E-03    3.39       7.6  T
   5    -21.8058073 -0.204558E-07  0.587E-04    3.39      49.2  T
   6    -21.8058073 -0.827612E-09  0.265E-04    3.39     108.9  T
     SCC iter.                  ...        0 min,  0.001 sec
     gradient                   ...        0 min,  0.001 sec
 * total energy  :   -21.6323945 Eh     change       -0.8634591E-04 Eh
   gradient norm :     0.0051762 Eh/α   predicted     0.0000000E+00 (-100.00%)
   displ. norm   :     0.0868191 α      lambda       -0.1569585E-03
   maximum displ.:     0.0782460 α      in ANC's #1, #6, #4, ...

........................................................................
.............................. CYCLE   22 ..............................
........................................................................
   1    -21.8053621 -0.218054E+02  0.102E-01    3.40       0.0  T
   2    -21.8053633 -0.113606E-05  0.629E-02    3.40       1.0  T
   3    -21.8053639 -0.633582E-06  0.519E-03    3.40       5.6  T
   4    -21.8053640 -0.790380E-07  0.306E-03    3.40       9.4  T
   5    -21.8053640 -0.144488E-07  0.127E-03    3.40      22.6  T
   6    -21.8053640 -0.357610E-08  0.413E-04    3.40      69.9  T
     SCC iter.                  ...        0 min,  0.001 sec
     gradient                   ...        0 min,  0.001 sec
 * total energy  :   -21.6324508 Eh     change       -0.5634195E-04 Eh
   gradient norm :     0.0040899 Eh/α   predicted    -0.7906938E-04 (  40.34%)
   displ. norm   :     0.0633959 α      lambda       -0.9087860E-04
   maximum displ.:     0.0556961 α      in ANC's #1, #3, #4, ...

........................................................................
.............................. CYCLE   23 ..............................
........................................................................
   1    -21.8052034 -0.218052E+02  0.571E-02    3.41       0.0  T
   2    -21.8052037 -0.318191E-06  0.347E-02    3.41       1.0  T
   3    -21.8052037 -0.166873E-07  0.376E-03    3.41       7.7  T
   4    -21.8052038 -0.101399E-06  0.150E-03    3.41      19.2  T
   5    -21.8052038 -0.472752E-08  0.699E-04    3.41      41.3  T
     SCC iter.                  ...        0 min,  0.001 sec
     gradient                   ...        0 min,  0.001 sec
 * total energy  :   -21.6325191 Eh     change       -0.6832452E-04 Eh
   gradient norm :     0.0015238 Eh/α   predicted    -0.4562318E-04 ( -33.23%)
   displ. norm   :     0.1463670 α      lambda       -0.6868570E-04
   maximum displ.:     0.1325312 α      in ANC's #1, #3, #4, ...

........................................................................
.............................. CYCLE   24 ..............................
........................................................................
   1    -21.8048552 -0.218049E+02  0.137E-01    3.42       0.0  T
   2    -21.8048567 -0.153759E-05  0.836E-02    3.42       1.0  T
   3    -21.8048570 -0.260852E-06  0.941E-03    3.42       3.1  T
   4    -21.8048576 -0.646840E-06  0.386E-03    3.42       7.5  T
   5    -21.8048576 -0.169351E-07  0.147E-03    3.42      19.6  T
   6    -21.8048576 -0.343360E-08  0.412E-04    3.42      70.0  T
   7    -21.8048576 -0.388876E-09  0.123E-04    3.42     235.6  T
     SCC iter.                  ...        0 min,  0.002 sec
     gradient                   ...        0 min,  0.091 sec
 * total energy  :   -21.6325929 Eh     change       -0.7380426E-04 Eh
   gradient norm :     0.0028925 Eh/α   predicted    -0.3467096E-04 ( -53.02%)
   displ. norm   :     0.0691345 α      lambda       -0.4211129E-04
   maximum displ.:     0.0636434 α      in ANC's #1, #3, #2, ...

........................................................................
.............................. CYCLE   25 ..............................
........................................................................
   1    -21.8050395 -0.218050E+02  0.674E-02    3.43       0.0  T
   2    -21.8050399 -0.328548E-06  0.413E-02    3.43       1.0  T
   3    -21.8050400 -0.171822E-06  0.351E-03    3.43       8.2  T
   4    -21.8050401 -0.566584E-07  0.196E-03    3.43      14.7  T
   5    -21.8050401 -0.454713E-08  0.601E-04    3.43      48.0  T
   6    -21.8050401 -0.753779E-09  0.147E-04    3.43     196.3  T
     SCC iter.                  ...        0 min,  0.001 sec
     gradient                   ...        0 min,  0.002 sec
 * total energy  :   -21.6326322 Eh     change       -0.3924377E-04 Eh
   gradient norm :     0.0023466 Eh/α   predicted    -0.2115610E-04 ( -46.09%)
   displ. norm   :     0.0882505 α      lambda       -0.5629407E-04
   maximum displ.:     0.0804089 α      in ANC's #1, #3, #2, ...

........................................................................
.............................. CYCLE   26 ..............................
........................................................................
   1    -21.8054736 -0.218055E+02  0.860E-02    3.43       0.0  T
   2    -21.8054741 -0.465946E-06  0.525E-02    3.43       1.0  T
   3    -21.8054744 -0.297007E-06  0.366E-03    3.43       7.9  T
   4    -21.8054744 -0.268220E-07  0.227E-03    3.44      12.7  T
   5    -21.8054744 -0.669854E-08  0.761E-04    3.43      37.9  T
   6    -21.8054744 -0.174776E-08  0.220E-04    3.44     131.5  T
     SCC iter.                  ...        0 min,  0.001 sec
     gradient                   ...        0 min,  0.091 sec
 * total energy  :   -21.6326821 Eh     change       -0.4995216E-04 Eh
   gradient norm :     0.0011843 Eh/α   predicted    -0.2836643E-04 ( -43.21%)
   displ. norm   :     0.1773513 α      lambda       -0.6206814E-04
   maximum displ.:     0.1608861 α      in ANC's #1, #3, #5, ...

........................................................................
.............................. CYCLE   27 ..............................
........................................................................
   1    -21.8057280 -0.218057E+02  0.172E-01    3.44       0.0  T
   2    -21.8057296 -0.158498E-05  0.104E-01    3.44       1.0  T
   3    -21.8057306 -0.100152E-05  0.701E-03    3.44       4.1  T
   4    -21.8057307 -0.108756E-06  0.435E-03    3.44       6.6  T
   5    -21.8057307 -0.289879E-07  0.136E-03    3.44      21.1  T
   6    -21.8057307 -0.441732E-08  0.426E-04    3.44      67.8  T
   7    -21.8057307 -0.435019E-09  0.893E-05    3.44     323.3  T
     SCC iter.                  ...        0 min,  0.002 sec
     gradient                   ...        0 min,  0.001 sec
 * total energy  :   -21.6327615 Eh     change       -0.7934392E-04 Eh
   gradient norm :     0.0029460 Eh/α   predicted    -0.3146673E-04 ( -60.34%)
   displ. norm   :     0.1493806 α      lambda       -0.7190721E-04
   maximum displ.:     0.1349869 α      in ANC's #1, #5, #3, ...

........................................................................
.............................. CYCLE   28 ..............................
........................................................................
   1    -21.8057430 -0.218057E+02  0.144E-01    3.45       0.0  T
   2    -21.8057441 -0.103349E-05  0.872E-02    3.45       1.0  T
   3    -21.8057447 -0.597763E-06  0.564E-03    3.45       5.1  T
   4    -21.8057448 -0.864214E-07  0.347E-03    3.45       8.3  T
   5    -21.8057448 -0.156668E-07  0.115E-03    3.45      25.1  T
   6    -21.8057448 -0.375710E-08  0.353E-04    3.45      81.7  T
   7    -21.8057448 -0.262009E-09  0.993E-05    3.45     290.7  T
     SCC iter.                  ...        0 min,  0.002 sec
     gradient                   ...        0 min,  0.001 sec
 * total energy  :   -21.6328306 Eh     change       -0.6918223E-04 Eh
   gradient norm :     0.0048398 Eh/α   predicted    -0.3675428E-04 ( -46.87%)
   displ. norm   :     0.5658142 α      lambda       -0.2816606E-03
   maximum displ.:     0.5100616 α      in ANC's #1, #5, #3, ...

........................................................................
.............................. CYCLE   29 ..............................
........................................................................
   1    -21.8016021 -0.218016E+02  0.536E-01    3.47       0.0  T
   2    -21.8016198 -0.177481E-04  0.326E-01    3.47       1.0  T
   3    -21.8016285 -0.868535E-05  0.267E-02    3.46       1.1  T
   4    -21.8016318 -0.331725E-05  0.148E-02    3.47       2.0  T
   5    -21.8016321 -0.266164E-06  0.418E-03    3.47       6.9  T
   6    -21.8016321 -0.278450E-07  0.113E-03    3.47      25.6  T
   7    -21.8016321 -0.308243E-08  0.442E-04    3.47      65.4  T
     SCC iter.                  ...        0 min,  0.002 sec
     gradient                   ...        0 min,  0.001 sec
 * total energy  :   -21.6328427 Eh     change       -0.1200780E-04 Eh
   gradient norm :     0.0246477 Eh/α   predicted    -0.1859269E-03 (1448.38%)
   displ. norm   :     0.2280383 α      lambda       -0.4578988E-03
   maximum displ.:     0.2003211 α      in ANC's #1, #5, #3, ...

........................................................................
.............................. CYCLE   30 ..............................
........................................................................
   1    -21.8059422 -0.218059E+02  0.230E-01    3.49       0.0  T
   2    -21.8059497 -0.745546E-05  0.140E-01    3.48       1.0  T
   3    -21.8059524 -0.273610E-05  0.158E-02    3.48       1.8  T
   4    -21.8059533 -0.871213E-06  0.846E-03    3.48       3.4  T
   5    -21.8059535 -0.168339E-06  0.346E-03    3.48       8.3  T
   6    -21.8059535 -0.111839E-07  0.685E-04    3.48      42.2  T
     SCC iter.                  ...        0 min,  0.001 sec
     gradient                   ...        0 min,  0.001 sec
 * total energy  :   -21.6330124 Eh     change       -0.1697461E-03 Eh
   gradient norm :     0.0067227 Eh/α   predicted    -0.2408550E-03 (  41.89%)
   displ. norm   :     0.1338998 α      lambda       -0.9743367E-04
   maximum displ.:     0.1220398 α      in ANC's #1, #5, #3, ...

........................................................................
.............................. CYCLE   31 ..............................
........................................................................
   1    -21.8060710 -0.218061E+02  0.123E-01    3.49       0.0  T
   2    -21.8060718 -0.883844E-06  0.747E-02    3.49       1.0  T
   3    -21.8060722 -0.316021E-06  0.564E-03    3.49       5.1  T
   4    -21.8060723 -0.161893E-06  0.299E-03    3.49       9.7  T
   5    -21.8060723 -0.121102E-07  0.122E-03    3.49      23.6  T
     SCC iter.                  ...        0 min,  0.091 sec
     gradient                   ...        0 min,  0.001 sec
 * total energy  :   -21.6331087 Eh     change       -0.9627647E-04 Eh
   gradient norm :     0.0072246 Eh/α   predicted    -0.4959164E-04 ( -48.49%)
   displ. norm   :     0.8680307 α      lambda       -0.7259089E-03
   maximum displ.:     0.7811701 α      in ANC's #1, #5, #7, ...

........................................................................
.............................. CYCLE   32 ..............................
........................................................................
   1    -21.7974620 -0.217975E+02  0.805E-01    3.51       0.0  T
   2    -21.7975249 -0.628575E-04  0.490E-01    3.51       1.0  T
   3    -21.7975450 -0.201733E-04  0.500E-02    3.49       1.0  T
   4    -21.7975589 -0.139110E-04  0.245E-02    3.51       1.2  T
   5    -21.7975599 -0.935385E-06  0.104E-02    3.51       2.8  T
   6    -21.7975600 -0.124109E-06  0.275E-03    3.51      10.5  T
   7    -21.7975600 -0.189621E-07  0.839E-04    3.51      34.4  T
     SCC iter.                  ...        0 min,  0.002 sec
     gradient                   ...        0 min,  0.001 sec
 * total energy  :   -21.6326509 Eh     change        0.4578007E-03 Eh
   gradient norm :     0.0448319 Eh/α   predicted    -0.6364466E-03 (-239.02%)
   displ. norm   :     0.3491931 α      lambda       -0.2514675E-02
   maximum displ.:     0.3043002 α      in ANC's #1, #5, #7, ...

........................................................................
.............................. CYCLE   33 ..............................
........................................................................
   1    -21.8061145 -0.218061E+02  0.361E-01    3.52       0.0  T
   2    -21.8061572 -0.427004E-04  0.218E-01    3.51       1.0  T
   3    -21.8061707 -0.135118E-04  0.335E-02    3.52       1.0  T
   4    -21.8061724 -0.172068E-05  0.163E-02    3.51       1.8  T
   5    -21.8061734 -0.932277E-06  0.757E-03    3.51       3.8  T
   6    -21.8061734 -0.531797E-07  0.198E-03    3.51      14.6  T
   7    -21.8061734 -0.922817E-08  0.556E-04    3.51      51.9  T
     SCC iter.                  ...        0 min,  0.002 sec
     gradient                   ...        0 min,  0.091 sec
 * total energy  :   -21.6335892 Eh     change       -0.9383341E-03 Eh
   gradient norm :     0.0050726 Eh/α   predicted    -0.1410646E-02 (  50.34%)
   displ. norm   :     0.0977458 α      lambda       -0.2909657E-03
   maximum displ.:     0.0481378 α      in ANC's #1, #5, #3, ...

........................................................................
.............................. CYCLE   34 ..............................
........................................................................
   1    -21.8087117 -0.218087E+02  0.145E-01    3.55       0.0  T
   2    -21.8087171 -0.541142E-05  0.897E-02    3.54       1.0  T
   3    -21.8087184 -0.122482E-05  0.107E-02    3.54       2.7  T
   4    -21.8087188 -0.414565E-06  0.426E-03    3.54       6.8  T
   5    -21.8087188 -0.561331E-07  0.213E-03    3.54      13.6  T
   6    -21.8087188 -0.489405E-08  0.100E-03    3.54      28.8  T
     SCC iter.                  ...        0 min,  0.002 sec
     gradient                   ...        0 min,  0.001 sec
 * total energy  :   -21.6337830 Eh     change       -0.1938093E-03 Eh
   gradient norm :     0.0124134 Eh/α   predicted    -0.1468733E-03 ( -24.22%)
   displ. norm   :     0.4041783 α      lambda       -0.6702379E-03
   maximum displ.:     0.3292385 α      in ANC's #1, #5, #7, ...

........................................................................
.............................. CYCLE   35 ..............................
........................................................................
   1    -21.8063804 -0.218064E+02  0.431E-01    3.57       0.0  T
   2    -21.8064126 -0.321566E-04  0.264E-01    3.56       1.0  T
   3    -21.8064233 -0.106639E-04  0.246E-02    3.56       1.2  T
   4    -21.8064247 -0.142514E-05  0.120E-02    3.56       2.4  T
   5    -21.8064250 -0.274086E-06  0.611E-03    3.56       4.7  T
   6    -21.8064250 -0.382106E-07  0.225E-03    3.56      12.8  T
   7    -21.8064250 -0.157445E-07  0.486E-04    3.56      59.4  T
     SCC iter.                  ...        0 min,  0.002 sec
     gradient                   ...        0 min,  0.001 sec
 * total energy  :   -21.6340884 Eh     change       -0.3053798E-03 Eh
   gradient norm :     0.0337850 Eh/α   predicted    -0.3898556E-03 (  27.66%)
   displ. norm   :     0.0422966 α      lambda       -0.6248287E-03
   maximum displ.:     0.0259131 α      in ANC's #2, #3, #4, ...

........................................................................
.............................. CYCLE   36 ..............................
........................................................................
   1    -21.8070062 -0.218070E+02  0.534E-02    3.55       0.0  T
   2    -21.8070104 -0.423725E-05  0.296E-02    3.55       1.0  T
   3    -21.8070112 -0.764605E-06  0.104E-02    3.55       2.8  T
   4    -21.8070113 -0.929910E-07  0.409E-03    3.55       7.1  T
   5    -21.8070113 -0.529486E-07  0.183E-03    3.55      15.8  T
     SCC iter.                  ...        0 min,  0.001 sec
     gradient                   ...        0 min,  0.001 sec
 * total energy  :   -21.6345615 Eh     change       -0.4730789E-03 Eh
   gradient norm :     0.0190400 Eh/α   predicted    -0.3129719E-03 ( -33.84%)
   displ. norm   :     0.3410969 α      lambda       -0.1233944E-02
   maximum displ.:     0.2418048 α      in ANC's #1, #4, #5, ...

........................................................................
.............................. CYCLE   37 ..............................
........................................................................
   1    -21.8052145 -0.218052E+02  0.377E-01    3.53       0.0  T
   2    -21.8052258 -0.113297E-04  0.231E-01    3.53       1.0  T
   3    -21.8052307 -0.490393E-05  0.169E-02    3.53       1.7  T
   4    -21.8052320 -0.127631E-05  0.867E-03    3.53       3.3  T
   5    -21.8052321 -0.110080E-06  0.284E-03    3.53      10.2  T
   6    -21.8052321 -0.635523E-08  0.692E-04    3.53      41.7  T
     SCC iter.                  ...        0 min,  0.002 sec
     gradient                   ...        0 min,  0.001 sec
 * total energy  :   -21.6355276 Eh     change       -0.9660786E-03 Eh
   gradient norm :     0.0154039 Eh/α   predicted    -0.6887563E-03 ( -28.71%)
   displ. norm   :     0.3677132 α      lambda       -0.1829510E-02
   maximum displ.:     0.1598141 α      in ANC's #5, #4, #26, ...

........................................................................
.............................. CYCLE   38 ..............................
........................................................................
   1    -21.8057111 -0.218057E+02  0.559E-01    3.52       0.0  T
   2    -21.8057552 -0.440933E-04  0.345E-01    3.51       1.0  T
   3    -21.8057743 -0.191096E-04  0.245E-02    3.52       1.2  T
   4    -21.8057754 -0.102230E-05  0.120E-02    3.52       2.4  T
   5    -21.8057755 -0.164353E-06  0.589E-03    3.52       4.9  T
   6    -21.8057756 -0.460088E-07  0.186E-03    3.52      15.5  T
   7    -21.8057756 -0.135163E-07  0.517E-04    3.52      55.9  T
     SCC iter.                  ...        0 min,  0.092 sec
     gradient                   ...        0 min,  0.001 sec
 * total energy  :   -21.6365917 Eh     change       -0.1064128E-02 Eh
   gradient norm :     0.0300958 Eh/α   predicted    -0.1038446E-02 (  -2.41%)
   displ. norm   :     0.2637525 α      lambda       -0.2020383E-02
   maximum displ.:     0.2065309 α      in ANC's #1, #4, #26, ...

........................................................................
.............................. CYCLE   39 ..............................
........................................................................
   1    -21.8157398 -0.218157E+02  0.314E-01    3.52       0.0  T
   2    -21.8157808 -0.409368E-04  0.193E-01    3.51       1.0  T
   3    -21.8157928 -0.119971E-04  0.363E-02    3.52       1.0  T
   4    -21.8157963 -0.358261E-05  0.178E-02    3.51       1.6  T
   5    -21.8157975 -0.117131E-05  0.649E-03    3.51       4.4  T
   6    -21.8157975 -0.300230E-07  0.188E-03    3.51      15.4  T
   7    -21.8157976 -0.556628E-08  0.490E-04    3.51      58.9  T
     SCC iter.                  ...        0 min,  0.002 sec
     gradient                   ...        0 min,  0.001 sec
 * total energy  :   -21.6370919 Eh     change       -0.5002027E-03 Eh
   gradient norm :     0.0261956 Eh/α   predicted    -0.1080468E-02 ( 116.01%)
   displ. norm   :     0.3422945 α      lambda       -0.1917750E-02
   maximum displ.:     0.1628022 α      in ANC's #4, #1, #26, ...

........................................................................
.............................. CYCLE   40 ..............................
........................................................................
   1    -21.8089335 -0.218089E+02  0.496E-01    3.54       0.0  T
   2    -21.8089829 -0.494232E-04  0.306E-01    3.53       1.0  T
   3    -21.8090003 -0.174273E-04  0.320E-02    3.53       1.0  T
   4    -21.8090022 -0.183475E-05  0.145E-02    3.53       2.0  T
   5    -21.8090024 -0.252892E-06  0.620E-03    3.53       4.7  T
   6    -21.8090024 -0.299429E-07  0.246E-03    3.53      11.7  T
   7    -21.8090025 -0.265464E-07  0.607E-04    3.53      47.6  T
     SCC iter.                  ...        0 min,  0.092 sec
     gradient                   ...        0 min,  0.001 sec
 * total energy  :   -21.6376688 Eh     change       -0.5769077E-03 Eh
   gradient norm :     0.0265375 Eh/α   predicted    -0.1071216E-02 (  85.68%)
   displ. norm   :     0.1749470 α      lambda       -0.1124853E-02
   maximum displ.:     0.0760405 α      in ANC's #4, #26, #6, ...

........................................................................
.............................. CYCLE   41 ..............................
........................................................................
   1    -21.8117707 -0.218118E+02  0.290E-01    3.54       0.0  T
   2    -21.8118069 -0.361828E-04  0.176E-01    3.54       1.0  T
   3    -21.8118140 -0.710726E-05  0.320E-02    3.54       1.0  T
   4    -21.8118163 -0.228348E-05  0.133E-02    3.54       2.2  T
   5    -21.8118169 -0.591806E-06  0.593E-03    3.54       4.9  T
   6    -21.8118169 -0.466100E-07  0.269E-03    3.54      10.7  T
     SCC iter.                  ...        0 min,  0.001 sec
     gradient                   ...        0 min,  0.001 sec
 * total energy  :   -21.6379556 Eh     change       -0.2868013E-03 Eh
   gradient norm :     0.0079338 Eh/α   predicted    -0.5796378E-03 ( 102.10%)
   displ. norm   :     0.1055740 α      lambda       -0.3975821E-03
   maximum displ.:     0.0634146 α      in ANC's #2, #1, #26, ...

........................................................................
.............................. CYCLE   42 ..............................
........................................................................
   1    -21.8124693 -0.218125E+02  0.141E-01    3.51       0.0  T
   2    -21.8124727 -0.338244E-05  0.866E-02    3.51       1.0  T
   3    -21.8124731 -0.450676E-06  0.101E-02    3.51       2.9  T
   4    -21.8124735 -0.443192E-06  0.401E-03    3.51       7.2  T
   5    -21.8124736 -0.640973E-07  0.168E-03    3.51      17.2  T
   6    -21.8124736 -0.215287E-08  0.669E-04    3.51      43.1  T
     SCC iter.                  ...        0 min,  0.001 sec
     gradient                   ...        0 min,  0.091 sec
 * total energy  :   -21.6381992 Eh     change       -0.2436287E-03 Eh
   gradient norm :     0.0097243 Eh/α   predicted    -0.2010060E-03 ( -17.49%)
   displ. norm   :     0.1309489 α      lambda       -0.3256988E-03
   maximum displ.:     0.0674071 α      in ANC's #26, #4, #5, ...
 * RMSD in coord.:     0.8155145 α      energy gain  -0.5891117E-02 Eh

generating ANC from model Hessian ...
Using Lindh-Hessian (1995)
 Shifting diagonal of input Hessian by   6.915956043671477E-003
 Lowest  eigenvalues of input Hessian
   -0.000000   -0.000000   -0.000000    0.000000    0.000000    0.000000
    0.010000    0.013273    0.016577    0.024278    0.037437    0.048384
    0.063681    0.077300    0.088795    0.090676    0.107678    0.115138
 Highest eigenvalues
    1.169284    1.253933    1.377939    1.528363    1.675615    2.205857
 

........................................................................
.............................. CYCLE   43 ..............................
........................................................................
   1    -21.8111045 -0.218111E+02  0.235E-01    3.52       0.0  T
   2    -21.8111102 -0.570323E-05  0.145E-01    3.52       1.0  T
   3    -21.8111126 -0.242985E-05  0.104E-02    3.52       2.8  T
   4    -21.8111128 -0.175504E-06  0.498E-03    3.52       5.8  T
   5    -21.8111128 -0.176571E-07  0.157E-03    3.52      18.4  T
   6    -21.8111128 -0.818382E-09  0.501E-04    3.52      57.6  T
   7    -21.8111128 -0.158444E-08  0.117E-04    3.52     246.9  T
     SCC iter.                  ...        0 min,  0.003 sec
     gradient                   ...        0 min,  0.001 sec
 * total energy  :   -21.6383768 Eh     change       -0.1775317E-03 Eh
   gradient norm :     0.0150678 Eh/α   predicted     0.0000000E+00 (-100.00%)
   displ. norm   :     0.0945378 α      lambda       -0.3341760E-03
   maximum displ.:     0.0710645 α      in ANC's #2, #1, #5, ...

........................................................................
.............................. CYCLE   44 ..............................
........................................................................
   1    -21.8116382 -0.218116E+02  0.106E-01    3.54       0.0  T
   2    -21.8116408 -0.259557E-05  0.640E-02    3.54       1.0  T
   3    -21.8116414 -0.558985E-06  0.767E-03    3.53       3.8  T
   4    -21.8116415 -0.131684E-06  0.326E-03    3.53       8.8  T
   5    -21.8116415 -0.155993E-07  0.154E-03    3.53      18.8  T
   6    -21.8116415 -0.558874E-09  0.513E-04    3.53      56.3  T
     SCC iter.                  ...        0 min,  0.001 sec
     gradient                   ...        0 min,  0.002 sec
 * total energy  :   -21.6386142 Eh     change       -0.2374313E-03 Eh
   gradient norm :     0.0051673 Eh/α   predicted    -0.1685816E-03 ( -29.00%)
   displ. norm   :     0.1619277 α      lambda       -0.2687689E-03
   maximum displ.:     0.1268247 α      in ANC's #2, #1, #5, ...

........................................................................
.............................. CYCLE   45 ..............................
........................................................................
   1    -21.8114790 -0.218115E+02  0.190E-01    3.55       0.0  T
   2    -21.8114829 -0.393633E-05  0.116E-01    3.55       1.0  T
   3    -21.8114841 -0.123650E-05  0.109E-02    3.55       2.7  T
   4    -21.8114846 -0.421514E-06  0.582E-03    3.55       5.0  T
   5    -21.8114846 -0.548059E-07  0.265E-03    3.55      10.9  T
   6    -21.8114846 -0.123058E-07  0.964E-04    3.55      29.9  T
     SCC iter.                  ...        0 min,  0.001 sec
     gradient                   ...        0 min,  0.001 sec
 * total energy  :   -21.6387544 Eh     change       -0.1401770E-03 Eh
   gradient norm :     0.0044901 Eh/α   predicted    -0.1379080E-03 (  -1.62%)
   displ. norm   :     0.1522280 α      lambda       -0.1557872E-03
   maximum displ.:     0.1019418 α      in ANC's #2, #1, #3, ...

........................................................................
.............................. CYCLE   46 ..............................
........................................................................
   1    -21.8109284 -0.218109E+02  0.162E-01    3.55       0.0  T
   2    -21.8109297 -0.123256E-05  0.979E-02    3.55       1.0  T
   3    -21.8109301 -0.376280E-06  0.651E-03    3.55       4.4  T
   4    -21.8109302 -0.153417E-06  0.351E-03    3.55       8.2  T
   5    -21.8109302 -0.145009E-07  0.143E-03    3.55      20.2  T
   6    -21.8109302 -0.489562E-08  0.468E-04    3.55      61.7  T
     SCC iter.                  ...        0 min,  0.091 sec
     gradient                   ...        0 min,  0.001 sec
 * total energy  :   -21.6388482 Eh     change       -0.9379422E-04 Eh
   gradient norm :     0.0037109 Eh/α   predicted    -0.7969947E-04 ( -15.03%)
   displ. norm   :     0.0897790 α      lambda       -0.5847348E-04
   maximum displ.:     0.0584780 α      in ANC's #1, #2, #3, ...

........................................................................
.............................. CYCLE   47 ..............................
........................................................................
   1    -21.8113098 -0.218113E+02  0.949E-02    3.55       0.0  T
   2    -21.8113101 -0.367154E-06  0.575E-02    3.55       1.0  T
   3    -21.8113103 -0.183038E-06  0.360E-03    3.55       8.0  T
   4    -21.8113104 -0.322738E-07  0.210E-03    3.55      13.8  T
   5    -21.8113104 -0.455660E-08  0.738E-04    3.55      39.1  T
   6    -21.8113104 -0.151154E-08  0.215E-04    3.55     134.2  T
     SCC iter.                  ...        0 min,  0.001 sec
     gradient                   ...        0 min,  0.001 sec
 * total energy  :   -21.6388921 Eh     change       -0.4395900E-04 Eh
   gradient norm :     0.0022808 Eh/α   predicted    -0.2947159E-04 ( -32.96%)
   displ. norm   :     0.0897504 α      lambda       -0.4713950E-04
   maximum displ.:     0.0664604 α      in ANC's #1, #3, #2, ...

........................................................................
.............................. CYCLE   48 ..............................
........................................................................
   1    -21.8121987 -0.218122E+02  0.840E-02    3.55       0.0  T
   2    -21.8121990 -0.336552E-06  0.511E-02    3.55       1.0  T
   3    -21.8121993 -0.213188E-06  0.297E-03    3.55       9.7  T
   4    -21.8121993 -0.763091E-08  0.147E-03    3.55      19.6  T
   5    -21.8121993 -0.198050E-08  0.467E-04    3.55      61.9  T
   6    -21.8121993 -0.400323E-09  0.140E-04    3.55     205.7  T
     SCC iter.                  ...        0 min,  0.001 sec
     gradient                   ...        0 min,  0.091 sec
 * total energy  :   -21.6389216 Eh     change       -0.2951891E-04 Eh
   gradient norm :     0.0008415 Eh/α   predicted    -0.2375794E-04 ( -19.52%)
   displ. norm   :     0.0828302 α      lambda       -0.1148275E-04
   maximum displ.:     0.0683174 α      in ANC's #1, #2, #3, ...

........................................................................
.............................. CYCLE   49 ..............................
........................................................................
   1    -21.8122019 -0.218122E+02  0.717E-02    3.55       0.0  T
   2    -21.8122021 -0.229598E-06  0.436E-02    3.55       1.0  T
   3    -21.8122023 -0.139847E-06  0.264E-03    3.55      10.9  T
   4    -21.8122023 -0.137300E-07  0.165E-03    3.55      17.5  T
   5    -21.8122023 -0.399965E-08  0.497E-04    3.55      58.1  T
   6    -21.8122023 -0.618609E-09  0.127E-04    3.55     227.7  T
     SCC iter.                  ...        0 min,  0.002 sec
     gradient                   ...        0 min,  0.001 sec
 * total energy  :   -21.6389324 Eh     change       -0.1080725E-04 Eh
   gradient norm :     0.0008635 Eh/α   predicted    -0.5757678E-05 ( -46.72%)
   displ. norm   :     0.0291700 α      lambda       -0.5196168E-05
   maximum displ.:     0.0223502 α      in ANC's #1, #2, #4, ...

........................................................................
.............................. CYCLE   50 ..............................
........................................................................
   1    -21.8123350 -0.218123E+02  0.329E-02    3.56       0.0  T
   2    -21.8123351 -0.109965E-06  0.203E-02    3.55       1.4  T
   3    -21.8123351 -0.138772E-07  0.248E-03    3.56      11.6  T
   4    -21.8123351 -0.428950E-07  0.969E-04    3.55      29.8  T
   5    -21.8123351 -0.812619E-09  0.385E-04    3.55      75.1  T
     SCC iter.                  ...        0 min,  0.001 sec
     gradient                   ...        0 min,  0.001 sec
 * total energy  :   -21.6389383 Eh     change       -0.5833192E-05 Eh
   gradient norm :     0.0012123 Eh/α   predicted    -0.2599756E-05 ( -55.43%)
   displ. norm   :     0.0403455 α      lambda       -0.6116129E-05
   maximum displ.:     0.0310014 α      in ANC's #1, #4, #2, ...

........................................................................
.............................. CYCLE   51 ..............................
........................................................................
   1    -21.8119871 -0.218120E+02  0.413E-02    3.55       0.0  T
   2    -21.8119873 -0.191785E-06  0.252E-02    3.55       1.1  T
   3    -21.8119874 -0.380438E-07  0.237E-03    3.55      12.2  T
   4    -21.8119874 -0.252193E-07  0.108E-03    3.55      26.6  T
   5    -21.8119874 -0.231362E-08  0.511E-04    3.55      56.5  T
   6    -21.8119874 -0.395254E-09  0.191E-04    3.55     151.4  T
     SCC iter.                  ...        0 min,  0.003 sec
     gradient                   ...        0 min,  0.001 sec
 * total energy  :   -21.6389439 Eh     change       -0.5649588E-05 Eh
   gradient norm :     0.0004864 Eh/α   predicted    -0.3060959E-05 ( -45.82%)
   displ. norm   :     0.0240559 α      lambda       -0.1682843E-05
   maximum displ.:     0.0191133 α      in ANC's #1, #4, #2, ...

........................................................................
.............................. CYCLE   52 ..............................
........................................................................
   1    -21.8121028 -0.218121E+02  0.237E-02    3.55       0.0  T
   2    -21.8121029 -0.399157E-07  0.145E-02    3.55       2.0  T
   3    -21.8121029 -0.201097E-07  0.993E-04    3.55      29.1  T
   4    -21.8121029 -0.186197E-08  0.574E-04    3.55      50.3  T
     SCC iter.                  ...        0 min,  0.001 sec
     gradient                   ...        0 min,  0.001 sec
 * total energy  :   -21.6389455 Eh     change       -0.1547678E-05 Eh
   gradient norm :     0.0002867 Eh/α   predicted    -0.8403978E-06 ( -45.70%)
   displ. norm   :     0.0123849 α      lambda       -0.5236423E-06
   maximum displ.:     0.0114968 α      in ANC's #1, #4, #6, ...

   *** GEOMETRY OPTIMIZATION CONVERGED AFTER 52 ITERATIONS ***

------------------------------------------------------------------------
 total energy gain   :        -0.0172291 Eh      -10.8114 kcal/mol
 total RMSD          :         0.9531022 a0        0.5044 Å
 total power (kW/mol):        -0.8699043 (step)  -18.1145 (real)
------------------------------------------------------------------------

 ANCopt (total)                0 d,  0 h,  0 min,  2.497 sec
 optimizer setup                ...        0 min,  0.000 sec (  0.012%)
 model hessian                  ...        0 min,  0.009 sec (  0.349%)
 ANC generation                 ...        0 min,  0.001 sec (  0.041%)
 coordinate transformation      ...        0 min,  0.002 sec (  0.085%)
 single point calculation       ...        0 min,  2.461 sec ( 98.539%)
 optimization log               ...        0 min,  0.004 sec (  0.159%)
 hessian update                 ...        0 min,  0.007 sec (  0.290%)
 rational function              ...        0 min,  0.004 sec (  0.161%)

================
 final structure:
================
12
 xtb: 6.2.3 (830e466)
C         1.67482989349526    2.08340472320651   -2.22762450402434
C         0.21397754738169    0.53509178989751   -1.20729165373167
C         1.12520158525524   -0.61495599240762   -0.84979410960166
O         0.57537224658797    1.22595801378605   -2.38092352079313
O         1.37954230427406    3.18685445090540   -1.42882072001507
O         2.12548334318345   -0.93028128837439   -1.42358215647077
H         0.67518200941197    3.69902292815647   -1.84527885731560
H         2.52139824172923    1.58040914139137   -1.74759812343820
H         1.94852362498548    2.37690793085187   -3.24936807793818
H         0.76589235890450   -1.16403498775049    0.04549781160858
H        -0.79349235608875    0.14223311072662   -1.37629011447242
H         0.17708920087999    1.21899017961079   -0.34472597380735
 
 Bond Distances (Angstroems)
 ---------------------------
C1-O4=1.4027         C1-O5=1.3939         C1-H8=1.0955         C1-H9=1.0977         C2-C3=1.5102         C2-O4=1.4090         
C2-H11=1.0945        C2-H12=1.1014        C3-C2=1.5102         C3-O6=1.1955         C3-H10=1.1100        O4-C1=1.4027         
O4-C2=1.4090         O5-C1=1.3939         O5-H7=0.9653         O6-C3=1.1955         H7-O5=0.9653         H8-C1=1.0955         
H9-C1=1.0977         H10-C3=1.1100        H11-C2=1.0945        H12-C2=1.1014        
 C  H  Rav=1.0998 sigma=0.0056  Rmin=1.0945  Rmax=1.1100     5
 C  C  Rav=1.5102 sigma=0.0000  Rmin=1.5102  Rmax=1.5102     1
 O  H  Rav=0.9653 sigma=0.0000  Rmin=0.9653  Rmax=0.9653     1
 O  C  Rav=1.3503 sigma=0.0895  Rmin=1.1955  Rmax=1.4090     4
 
 selected bond angles (degree)
 --------------------
O5-C1-O4=112.36                H8-C1-O4=111.90                H8-C1-O5=106.03                H9-C1-O4=104.90                
H9-C1-O5=112.00                H9-C1-H8=109.75                O4-C2-C3=114.57                H11-C2-C3=108.58               
H11-C2-O4=106.47               H12-C2-C3=107.92               H12-C2-O4=110.88               H12-C2-H11=108.24              
O6-C3-C2=126.31                H10-C3-C2=111.86               H10-C3-O6=121.84               C2-O4-C1=114.19                
H7-O5-C1=109.11                
 
 selected dihedral angles (degree)
 ---------------------------------
O6-C3-C2-O4=  3.86            O6-C3-C2-H11=122.71           O6-C3-C2-H12=239.82           H10-C3-C2-O4=183.41           
H10-C3-C2-H11=302.26          H10-C3-C2-H12= 59.37          C2-O4-C1-O5=290.79            C2-O4-C1-H8= 49.94            
C2-O4-C1-H9=168.88            C1-O4-C2-C3=284.21            C1-O4-C2-H11=164.18           C1-O4-C2-H12= 46.66           
H7-O5-C1-O4=298.68            H7-O5-C1-H8=176.14            H7-O5-C1-H9= 56.46            
           -------------------------------------------------
          |                Final Singlepoint                |
           -------------------------------------------------

          ...................................................
          :                      SETUP                      :
          :.................................................:
          :  # basis functions                  30          :
          :  # atomic orbitals                  30          :
          :  # shells                           18          :
          :  # electrons                        36          :
          :  max. iterations                   100          :
          :  Hamiltonian                  GFN2-xTB          :
          :  restarted?                      false          :
          :  GBSA solvation                  false          :
          :  PC potential                    false          :
          :  electronic temp.          300.0000000     K    :
          :  accuracy                    1.0000000          :
          :  -> integral cutoff          0.2500000E+02      :
          :  -> integral neglect         0.1000000E-07      :
          :  -> SCF convergence          0.1000000E-05 Eh   :
          :  -> wf. convergence          0.1000000E-03 e    :
          :  Broyden damping             0.4000000          :
          ...................................................

 iter      E             dE          RMSdq      gap      omega  full diag
   1    -21.8121029 -0.218121E+02  0.162E-04    3.55       0.0  T
   2    -21.8121029 -0.925446E-10  0.798E-05    3.55     361.8  T
   3    -21.8121029 -0.234941E-10  0.494E-05    3.55     583.8  T

   *** convergence criteria satisfied after 3 iterations ***

         #    Occupation            Energy/Eh            Energy/eV
      -------------------------------------------------------------
         1        2.0000           -0.7356089             -20.0169
       ...           ...                  ...                  ...
        12        2.0000           -0.5439735             -14.8023
        13        2.0000           -0.5251740             -14.2907
        14        2.0000           -0.4996882             -13.5972
        15        2.0000           -0.4655672             -12.6687
        16        2.0000           -0.4547743             -12.3750
        17        2.0000           -0.4456043             -12.1255
        18        2.0000           -0.4073848             -11.0855 (HOMO)
        19                         -0.2768772              -7.5342 (LUMO)
        20                          0.0155085               0.4220
        21                          0.0637797               1.7355
        22                          0.0770030               2.0954
        23                          0.1110329               3.0214
       ...                                ...                  ...
        30                          0.6157344              16.7550
      -------------------------------------------------------------
                  HL-Gap            0.1305077 Eh            3.5513 eV
             Fermi-level           -0.3421310 Eh           -9.3099 eV

 SCC (total)                   0 d,  0 h,  0 min,  0.093 sec
 SCC setup                      ...        0 min,  0.090 sec ( 96.331%)
 Dispersion                     ...        0 min,  0.000 sec (  0.052%)
 integral evaluation            ...        0 min,  0.001 sec (  0.672%)
 zeroth order Hamiltonian       ...        0 min,  0.000 sec (  0.164%)
 iterations                     ...        0 min,  0.001 sec (  0.850%)
 molecular gradient             ...        0 min,  0.001 sec (  1.480%)
 printout                       ...        0 min,  0.000 sec (  0.208%)

         :::::::::::::::::::::::::::::::::::::::::::::::::::::
         ::                     SUMMARY                     ::
         :::::::::::::::::::::::::::::::::::::::::::::::::::::
         :: total energy             -21.638945464986 Eh    ::
         :: gradient norm              0.000287655071 Eh/a0 ::
         :: HOMO-LUMO gap              3.551293994400 eV    ::
         ::.................................................::
         :: SCC energy               -21.812102887504 Eh    ::
         :: -> isotropic ES            0.061904163561 Eh    ::
         :: -> anisotropic ES          0.001621091143 Eh    ::
         :: -> anisotropic XC         -0.001441610216 Eh    ::
         :: -> dispersion             -0.005990896033 Eh    ::
         :: repulsion energy           0.173152007964 Eh    ::
         :: add. restraining           0.000000000000 Eh    ::
         :::::::::::::::::::::::::::::::::::::::::::::::::::::

           -------------------------------------------------
          |                Property Printout                |
           -------------------------------------------------

    * Orbital Energies and Occupations

         #    Occupation            Energy/Eh            Energy/eV
      -------------------------------------------------------------
         1        2.0000           -0.7356089             -20.0169
       ...           ...                  ...                  ...
         6        2.0000           -0.6250258             -17.0078
         7        2.0000           -0.5947068             -16.1828
         8        2.0000           -0.5898184             -16.0498
         9        2.0000           -0.5834663             -15.8769
        10        2.0000           -0.5570356             -15.1577
        11        2.0000           -0.5545646             -15.0905
        12        2.0000           -0.5439735             -14.8023
        13        2.0000           -0.5251740             -14.2907
        14        2.0000           -0.4996882             -13.5972
        15        2.0000           -0.4655672             -12.6687
        16        2.0000           -0.4547743             -12.3750
        17        2.0000           -0.4456043             -12.1255
        18        2.0000           -0.4073848             -11.0855 (HOMO)
        19                         -0.2768772              -7.5342 (LUMO)
        20                          0.0155085               0.4220
        21                          0.0637797               1.7355
        22                          0.0770030               2.0954
        23                          0.1110329               3.0214
        24                          0.1232941               3.3550
        25                          0.1436213               3.9081
        26                          0.1567665               4.2658
        27                          0.1911572               5.2017
        28                          0.2041676               5.5557
        29                          0.2659859               7.2378
        30                          0.6157344              16.7550
      -------------------------------------------------------------
                  HL-Gap            0.1305077 Eh            3.5513 eV
             Fermi-level           -0.3421310 Eh           -9.3099 eV

     #   Z        covCN         q      C6AA      α(0)
     1   6 C      3.577     0.213    17.896     6.146
     2   6 C      3.701     0.054    19.819     6.366
     3   6 C      2.754     0.205    23.652     7.964
     4   8 O      1.701    -0.312    19.211     5.918
     5   8 O      1.656    -0.444    21.712     6.290
     6   8 O      0.856    -0.296    19.711     5.952
     7   1 H      0.805     0.304     0.709     1.323
     8   1 H      0.924     0.054     2.270     2.356
     9   1 H      0.924     0.042     2.420     2.433
    10   1 H      0.922     0.025     2.655     2.548
    11   1 H      0.924     0.083     1.952     2.185
    12   1 H      0.923     0.072     2.066     2.248

 Mol. C6AA /au·bohr⁶  :       1244.649798
 Mol. C8AA /au·bohr⁸  :      26248.390068
 Mol. α(0) /au        :         51.728850


Wiberg/Mayer (AO) data.
largest (>0.10) Wiberg bond orders for each atom
          total WBO             WBO to atom ...
     1  C   3.927        O    5 1.007    O    4 0.978    H    8 0.962    H    9 0.961
     2  C   3.961        C    3 0.995    O    4 0.992    H   11 0.941    H   12 0.936
     3  C   3.921        O    6 1.943    C    2 0.995    H   10 0.928
     4  O   2.096        C    2 0.992    C    1 0.978
     5  O   1.980        C    1 1.007    H    7 0.892
     6  O   2.116        C    3 1.943
     7  H   0.908        O    5 0.892
     8  H   0.997        C    1 0.962
     9  H   0.998        C    1 0.961
    10  H   0.999        C    3 0.928
    11  H   0.993        C    2 0.941
    12  H   0.995        C    2 0.936

molecular dipole:
                 x           y           z       tot (Debye)
 q only:       -0.815       0.390       0.293
   full:       -1.044       0.443       0.367       3.030
molecular quadrupole (traceless):
                xx          xy          yy          xz          yz          zz
 q only:       -3.053       0.951       3.252       2.116      -5.229      -0.199
  q+dip:       -4.073       0.157       3.761       3.351      -7.361       0.312
   full:       -4.277       0.773       4.101       3.599      -6.813       0.176

           -------------------------------------------------
          |                Geometry Summary                 |
           -------------------------------------------------

      molecular mass/u    :       90.0780670
   center of mass at/Å    :        1.1858718       0.9735812      -1.5961492
  moments of inertia/u·Å² :        0.6711006E+02   0.2310452E+03   0.2498670E+03
rotational constants/cm⁻¹ :        0.2511938E+00   0.7296249E-01   0.6746641E-01

 * 9 selected distances

     #   Z        #   Z                                     value/Å
     1   6 C      4   8 O                                 1.4026841
     2   6 C      4   8 O                                 1.4090117 (max)
     1   6 C      5   8 O                                 1.3938736
     3   6 C      6   8 O                                 1.1955026
     5   8 O      7   1 H                                 0.9653379 (min)
     1   6 C      8   1 H                                 1.0954943
     1   6 C      9   1 H                                 1.0977305
     2   6 C     11   1 H                                 1.0944835
     2   6 C     12   1 H                                 1.1014070

 * 3 distinct bonds (by element types)

   Z      Z             #   av. dist./Å        max./Å        min./Å
   1 H    6 C           4     1.0972788     1.1014070     1.0944835
   1 H    8 O           1     0.9653379     0.9653379     0.9653379
   6 C    8 O           4     1.3502680     1.4090117     1.1955026


optimized geometry written to: xtbopt.xyz


           -------------------------------------------------
          | TOTAL ENERGY              -21.638945464986 Eh   |
          | GRADIENT NORM               0.000287655071 Eh/α |
          | HOMO-LUMO GAP               3.551293994400 eV   |
           -------------------------------------------------

------------------------------------------------------------------------
 * finished run on 2020/12/23 at 21:43:12.669     
------------------------------------------------------------------------
 total:
 * wall-time:     0 d,  0 h,  0 min,  2.802 sec
 *  cpu-time:     0 d,  0 h,  0 min, 11.521 sec
 * ratio c/w:     4.112 speedup
 SCF:
 * wall-time:     0 d,  0 h,  0 min,  0.009 sec
 *  cpu-time:     0 d,  0 h,  0 min,  0.170 sec
 * ratio c/w:    18.580 speedup
 ANC optimizer:
 * wall-time:     0 d,  0 h,  0 min,  2.594 sec
 *  cpu-time:     0 d,  0 h,  0 min, 10.337 sec
 * ratio c/w:     3.985 speedup

