      -----------------------------------------------------------      
     |                   =====================                   |     
     |                           x T B                           |     
     |                   =====================                   |     
     |                         S. Grimme                         |     
     |          Mulliken Center for Theoretical Chemistry        |     
     |                    University of Bonn                     |     
      -----------------------------------------------------------      

   * xtb version 6.2.3 (830e466) compiled by 'ehlert@majestix' on 2020-03-16

   xtb is free software: you can redistribute it and/or modify it under
   the terms of the GNU Lesser General Public License as published by
   the Free Software Foundation, either version 3 of the License, or
   (at your option) any later version.
   
   xtb is distributed in the hope that it will be useful,
   but WITHOUT ANY WARRANTY; without even the implied warranty of
   MERCHANTABILITY or FITNESS FOR A PARTICULAR PURPOSE.  See the
   GNU Lesser General Public License for more details.
   
   Cite this work as:
   * S. Grimme, C. Bannwarth, P. Shushkov, J. Chem. Theory Comput., 2017,
     13, 1989-2009. DOI: 10.1021/acs.jctc.7b00118
   * C. Bannwarth, S. Ehlert and S. Grimme., J. Chem. Theory Comput., 2019,
     15, 1652-1671. DOI: 10.1021/acs.jctc.8b01176
   * P. Pracht, E. Caldeweyher, S. Ehlert, S. Grimme, ChemRxiv, 2019, preprint.
     DOI: 10.26434/chemrxiv.8326202.v1
   
   for DFT-D4:
   * E. Caldeweyher, C. Bannwarth and S. Grimme, J. Chem. Phys., 2017,
     147, 034112. DOI: 10.1063/1.4993215
   * E. Caldeweyher, S. Ehlert, A. Hansen, H. Neugebauer, S. Spicher,
     C. Bannwarth and S. Grimme, J. Chem. Phys., 2019, 150, 154122.
     DOI: 10.1063/1.5090222
   
   for sTDA-xTB:
   * S. Grimme and C. Bannwarth, J. Chem. Phys., 2016, 145, 054103.
     DOI: 10.1063/1.4959605
   
   in the mass-spec context:
   * V. Asgeirsson, C. Bauer and S. Grimme, Chem. Sci., 2017, 8, 4879.
     DOI: 10.1039/c7sc00601b
   
   for metadynamics refer to:
   * S. Grimme, J. Chem. Theory Comput., 2019, 155, 2847-2862
     DOI: 10.1021/acs.jctc.9b00143
   
   with help from (in alphabetical order)
   C. Bannwarth, F. Bohle, G. Brandenburg, E. Caldeweyher, M. Checinski,
   S. Dohm, S. Ehlert, S. Ehrlich, F. März, H. Neugebauer, J. Pisarek,
   P. Pracht, P. Shushkov, and S. Spicher.
   
 * started run on 2020/12/23 at 21:41:48.613     

           -------------------------------------------------
          |                Calculation Setup                |
           -------------------------------------------------

          program call               : xtb -c 0 -u 0 -a 1.0 --iterations 100 --opt normal --namespace product_17 /scratch/bell/zhao922/YARP/paper-example/potential_product/test/reaction_channel/pp_0/pp_1_0.xyz
          hostname                   : bell-fe05.rcac.purdue.edu
          calculation namespace      : product_17
          coordinate file            : /scratch/bell/zhao922/YARP/paper-example/potential_product/test/reaction_channel/pp_0/pp_1_0.xyz
          omp threads                :                    32
          number of atoms            :                    12
          number of electrons        :                    36
          charge                     :                     0
          spin                       :                   0.0
          first test random number   :      0.53522450918987

           ------------------------------------------------- 
          |                 G F N 2 - x T B                 |
          | Geometry, Frequencies, Noncovalent interactions |
          |            JCTC 2019 parametrisation            |
           ------------------------------------------------- 
             k(s)              :                1.8500
             k(p)              :                2.2300
             k(d)              :                2.2300
             k(f)              :                2.0000
             kEN (H0ij)        :               -2.0000
             D4 a1             :                0.5200
             D4 a2             :                5.0000
             D4 s6             :                1.0000
             D4 s8             :                2.7000
             D4 s9             :                5.0000
             alphaj            :                2.0000

  Z AO/shell   Hii/eV     exponent
  1     Wed Apr 25 08:07:45 CEST 2018   EN: 2.200 GM2: 0.406  GM3: 0.0800  RAES: 1.40
     1s    -10.707211    1.230000
  6     Wed Apr 25 08:07:45 CEST 2018   EN: 2.550 GM2: 0.538  GM3: 0.1500  RAES: 3.00
     2s    -13.970922    2.096432
     2p    -10.063292    1.800000
  8     Wed Apr 25 08:07:45 CEST 2018   EN: 3.440 GM2: 0.452  GM3:-0.0517  RAES: 1.80
     2s    -20.229985    2.439742
     2p    -15.503117    2.137023

           ------------------------------------------------- 
          |        Self-Consistent Charge Iterations        |
           ------------------------------------------------- 

          ...................................................
          :                      SETUP                      :
          :.................................................:
          :  # basis functions                  30          :
          :  # atomic orbitals                  30          :
          :  # shells                           18          :
          :  # electrons                        36          :
          :  max. iterations                   100          :
          :  Hamiltonian                  GFN2-xTB          :
          :  restarted?                      false          :
          :  GBSA solvation                  false          :
          :  PC potential                    false          :
          :  electronic temp.          300.0000000     K    :
          :  accuracy                    1.0000000          :
          :  -> integral cutoff          0.2500000E+02      :
          :  -> integral neglect         0.1000000E-07      :
          :  -> SCF convergence          0.1000000E-05 Eh   :
          :  -> wf. convergence          0.1000000E-03 e    :
          :  Broyden damping             0.4000000          :
          ...................................................

 iter      E             dE          RMSdq      gap      omega  full diag
   1    -21.6791476 -0.216791E+02  0.507E+00    5.21       0.0  T
   2    -21.7009202 -0.217725E-01  0.312E+00    4.96       1.0  T
   3    -21.6884164  0.125038E-01  0.185E+00    5.21       1.0  T
   4    -21.7106495 -0.222331E-01  0.462E-01    5.02       1.0  T
   5    -21.7115952 -0.945676E-03  0.108E-01    5.05       1.0  T
   6    -21.7115997 -0.452345E-05  0.431E-02    5.05       1.0  T
   7    -21.7116023 -0.255204E-05  0.781E-03    5.05       3.7  T
   8    -21.7116024 -0.792607E-07  0.221E-03    5.05      13.0  T
   9    -21.7116024 -0.903248E-08  0.749E-04    5.05      38.6  T
  10    -21.7116024 -0.117008E-08  0.293E-04    5.05      98.6  T

   *** convergence criteria satisfied after 10 iterations ***

         #    Occupation            Energy/Eh            Energy/eV
      -------------------------------------------------------------
         1        2.0000           -0.7531367             -20.4939
       ...           ...                  ...                  ...
        12        2.0000           -0.5153326             -14.0229
        13        2.0000           -0.4885296             -13.2936
        14        2.0000           -0.4702557             -12.7963
        15        2.0000           -0.4510301             -12.2732
        16        2.0000           -0.4465761             -12.1520
        17        2.0000           -0.4290986             -11.6764
        18        2.0000           -0.3805563             -10.3555 (HOMO)
        19                         -0.1948550              -5.3023 (LUMO)
        20                         -0.0507074              -1.3798
        21                          0.0110544               0.3008
        22                          0.0778425               2.1182
        23                          0.0868324               2.3628
       ...                                ...                  ...
        30                          0.5648973              15.3716
      -------------------------------------------------------------
                  HL-Gap            0.1857013 Eh            5.0532 eV
             Fermi-level           -0.2877057 Eh           -7.8289 eV

 SCC (total)                   0 d,  0 h,  0 min,  0.007 sec
 SCC setup                      ...        0 min,  0.000 sec (  1.805%)
 Dispersion                     ...        0 min,  0.000 sec (  0.613%)
 integral evaluation            ...        0 min,  0.001 sec ( 11.788%)
 zeroth order Hamiltonian       ...        0 min,  0.000 sec (  1.087%)
 iterations                     ...        0 min,  0.004 sec ( 60.286%)
 molecular gradient             ...        0 min,  0.001 sec ( 21.073%)
 printout                       ...        0 min,  0.000 sec (  1.100%)

         :::::::::::::::::::::::::::::::::::::::::::::::::::::
         ::                     SUMMARY                     ::
         :::::::::::::::::::::::::::::::::::::::::::::::::::::
         :: total energy             -21.542711848506 Eh    ::
         :: gradient norm              0.135662858711 Eh/a0 ::
         :: HOMO-LUMO gap              5.053189829662 eV    ::
         ::.................................................::
         :: SCC energy               -21.711602371982 Eh    ::
         :: -> isotropic ES            0.042464156868 Eh    ::
         :: -> anisotropic ES         -0.002047786299 Eh    ::
         :: -> anisotropic XC         -0.010030126654 Eh    ::
         :: -> dispersion             -0.006099445492 Eh    ::
         :: repulsion energy           0.168883329346 Eh    ::
         :: add. restraining           0.000000000000 Eh    ::
         :::::::::::::::::::::::::::::::::::::::::::::::::::::

      ----------------------------------------------------------- 
     |                   =====================                   |
     |                        A N C O P T                        |
     |                   =====================                   |
     |               Approximate Normal Coordinate               |
     |                Rational Function Optimizer                |
      ----------------------------------------------------------- 

          ...................................................
          :                      SETUP                      :
          :.................................................:
          :   optimization level            normal          :
          :   max. optcycles                   200          :
          :   ANC micro-cycles                  20          :
          :   degrees of freedom                30          :
          :.................................................:
          :   RF solver                   davidson          :
          :   write xtbopt.log                true          :
          :   linear?                        false          :
          :   energy convergence         0.5000000E-05 Eh   :
          :   grad. convergence          0.1000000E-02 Eh/α :
          :   maximium RF displ.         1.0000000          :
          :   Hlow (freq-cutoff)         0.1000000E-01      :
          :   Hmax (freq-cutoff)         5.0000000          :
          :   S6 in model hess.         20.0000000          :
          ...................................................

generating ANC from model Hessian ...
Using Lindh-Hessian (1995)
 Shifting diagonal of input Hessian by   7.552232057566574E-003
 Lowest  eigenvalues of input Hessian
   -0.000000    0.000000    0.000000    0.000000    0.000000    0.000000
    0.010000    0.012976    0.018596    0.022393    0.027317    0.040258
    0.054993    0.064843    0.077516    0.090090    0.105900    0.109771
 Highest eigenvalues
    1.205028    1.328080    1.448525    1.637917    1.792319    2.040151
 

........................................................................
.............................. CYCLE    1 ..............................
........................................................................
   1    -21.7116024 -0.217116E+02  0.109E-04    5.05       0.0  T
   2    -21.7116024 -0.252491E-10  0.770E-05    5.05     375.1  T
   3    -21.7116024 -0.646949E-11  0.554E-05    5.05     520.6  T
     SCC iter.                  ...        0 min,  0.001 sec
     gradient                   ...        0 min,  0.001 sec
 * total energy  :   -21.5427119 Eh     change       -0.1429101E-07 Eh
   gradient norm :     0.1356627 Eh/α   predicted     0.0000000E+00 (-100.00%)
   displ. norm   :     0.2509975 α      lambda       -0.1999477E-01
   maximum displ.:     0.1142937 α      in ANC's #18, #10, #14, ...

........................................................................
.............................. CYCLE    2 ..............................
........................................................................
   1    -21.7334889 -0.217335E+02  0.421E-01    5.21       0.0  T
   2    -21.7335623 -0.734476E-04  0.258E-01    5.22       1.0  T
   3    -21.7334754  0.868994E-04  0.121E-01    5.22       1.0  T
   4    -21.7335909 -0.115541E-03  0.303E-02    5.22       1.0  T
   5    -21.7335943 -0.338782E-05  0.751E-03    5.22       3.8  T
   6    -21.7335944 -0.467516E-07  0.333E-03    5.22       8.7  T
   7    -21.7335944 -0.134783E-07  0.103E-03    5.22      27.9  T
     SCC iter.                  ...        0 min,  0.002 sec
     gradient                   ...        0 min,  0.001 sec
 * total energy  :   -21.5563282 Eh     change       -0.1361636E-01 Eh
   gradient norm :     0.0518713 Eh/α   predicted    -0.1062721E-01 ( -21.95%)
   displ. norm   :     0.2257579 α      lambda       -0.5521704E-02
   maximum displ.:     0.1158439 α      in ANC's #3, #9, #10, ...

........................................................................
.............................. CYCLE    3 ..............................
........................................................................
   1    -21.7421091 -0.217421E+02  0.287E-01    5.32       0.0  T
   2    -21.7421357 -0.265887E-04  0.175E-01    5.33       1.0  T
   3    -21.7420708  0.648998E-04  0.107E-01    5.32       1.0  T
   4    -21.7421569 -0.860847E-04  0.155E-02    5.33       1.9  T
   5    -21.7421575 -0.659004E-06  0.421E-03    5.33       6.9  T
   6    -21.7421575 -0.112994E-07  0.177E-03    5.33      16.3  T
     SCC iter.                  ...        0 min,  0.001 sec
     gradient                   ...        0 min,  0.002 sec
 * total energy  :   -21.5595175 Eh     change       -0.3189307E-02 Eh
   gradient norm :     0.0087123 Eh/α   predicted    -0.2901559E-02 (  -9.02%)
   displ. norm   :     0.1488263 α      lambda       -0.5056903E-03
   maximum displ.:     0.0954399 α      in ANC's #1, #3, #7, ...

........................................................................
.............................. CYCLE    4 ..............................
........................................................................
   1    -21.7423333 -0.217423E+02  0.116E-01    5.33       0.0  T
   2    -21.7423346 -0.130606E-05  0.696E-02    5.33       1.0  T
   3    -21.7423347 -0.113623E-06  0.794E-03    5.33       3.6  T
   4    -21.7423350 -0.343346E-06  0.455E-03    5.33       6.3  T
   5    -21.7423351 -0.957232E-07  0.223E-03    5.33      12.9  T
   6    -21.7423351 -0.155550E-07  0.948E-04    5.33      30.5  T
     SCC iter.                  ...        0 min,  0.002 sec
     gradient                   ...        0 min,  0.001 sec
 * total energy  :   -21.5598817 Eh     change       -0.3641942E-03 Eh
   gradient norm :     0.0049782 Eh/α   predicted    -0.2584483E-03 ( -29.04%)
   displ. norm   :     0.2056167 α      lambda       -0.3553955E-03
   maximum displ.:     0.1466335 α      in ANC's #1, #3, #5, ...

........................................................................
.............................. CYCLE    5 ..............................
........................................................................
   1    -21.7417285 -0.217417E+02  0.183E-01    5.33       0.0  T
   2    -21.7417318 -0.326970E-05  0.112E-01    5.33       1.0  T
   3    -21.7417293  0.250114E-05  0.238E-02    5.33       1.2  T
   4    -21.7417342 -0.490650E-05  0.804E-03    5.33       3.6  T
   5    -21.7417343 -0.125239E-06  0.404E-03    5.33       7.2  T
   6    -21.7417344 -0.426499E-07  0.112E-03    5.33      25.7  T
   7    -21.7417344 -0.537046E-08  0.499E-04    5.33      57.8  T
     SCC iter.                  ...        0 min,  0.002 sec
     gradient                   ...        0 min,  0.001 sec
 * total energy  :   -21.5601183 Eh     change       -0.2365294E-03 Eh
   gradient norm :     0.0047859 Eh/α   predicted    -0.1852111E-03 ( -21.70%)
   displ. norm   :     0.1488382 α      lambda       -0.1785750E-03
   maximum displ.:     0.1073633 α      in ANC's #1, #3, #5, ...

........................................................................
.............................. CYCLE    6 ..............................
........................................................................
   1    -21.7418015 -0.217418E+02  0.166E-01    5.32       0.0  T
   2    -21.7418045 -0.308014E-05  0.103E-01    5.32       1.0  T
   3    -21.7417979  0.663977E-05  0.314E-02    5.32       1.0  T
   4    -21.7418072 -0.925697E-05  0.721E-03    5.32       4.0  T
   5    -21.7418072 -0.640146E-07  0.324E-03    5.32       8.9  T
   6    -21.7418072 -0.205484E-07  0.847E-04    5.32      34.1  T
   7    -21.7418072 -0.248714E-08  0.471E-04    5.32      61.3  T
     SCC iter.                  ...        0 min,  0.091 sec
     gradient                   ...        0 min,  0.001 sec
 * total energy  :   -21.5602407 Eh     change       -0.1224409E-03 Eh
   gradient norm :     0.0045045 Eh/α   predicted    -0.9126782E-04 ( -25.46%)
   displ. norm   :     0.1365859 α      lambda       -0.1460678E-03
   maximum displ.:     0.1015041 α      in ANC's #1, #5, #2, ...

........................................................................
.............................. CYCLE    7 ..............................
........................................................................
   1    -21.7425195 -0.217425E+02  0.179E-01    5.33       0.0  T
   2    -21.7425230 -0.350766E-05  0.111E-01    5.32       1.0  T
   3    -21.7425169  0.608280E-05  0.308E-02    5.33       1.0  T
   4    -21.7425259 -0.893427E-05  0.724E-03    5.32       4.0  T
   5    -21.7425259 -0.519934E-07  0.285E-03    5.32      10.1  T
   6    -21.7425259 -0.134452E-07  0.754E-04    5.32      38.3  T
     SCC iter.                  ...        0 min,  0.002 sec
     gradient                   ...        0 min,  0.001 sec
 * total energy  :   -21.5603395 Eh     change       -0.9879494E-04 Eh
   gradient norm :     0.0050094 Eh/α   predicted    -0.7439844E-04 ( -24.69%)
   displ. norm   :     0.1036764 α      lambda       -0.9704708E-04
   maximum displ.:     0.0749665 α      in ANC's #1, #5, #2, ...

........................................................................
.............................. CYCLE    8 ..............................
........................................................................
   1    -21.7433977 -0.217434E+02  0.144E-01    5.33       0.0  T
   2    -21.7434002 -0.253528E-05  0.898E-02    5.33       1.0  T
   3    -21.7433954  0.482585E-05  0.267E-02    5.33       1.1  T
   4    -21.7434022 -0.674791E-05  0.562E-03    5.33       5.1  T
   5    -21.7434022 -0.293163E-07  0.224E-03    5.33      12.9  T
   6    -21.7434022 -0.403861E-08  0.512E-04    5.33      56.4  T
     SCC iter.                  ...        0 min,  0.001 sec
     gradient                   ...        0 min,  0.001 sec
 * total energy  :   -21.5604058 Eh     change       -0.6627776E-04 Eh
   gradient norm :     0.0042689 Eh/α   predicted    -0.4904451E-04 ( -26.00%)
   displ. norm   :     0.0935216 α      lambda       -0.5613567E-04
   maximum displ.:     0.0658450 α      in ANC's #1, #5, #2, ...

........................................................................
.............................. CYCLE    9 ..............................
........................................................................
   1    -21.7433172 -0.217433E+02  0.134E-01    5.33       0.0  T
   2    -21.7433195 -0.233205E-05  0.840E-02    5.33       1.0  T
   3    -21.7433150  0.454346E-05  0.255E-02    5.33       1.1  T
   4    -21.7433212 -0.618311E-05  0.516E-03    5.33       5.6  T
   5    -21.7433212 -0.321587E-07  0.228E-03    5.33      12.7  T
   6    -21.7433212 -0.367412E-08  0.570E-04    5.33      50.7  T
     SCC iter.                  ...        0 min,  0.001 sec
     gradient                   ...        0 min,  0.004 sec
 * total energy  :   -21.5604447 Eh     change       -0.3898057E-04 Eh
   gradient norm :     0.0035238 Eh/α   predicted    -0.2831393E-04 ( -27.36%)
   displ. norm   :     0.0624335 α      lambda       -0.3737900E-04
   maximum displ.:     0.0423426 α      in ANC's #5, #1, #2, ...

........................................................................
.............................. CYCLE   10 ..............................
........................................................................
   1    -21.7436283 -0.217436E+02  0.101E-01    5.33       0.0  T
   2    -21.7436298 -0.154571E-05  0.636E-02    5.33       1.0  T
   3    -21.7436267  0.310139E-05  0.209E-02    5.33       1.4  T
   4    -21.7436308 -0.411576E-05  0.391E-03    5.33       7.4  T
   5    -21.7436309 -0.252161E-07  0.182E-03    5.33      15.9  T
   6    -21.7436309 -0.205130E-08  0.525E-04    5.33      55.0  T
   7    -21.7436309 -0.307718E-09  0.107E-04    5.33     269.9  T
     SCC iter.                  ...        0 min,  0.002 sec
     gradient                   ...        0 min,  0.091 sec
 * total energy  :   -21.5604718 Eh     change       -0.2703693E-04 Eh
   gradient norm :     0.0023425 Eh/α   predicted    -0.1876022E-04 ( -30.61%)
   displ. norm   :     0.1013884 α      lambda       -0.4216435E-04
   maximum displ.:     0.0770358 α      in ANC's #5, #1, #2, ...

........................................................................
.............................. CYCLE   11 ..............................
........................................................................
   1    -21.7429388 -0.217429E+02  0.185E-01    5.33       0.0  T
   2    -21.7429431 -0.430468E-05  0.116E-01    5.33       1.0  T
   3    -21.7429361  0.698331E-05  0.325E-02    5.34       1.0  T
   4    -21.7429462 -0.101163E-04  0.680E-03    5.33       4.2  T
   5    -21.7429463 -0.586684E-07  0.343E-03    5.33       8.4  T
   6    -21.7429463 -0.121726E-07  0.672E-04    5.33      43.0  T
   7    -21.7429463 -0.150773E-08  0.366E-04    5.33      79.0  T
     SCC iter.                  ...        0 min,  0.003 sec
     gradient                   ...        0 min,  0.001 sec
 * total energy  :   -21.5604935 Eh     change       -0.2173677E-04 Eh
   gradient norm :     0.0060386 Eh/α   predicted    -0.2129794E-04 (  -2.02%)
   displ. norm   :     0.0639197 α      lambda       -0.6656989E-04
   maximum displ.:     0.0433692 α      in ANC's #5, #1, #4, ...

........................................................................
.............................. CYCLE   12 ..............................
........................................................................
   1    -21.7435973 -0.217436E+02  0.118E-01    5.34       0.0  T
   2    -21.7435996 -0.230819E-05  0.742E-02    5.34       1.0  T
   3    -21.7435990  0.664615E-06  0.146E-02    5.34       2.0  T
   4    -21.7436007 -0.171101E-05  0.519E-03    5.34       5.6  T
   5    -21.7436008 -0.116589E-06  0.221E-03    5.34      13.0  T
   6    -21.7436008 -0.402783E-08  0.693E-04    5.34      41.7  T
     SCC iter.                  ...        0 min,  0.001 sec
     gradient                   ...        0 min,  0.001 sec
 * total energy  :   -21.5605383 Eh     change       -0.4481686E-04 Eh
   gradient norm :     0.0034062 Eh/α   predicted    -0.3341904E-04 ( -25.43%)
   displ. norm   :     0.1084480 α      lambda       -0.6817736E-04
   maximum displ.:     0.0801935 α      in ANC's #5, #2, #4, ...

........................................................................
.............................. CYCLE   13 ..............................
........................................................................
   1    -21.7431839 -0.217432E+02  0.217E-01    5.34       0.0  T
   2    -21.7431896 -0.569969E-05  0.137E-01    5.34       1.0  T
   3    -21.7431917 -0.216832E-05  0.163E-02    5.34       1.8  T
   4    -21.7431934 -0.166092E-05  0.822E-03    5.34       3.5  T
   5    -21.7431936 -0.146931E-06  0.356E-03    5.34       8.1  T
   6    -21.7431936 -0.274528E-07  0.728E-04    5.34      39.7  T
   7    -21.7431936 -0.179377E-08  0.412E-04    5.34      70.1  T
     SCC iter.                  ...        0 min,  0.002 sec
     gradient                   ...        0 min,  0.001 sec
 * total energy  :   -21.5605854 Eh     change       -0.4703205E-04 Eh
   gradient norm :     0.0067833 Eh/α   predicted    -0.3448958E-04 ( -26.67%)
   displ. norm   :     0.1565613 α      lambda       -0.1519431E-03
   maximum displ.:     0.1043424 α      in ANC's #1, #5, #3, ...

........................................................................
.............................. CYCLE   14 ..............................
........................................................................
   1    -21.7431862 -0.217432E+02  0.242E-01    5.33       0.0  T
   2    -21.7431946 -0.839608E-05  0.153E-01    5.33       1.0  T
   3    -21.7431928  0.184151E-05  0.290E-02    5.33       1.0  T
   4    -21.7431998 -0.700993E-05  0.100E-02    5.33       2.9  T
   5    -21.7432000 -0.229291E-06  0.428E-03    5.33       6.7  T
   6    -21.7432000 -0.157547E-07  0.101E-03    5.33      28.7  T
   7    -21.7432000 -0.279416E-08  0.510E-04    5.33      56.6  T
     SCC iter.                  ...        0 min,  0.002 sec
     gradient                   ...        0 min,  0.001 sec
 * total energy  :   -21.5606750 Eh     change       -0.8967820E-04 Eh
   gradient norm :     0.0054007 Eh/α   predicted    -0.7783438E-04 ( -13.21%)
   displ. norm   :     0.0647619 α      lambda       -0.6163164E-04
   maximum displ.:     0.0553194 α      in ANC's #1, #3, #25, ...

........................................................................
.............................. CYCLE   15 ..............................
........................................................................
   1    -21.7439898 -0.217440E+02  0.602E-02    5.32       0.0  T
   2    -21.7439905 -0.659608E-06  0.368E-02    5.32       1.0  T
   3    -21.7439887  0.174525E-05  0.152E-02    5.32       1.9  T
   4    -21.7439909 -0.212226E-05  0.260E-03    5.32      11.1  T
   5    -21.7439909 -0.139457E-07  0.106E-03    5.32      27.2  T
     SCC iter.                  ...        0 min,  0.001 sec
     gradient                   ...        0 min,  0.001 sec
 * total energy  :   -21.5607150 Eh     change       -0.3993021E-04 Eh
   gradient norm :     0.0030928 Eh/α   predicted    -0.3094295E-04 ( -22.51%)
   displ. norm   :     0.2621853 α      lambda       -0.1545266E-03
   maximum displ.:     0.1512647 α      in ANC's #1, #5, #3, ...

........................................................................
.............................. CYCLE   16 ..............................
........................................................................
   1    -21.7415872 -0.217416E+02  0.418E-01    5.31       0.0  T
   2    -21.7416090 -0.217962E-04  0.262E-01    5.31       1.0  T
   3    -21.7416210 -0.119445E-04  0.244E-02    5.31       1.2  T
   4    -21.7416214 -0.430957E-06  0.167E-02    5.31       1.7  T
   5    -21.7416227 -0.135935E-05  0.679E-03    5.31       4.3  T
   6    -21.7416228 -0.839479E-07  0.150E-03    5.31      19.2  T
   7    -21.7416228 -0.710378E-08  0.809E-04    5.31      35.7  T
   8    -21.7416228 -0.263573E-08  0.423E-04    5.31      68.2  T
     SCC iter.                  ...        0 min,  0.003 sec
     gradient                   ...        0 min,  0.001 sec
 * total energy  :   -21.5605265 Eh     change        0.1884434E-03 Eh
   gradient norm :     0.0224455 Eh/α   predicted    -0.8257420E-04 (-143.82%)
   displ. norm   :     0.1704501 α      lambda       -0.7412005E-03
   maximum displ.:     0.0930995 α      in ANC's #5, #1, #4, ...

........................................................................
.............................. CYCLE   17 ..............................
........................................................................
   1    -21.7444409 -0.217444E+02  0.307E-01    5.32       0.0  T
   2    -21.7444603 -0.193284E-04  0.193E-01    5.32       1.0  T
   3    -21.7444701 -0.979110E-05  0.203E-02    5.33       1.4  T
   4    -21.7444704 -0.330525E-06  0.103E-02    5.32       2.8  T
   5    -21.7444705 -0.135246E-06  0.662E-03    5.33       4.4  T
   6    -21.7444707 -0.211261E-06  0.182E-03    5.33      15.8  T
   7    -21.7444707 -0.114553E-07  0.823E-04    5.33      35.1  T
     SCC iter.                  ...        0 min,  0.092 sec
     gradient                   ...        0 min,  0.002 sec
 * total energy  :   -21.5607802 Eh     change       -0.2536159E-03 Eh
   gradient norm :     0.0027997 Eh/α   predicted    -0.3813644E-03 (  50.37%)
   displ. norm   :     0.0429562 α      lambda       -0.3610150E-04
   maximum displ.:     0.0259465 α      in ANC's #5, #1, #25, ...

........................................................................
.............................. CYCLE   18 ..............................
........................................................................
   1    -21.7442351 -0.217442E+02  0.679E-02    5.32       0.0  T
   2    -21.7442354 -0.373978E-06  0.420E-02    5.32       1.0  T
   3    -21.7442355 -0.745577E-07  0.426E-03    5.32       6.8  T
   4    -21.7442356 -0.108666E-06  0.220E-03    5.32      13.1  T
   5    -21.7442356 -0.187325E-07  0.989E-04    5.32      29.2  T
   6    -21.7442356 -0.773369E-09  0.155E-04    5.32     186.3  T
     SCC iter.                  ...        0 min,  0.001 sec
     gradient                   ...        0 min,  0.001 sec
 * total energy  :   -21.5608145 Eh     change       -0.3436343E-04 Eh
   gradient norm :     0.0022233 Eh/α   predicted    -0.1808545E-04 ( -47.37%)
   displ. norm   :     0.4349689 α      lambda       -0.3165830E-03
   maximum displ.:     0.2553176 α      in ANC's #5, #1, #25, ...

........................................................................
.............................. CYCLE   19 ..............................
........................................................................
   1    -21.7370396 -0.217370E+02  0.672E-01    5.31       0.0  T
   2    -21.7370861 -0.465377E-04  0.413E-01    5.32       1.0  T
   3    -21.7371031 -0.169999E-04  0.349E-02    5.32       1.0  T
   4    -21.7371047 -0.153849E-05  0.243E-02    5.32       1.2  T
   5    -21.7371079 -0.320317E-05  0.111E-02    5.32       2.6  T
   6    -21.7371080 -0.142003E-06  0.160E-03    5.32      18.0  T
   7    -21.7371080 -0.678449E-08  0.772E-04    5.32      37.4  T
   8    -21.7371080 -0.212714E-08  0.422E-04    5.32      68.4  T
     SCC iter.                  ...        0 min,  0.092 sec
     gradient                   ...        0 min,  0.001 sec
 * total energy  :   -21.5597722 Eh     change        0.1042296E-02 Eh
   gradient norm :     0.0431029 Eh/α   predicted    -0.1882442E-03 (-118.06%)
   displ. norm   :     0.3106022 α      lambda       -0.3404521E-02
   maximum displ.:     0.2000874 α      in ANC's #5, #1, #25, ...

........................................................................
.............................. CYCLE   20 ..............................
........................................................................
   1    -21.7441244 -0.217441E+02  0.530E-01    5.33       0.0  T
   2    -21.7441874 -0.629882E-04  0.326E-01    5.32       1.0  T
   3    -21.7442004 -0.129706E-04  0.454E-02    5.32       1.0  T
   4    -21.7442035 -0.311864E-05  0.300E-02    5.33       1.0  T
   5    -21.7442097 -0.624756E-05  0.116E-02    5.32       2.5  T
   6    -21.7442099 -0.162132E-06  0.306E-03    5.32       9.4  T
   7    -21.7442099 -0.193241E-07  0.115E-03    5.32      25.1  T
     SCC iter.                  ...        0 min,  0.002 sec
     gradient                   ...        0 min,  0.001 sec
 * total energy  :   -21.5608786 Eh     change       -0.1106407E-02 Eh
   gradient norm :     0.0023561 Eh/α   predicted    -0.1866476E-02 (  68.70%)
   displ. norm   :     0.0268998 α      lambda       -0.2726650E-04
   maximum displ.:     0.0164455 α      in ANC's #5, #1, #3, ...
 * RMSD in coord.:     0.3722686 α      energy gain  -0.1816678E-01 Eh

generating ANC from model Hessian ...
Using Lindh-Hessian (1995)
 Shifting diagonal of input Hessian by   7.579618684258039E-003
 Lowest  eigenvalues of input Hessian
   -0.000000   -0.000000    0.000000    0.000000    0.000000    0.000000
    0.010000    0.012307    0.019933    0.023125    0.028294    0.042589
    0.053319    0.060446    0.070271    0.097661    0.108922    0.118679
 Highest eigenvalues
    1.246887    1.287872    1.368589    1.573336    1.800501    2.121344
 

........................................................................
.............................. CYCLE   21 ..............................
........................................................................
   1    -21.7440564 -0.217441E+02  0.464E-02    5.32       0.0  T
   2    -21.7440567 -0.263429E-06  0.290E-02    5.32       1.0  T
   3    -21.7440565  0.188385E-06  0.594E-03    5.33       4.9  T
   4    -21.7440568 -0.315511E-06  0.165E-03    5.32      17.5  T
   5    -21.7440568 -0.103001E-07  0.805E-04    5.33      35.9  T
   6    -21.7440568 -0.533948E-09  0.227E-04    5.33     127.0  T
     SCC iter.                  ...        0 min,  0.091 sec
     gradient                   ...        0 min,  0.001 sec
 * total energy  :   -21.5609009 Eh     change       -0.2232421E-04 Eh
   gradient norm :     0.0016064 Eh/α   predicted     0.0000000E+00 (-100.00%)
   displ. norm   :     0.0420802 α      lambda       -0.2377040E-04
   maximum displ.:     0.0379745 α      in ANC's #5, #2, #7, ...

........................................................................
.............................. CYCLE   22 ..............................
........................................................................
   1    -21.7442226 -0.217442E+02  0.901E-02    5.33       0.0  T
   2    -21.7442236 -0.972682E-06  0.569E-02    5.33       1.0  T
   3    -21.7442240 -0.475688E-06  0.569E-03    5.33       5.1  T
   4    -21.7442242 -0.139405E-06  0.331E-03    5.33       8.7  T
   5    -21.7442242 -0.321594E-07  0.131E-03    5.33      22.0  T
   6    -21.7442242 -0.319110E-08  0.258E-04    5.33     111.8  T
   7    -21.7442242 -0.161997E-09  0.123E-04    5.33     234.3  T
     SCC iter.                  ...        0 min,  0.002 sec
     gradient                   ...        0 min,  0.001 sec
 * total energy  :   -21.5609346 Eh     change       -0.3360293E-04 Eh
   gradient norm :     0.0011006 Eh/α   predicted    -0.1189420E-04 ( -64.60%)
   displ. norm   :     0.3080134 α      lambda       -0.1555382E-03
   maximum displ.:     0.2685474 α      in ANC's #5, #2, #7, ...

........................................................................
.............................. CYCLE   23 ..............................
........................................................................
   1    -21.7403324 -0.217403E+02  0.643E-01    5.32       0.0  T
   2    -21.7403817 -0.492539E-04  0.404E-01    5.32       1.0  T
   3    -21.7404145 -0.328660E-04  0.305E-02    5.32       1.0  T
   4    -21.7404144  0.124350E-06  0.170E-02    5.32       1.7  T
   5    -21.7404150 -0.585008E-06  0.870E-03    5.32       3.3  T
   6    -21.7404154 -0.447463E-06  0.203E-03    5.32      14.2  T
   7    -21.7404155 -0.134629E-07  0.118E-03    5.32      24.4  T
   8    -21.7404155 -0.630472E-08  0.516E-04    5.32      56.0  T
   9    -21.7404155 -0.134885E-08  0.124E-04    5.32     232.9  T
     SCC iter.                  ...        0 min,  0.093 sec
     gradient                   ...        0 min,  0.001 sec
 * total energy  :   -21.5605381 Eh     change        0.3964711E-03 Eh
   gradient norm :     0.0299564 Eh/α   predicted    -0.8104069E-04 (-120.44%)
   displ. norm   :     0.1624203 α      lambda       -0.1150092E-02
   maximum displ.:     0.1431132 α      in ANC's #5, #2, #7, ...

........................................................................
.............................. CYCLE   24 ..............................
........................................................................
   1    -21.7437455 -0.217437E+02  0.346E-01    5.32       0.0  T
   2    -21.7437700 -0.245841E-04  0.217E-01    5.32       1.0  T
   3    -21.7437817 -0.116980E-04  0.225E-02    5.32       1.3  T
   4    -21.7437821 -0.360914E-06  0.116E-02    5.33       2.5  T
   5    -21.7437823 -0.167988E-06  0.746E-03    5.32       3.9  T
   6    -21.7437825 -0.260694E-06  0.182E-03    5.33      15.9  T
   7    -21.7437825 -0.997768E-08  0.816E-04    5.32      35.4  T
     SCC iter.                  ...        0 min,  0.002 sec
     gradient                   ...        0 min,  0.001 sec
 * total energy  :   -21.5610201 Eh     change       -0.4820396E-03 Eh
   gradient norm :     0.0053654 Eh/α   predicted    -0.5902166E-03 (  22.44%)
   displ. norm   :     0.0199810 α      lambda       -0.2816416E-04
   maximum displ.:     0.0110485 α      in ANC's #5, #2, #4, ...

........................................................................
.............................. CYCLE   25 ..............................
........................................................................
   1    -21.7440711 -0.217441E+02  0.316E-02    5.33       0.0  T
   2    -21.7440713 -0.161970E-06  0.193E-02    5.33       1.5  T
   3    -21.7440713 -0.524990E-07  0.209E-03    5.33      13.8  T
   4    -21.7440713 -0.217231E-08  0.140E-03    5.33      20.6  T
     SCC iter.                  ...        0 min,  0.091 sec
     gradient                   ...        0 min,  0.003 sec
 * total energy  :   -21.5610439 Eh     change       -0.2380260E-04 Eh
   gradient norm :     0.0030912 Eh/α   predicted    -0.1408718E-04 ( -40.82%)
   displ. norm   :     0.0891587 α      lambda       -0.7565293E-04
   maximum displ.:     0.0551098 α      in ANC's #5, #2, #4, ...

........................................................................
.............................. CYCLE   26 ..............................
........................................................................
   1    -21.7445772 -0.217446E+02  0.145E-01    5.33       0.0  T
   2    -21.7445790 -0.184659E-05  0.895E-02    5.33       1.0  T
   3    -21.7445800 -0.959824E-06  0.708E-03    5.33       4.1  T
   4    -21.7445800 -0.782754E-08  0.497E-03    5.33       5.8  T
   5    -21.7445801 -0.120612E-06  0.183E-03    5.33      15.7  T
   6    -21.7445801 -0.526149E-08  0.319E-04    5.33      90.4  T
   7    -21.7445801 -0.265828E-09  0.146E-04    5.33     197.7  T
     SCC iter.                  ...        0 min,  0.094 sec
     gradient                   ...        0 min,  0.001 sec
 * total energy  :   -21.5611037 Eh     change       -0.5975034E-04 Eh
   gradient norm :     0.0010326 Eh/α   predicted    -0.3812755E-04 ( -36.19%)
   displ. norm   :     0.4404007 α      lambda       -0.1795487E-03
   maximum displ.:     0.2879902 α      in ANC's #5, #2, #4, ...

........................................................................
.............................. CYCLE   27 ..............................
........................................................................
   1    -21.7380427 -0.217380E+02  0.740E-01    5.33       0.0  T
   2    -21.7380971 -0.544464E-04  0.455E-01    5.33       1.0  T
   3    -21.7381207 -0.235883E-04  0.420E-02    5.33       1.0  T
   4    -21.7381250 -0.428273E-05  0.283E-02    5.32       1.0  T
   5    -21.7381284 -0.345410E-05  0.116E-02    5.33       2.5  T
   6    -21.7381286 -0.149916E-06  0.214E-03    5.33      13.5  T
   7    -21.7381286 -0.118408E-07  0.903E-04    5.33      32.0  T
   8    -21.7381286 -0.280700E-08  0.492E-04    5.33      58.6  T
     SCC iter.                  ...        0 min,  0.095 sec
     gradient                   ...        0 min,  0.002 sec
 * total energy  :   -21.5600730 Eh     change        0.1030625E-02 Eh
   gradient norm :     0.0425325 Eh/α   predicted    -0.9751592E-04 (-109.46%)
   displ. norm   :     0.2368078 α      lambda       -0.2606678E-02
   maximum displ.:     0.1679424 α      in ANC's #5, #2, #4, ...

........................................................................
.............................. CYCLE   28 ..............................
........................................................................
   1    -21.7435925 -0.217436E+02  0.424E-01    5.33       0.0  T
   2    -21.7436346 -0.421366E-04  0.260E-01    5.33       1.0  T
   3    -21.7436450 -0.103694E-04  0.365E-02    5.32       1.0  T
   4    -21.7436466 -0.168004E-05  0.245E-02    5.33       1.2  T
   5    -21.7436506 -0.399327E-05  0.946E-03    5.33       3.1  T
   6    -21.7436507 -0.984234E-07  0.256E-03    5.33      11.3  T
   7    -21.7436507 -0.122148E-07  0.970E-04    5.33      29.8  T
     SCC iter.                  ...        0 min,  0.002 sec
     gradient                   ...        0 min,  0.092 sec
 * total energy  :   -21.5611834 Eh     change       -0.1110318E-02 Eh
   gradient norm :     0.0071312 Eh/α   predicted    -0.1376429E-02 (  23.97%)
   displ. norm   :     0.0114620 α      lambda       -0.3173970E-04
   maximum displ.:     0.0060528 α      in ANC's #1, #6, #26, ...

........................................................................
.............................. CYCLE   29 ..............................
........................................................................
   1    -21.7440826 -0.217441E+02  0.153E-02    5.32       0.0  T
   2    -21.7440827 -0.145670E-06  0.944E-03    5.32       3.1  T
   3    -21.7440826  0.916505E-07  0.461E-03    5.32       6.3  T
   4    -21.7440828 -0.149122E-06  0.139E-03    5.32      20.8  T
   5    -21.7440828 -0.656440E-08  0.468E-04    5.32      61.7  T
     SCC iter.                  ...        0 min,  0.001 sec
     gradient                   ...        0 min,  0.001 sec
 * total energy  :   -21.5612075 Eh     change       -0.2410723E-04 Eh
   gradient norm :     0.0041000 Eh/α   predicted    -0.1587329E-04 ( -34.16%)
   displ. norm   :     0.0282252 α      lambda       -0.3291083E-04
   maximum displ.:     0.0168079 α      in ANC's #1, #2, #5, ...

........................................................................
.............................. CYCLE   30 ..............................
........................................................................
   1    -21.7446505 -0.217447E+02  0.406E-02    5.32       0.0  T
   2    -21.7446508 -0.364148E-06  0.249E-02    5.32       1.2  T
   3    -21.7446503  0.560485E-06  0.920E-03    5.32       3.1  T
   4    -21.7446510 -0.750294E-06  0.210E-03    5.32      13.8  T
   5    -21.7446510 -0.113190E-07  0.825E-04    5.32      35.0  T
     SCC iter.                  ...        0 min,  0.001 sec
     gradient                   ...        0 min,  0.001 sec
 * total energy  :   -21.5612290 Eh     change       -0.2151988E-04 Eh
   gradient norm :     0.0008717 Eh/α   predicted    -0.1646900E-04 ( -23.47%)
   displ. norm   :     0.0650923 α      lambda       -0.2023927E-04
   maximum displ.:     0.0340511 α      in ANC's #1, #5, #2, ...

........................................................................
.............................. CYCLE   31 ..............................
........................................................................
   1    -21.7448991 -0.217449E+02  0.995E-02    5.32       0.0  T
   2    -21.7448999 -0.770687E-06  0.612E-02    5.32       1.0  T
   3    -21.7448992  0.710669E-06  0.118E-02    5.32       2.5  T
   4    -21.7449005 -0.127086E-05  0.341E-03    5.32       8.5  T
   5    -21.7449005 -0.824352E-08  0.913E-04    5.32      31.6  T
   6    -21.7449005 -0.435609E-09  0.185E-04    5.32     156.4  T
     SCC iter.                  ...        0 min,  0.002 sec
     gradient                   ...        0 min,  0.004 sec
 * total energy  :   -21.5612570 Eh     change       -0.2796328E-04 Eh
   gradient norm :     0.0020578 Eh/α   predicted    -0.1014054E-04 ( -63.74%)
   displ. norm   :     0.5414306 α      lambda       -0.2477889E-03
   maximum displ.:     0.2919205 α      in ANC's #5, #2, #1, ...

........................................................................
.............................. CYCLE   32 ..............................
........................................................................
   1    -21.7365980 -0.217366E+02  0.833E-01    5.32       0.0  T
   2    -21.7366785 -0.804590E-04  0.511E-01    5.32       1.0  T
   3    -21.7366933 -0.148266E-04  0.673E-02    5.32       1.0  T
   4    -21.7367186 -0.253276E-04  0.350E-02    5.32       1.0  T
   5    -21.7367231 -0.448894E-05  0.148E-02    5.32       1.9  T
   6    -21.7367233 -0.203241E-06  0.305E-03    5.32       9.5  T
   7    -21.7367233 -0.235309E-07  0.112E-03    5.32      25.7  T
   8    -21.7367234 -0.441837E-08  0.599E-04    5.32      48.2  T
   9    -21.7367234 -0.177284E-08  0.176E-04    5.32     164.4  T
     SCC iter.                  ...        0 min,  0.092 sec
     gradient                   ...        0 min,  0.001 sec
 * total energy  :   -21.5595355 Eh     change        0.1721497E-02 Eh
   gradient norm :     0.0508700 Eh/α   predicted    -0.1601978E-03 (-109.31%)
   displ. norm   :     0.3710315 α      lambda       -0.5593960E-02
   maximum displ.:     0.2408991 α      in ANC's #5, #2, #1, ...

........................................................................
.............................. CYCLE   33 ..............................
........................................................................
   1    -21.7447049 -0.217447E+02  0.658E-01    5.32       0.0  T
   2    -21.7448229 -0.118056E-03  0.405E-01    5.32       1.0  T
   3    -21.7448520 -0.290922E-04  0.624E-02    5.33       1.0  T
   4    -21.7448564 -0.440119E-05  0.408E-02    5.32       1.0  T
   5    -21.7448676 -0.112229E-04  0.157E-02    5.32       1.8  T
   6    -21.7448679 -0.284245E-06  0.379E-03    5.32       7.6  T
   7    -21.7448680 -0.280551E-07  0.145E-03    5.32      19.9  T
     SCC iter.                  ...        0 min,  0.002 sec
     gradient                   ...        0 min,  0.001 sec
 * total energy  :   -21.5612952 Eh     change       -0.1759747E-02 Eh
   gradient norm :     0.0030095 Eh/α   predicted    -0.3182032E-02 (  80.82%)
   displ. norm   :     0.0240205 α      lambda       -0.2588507E-04
   maximum displ.:     0.0155379 α      in ANC's #1, #5, #6, ...

........................................................................
.............................. CYCLE   34 ..............................
........................................................................
   1    -21.7447956 -0.217448E+02  0.505E-02    5.32       0.0  T
   2    -21.7447960 -0.387415E-06  0.321E-02    5.32       1.0  T
   3    -21.7447960 -0.776039E-07  0.453E-03    5.32       6.4  T
   4    -21.7447962 -0.160816E-06  0.177E-03    5.32      16.3  T
   5    -21.7447962 -0.113485E-07  0.722E-04    5.32      40.0  T
   6    -21.7447962 -0.232202E-09  0.125E-04    5.32     230.9  T
     SCC iter.                  ...        0 min,  0.001 sec
     gradient                   ...        0 min,  0.091 sec
 * total energy  :   -21.5613142 Eh     change       -0.1894496E-04 Eh
   gradient norm :     0.0011261 Eh/α   predicted    -0.1295109E-04 ( -31.64%)
   displ. norm   :     0.0502858 α      lambda       -0.2178502E-04
   maximum displ.:     0.0355879 α      in ANC's #5, #1, #7, ...

........................................................................
.............................. CYCLE   35 ..............................
........................................................................
   1    -21.7443847 -0.217444E+02  0.110E-01    5.32       0.0  T
   2    -21.7443866 -0.183196E-05  0.697E-02    5.32       1.0  T
   3    -21.7443874 -0.821434E-06  0.766E-03    5.32       3.8  T
   4    -21.7443876 -0.252309E-06  0.453E-03    5.32       6.4  T
   5    -21.7443877 -0.845816E-07  0.179E-03    5.32      16.1  T
   6    -21.7443877 -0.257534E-08  0.332E-04    5.32      87.0  T
   7    -21.7443877 -0.282540E-09  0.135E-04    5.32     213.1  T
     SCC iter.                  ...        0 min,  0.002 sec
     gradient                   ...        0 min,  0.001 sec
 * total energy  :   -21.5613291 Eh     change       -0.1497104E-04 Eh
   gradient norm :     0.0034566 Eh/α   predicted    -0.1090586E-04 ( -27.15%)
   displ. norm   :     0.0162256 α      lambda       -0.9259480E-05
   maximum displ.:     0.0102198 α      in ANC's #2, #5, #4, ...

........................................................................
.............................. CYCLE   36 ..............................
........................................................................
   1    -21.7443513 -0.217444E+02  0.246E-02    5.32       0.0  T
   2    -21.7443513 -0.323058E-07  0.150E-02    5.32       1.9  T
   3    -21.7443513 -0.157018E-07  0.874E-04    5.32      33.0  T
   4    -21.7443513 -0.402945E-09  0.562E-04    5.32      51.4  T
     SCC iter.                  ...        0 min,  0.001 sec
     gradient                   ...        0 min,  0.001 sec
 * total energy  :   -21.5613375 Eh     change       -0.8412068E-05 Eh
   gradient norm :     0.0033024 Eh/α   predicted    -0.4631816E-05 ( -44.94%)
   displ. norm   :     0.0912076 α      lambda       -0.4411182E-04
   maximum displ.:     0.0554093 α      in ANC's #2, #5, #4, ...

........................................................................
.............................. CYCLE   37 ..............................
........................................................................
   1    -21.7440272 -0.217440E+02  0.146E-01    5.32       0.0  T
   2    -21.7440287 -0.148668E-05  0.896E-02    5.32       1.0  T
   3    -21.7440296 -0.894325E-06  0.595E-03    5.32       4.8  T
   4    -21.7440296 -0.131736E-07  0.311E-03    5.32       9.3  T
   5    -21.7440296  0.231153E-08  0.129E-03    5.32      22.4  T
   6    -21.7440296 -0.112719E-07  0.414E-04    5.32      69.8  T
   7    -21.7440296 -0.111213E-08  0.110E-04    5.32     261.8  T
     SCC iter.                  ...        0 min,  0.002 sec
     gradient                   ...        0 min,  0.001 sec
 * total energy  :   -21.5613626 Eh     change       -0.2505026E-04 Eh
   gradient norm :     0.0050769 Eh/α   predicted    -0.2223977E-04 ( -11.22%)
   displ. norm   :     0.0175034 α      lambda       -0.1409837E-04
   maximum displ.:     0.0101896 α      in ANC's #2, #26, #4, ...

........................................................................
.............................. CYCLE   38 ..............................
........................................................................
   1    -21.7442474 -0.217442E+02  0.280E-02    5.32       0.0  T
   2    -21.7442475 -0.121797E-06  0.173E-02    5.32       1.7  T
   3    -21.7442476 -0.512829E-07  0.187E-03    5.32      15.4  T
   4    -21.7442476 -0.130685E-08  0.125E-03    5.32      23.0  T
     SCC iter.                  ...        0 min,  0.001 sec
     gradient                   ...        0 min,  0.001 sec
 * total energy  :   -21.5613744 Eh     change       -0.1180698E-04 Eh
   gradient norm :     0.0036732 Eh/α   predicted    -0.7052466E-05 ( -40.27%)
   displ. norm   :     0.0945730 α      lambda       -0.4444755E-04
   maximum displ.:     0.0441409 α      in ANC's #2, #5, #26, ...

........................................................................
.............................. CYCLE   39 ..............................
........................................................................
   1    -21.7442652 -0.217443E+02  0.177E-01    5.32       0.0  T
   2    -21.7442687 -0.343189E-05  0.110E-01    5.32       1.0  T
   3    -21.7442709 -0.221621E-05  0.940E-03    5.32       3.1  T
   4    -21.7442709 -0.352852E-08  0.623E-03    5.32       4.6  T
   5    -21.7442710 -0.128342E-06  0.197E-03    5.32      14.7  T
   6    -21.7442710 -0.201578E-07  0.297E-04    5.32      97.2  T
   7    -21.7442710 -0.268951E-09  0.128E-04    5.32     225.6  T
     SCC iter.                  ...        0 min,  0.092 sec
     gradient                   ...        0 min,  0.001 sec
 * total energy  :   -21.5614077 Eh     change       -0.3330953E-04 Eh
   gradient norm :     0.0040579 Eh/α   predicted    -0.2242302E-04 ( -32.68%)
   displ. norm   :     0.0881117 α      lambda       -0.5287215E-04
   maximum displ.:     0.0405351 α      in ANC's #26, #5, #7, ...

........................................................................
.............................. CYCLE   40 ..............................
........................................................................
   1    -21.7445927 -0.217446E+02  0.178E-01    5.32       0.0  T
   2    -21.7445967 -0.399640E-05  0.112E-01    5.32       1.0  T
   3    -21.7445982 -0.146477E-05  0.144E-02    5.32       2.0  T
   4    -21.7445995 -0.130963E-05  0.709E-03    5.32       4.1  T
   5    -21.7445995 -0.690336E-07  0.171E-03    5.32      16.8  T
   6    -21.7445995 -0.670681E-08  0.357E-04    5.32      80.9  T
     SCC iter.                  ...        0 min,  0.001 sec
     gradient                   ...        0 min,  0.001 sec
 * total energy  :   -21.5614427 Eh     change       -0.3495486E-04 Eh
   gradient norm :     0.0025185 Eh/α   predicted    -0.2664109E-04 ( -23.78%)
   displ. norm   :     0.0943088 α      lambda       -0.2916325E-04
   maximum displ.:     0.0428152 α      in ANC's #26, #5, #2, ...

........................................................................
.............................. CYCLE   41 ..............................
........................................................................
   1    -21.7441009 -0.217441E+02  0.180E-01    5.32       0.0  T
   2    -21.7441041 -0.328805E-05  0.111E-01    5.32       1.0  T
   3    -21.7441039  0.256006E-06  0.173E-02    5.32       1.7  T
   4    -21.7441063 -0.237053E-05  0.678E-03    5.32       4.3  T
   5    -21.7441063 -0.637009E-07  0.266E-03    5.32      10.9  T
   6    -21.7441063 -0.746365E-08  0.400E-04    5.32      72.2  T
   7    -21.7441063 -0.367457E-09  0.104E-04    5.32     277.2  T
     SCC iter.                  ...        0 min,  0.002 sec
     gradient                   ...        0 min,  0.091 sec
 * total energy  :   -21.5614557 Eh     change       -0.1300504E-04 Eh
   gradient norm :     0.0060008 Eh/α   predicted    -0.1471180E-04 (  13.12%)
   displ. norm   :     0.1035723 α      lambda       -0.8799149E-04
   maximum displ.:     0.0569360 α      in ANC's #26, #5, #7, ...

........................................................................
.............................. CYCLE   42 ..............................
........................................................................
   1    -21.7447010 -0.217447E+02  0.203E-01    5.33       0.0  T
   2    -21.7447052 -0.415798E-05  0.125E-01    5.33       1.0  T
   3    -21.7446946  0.105695E-04  0.378E-02    5.32       1.0  T
   4    -21.7447086 -0.139616E-04  0.724E-03    5.32       4.0  T
   5    -21.7447086 -0.418496E-07  0.320E-03    5.32       9.0  T
   6    -21.7447086 -0.917927E-08  0.634E-04    5.32      45.5  T
   7    -21.7447086 -0.106034E-08  0.307E-04    5.32      94.2  T
     SCC iter.                  ...        0 min,  0.002 sec
     gradient                   ...        0 min,  0.002 sec
 * total energy  :   -21.5615044 Eh     change       -0.4878130E-04 Eh
   gradient norm :     0.0022247 Eh/α   predicted    -0.4446705E-04 (  -8.84%)
   displ. norm   :     0.1030063 α      lambda       -0.3157311E-04
   maximum displ.:     0.0511327 α      in ANC's #26, #2, #7, ...
 * RMSD in coord.:     0.3743515 α      energy gain  -0.6258179E-03 Eh

generating ANC from model Hessian ...
Using Lindh-Hessian (1995)
 Shifting diagonal of input Hessian by   7.735075254515542E-003
 Lowest  eigenvalues of input Hessian
   -0.000000    0.000000    0.000000    0.000000    0.000000    0.000000
    0.010000    0.012286    0.020265    0.022112    0.028714    0.041966
    0.054992    0.063173    0.071745    0.098544    0.104664    0.118327
 Highest eigenvalues
    1.244525    1.274105    1.367882    1.569953    1.794546    2.118064
 

........................................................................
.............................. CYCLE   43 ..............................
........................................................................
   1    -21.7438738 -0.217439E+02  0.190E-01    5.32       0.0  T
   2    -21.7438775 -0.368051E-05  0.117E-01    5.32       1.0  T
   3    -21.7438745  0.298334E-05  0.243E-02    5.32       1.2  T
   4    -21.7438798 -0.531375E-05  0.704E-03    5.32       4.1  T
   5    -21.7438798 -0.672331E-07  0.307E-03    5.32       9.4  T
   6    -21.7438799 -0.685990E-08  0.610E-04    5.32      47.3  T
   7    -21.7438799 -0.617497E-09  0.126E-04    5.32     228.8  T
     SCC iter.                  ...        0 min,  0.092 sec
     gradient                   ...        0 min,  0.001 sec
 * total energy  :   -21.5615113 Eh     change       -0.6883649E-05 Eh
   gradient norm :     0.0074214 Eh/α   predicted     0.0000000E+00 (-100.00%)
   displ. norm   :     0.0226722 α      lambda       -0.5264420E-04
   maximum displ.:     0.0131581 α      in ANC's #1, #2, #4, ...

........................................................................
.............................. CYCLE   44 ..............................
........................................................................
   1    -21.7444969 -0.217445E+02  0.315E-02    5.32       0.0  T
   2    -21.7444973 -0.403746E-06  0.187E-02    5.32       1.5  T
   3    -21.7444974 -0.526228E-07  0.368E-03    5.32       7.8  T
   4    -21.7444974 -0.771526E-08  0.230E-03    5.32      12.6  T
   5    -21.7444974 -0.404605E-07  0.812E-04    5.32      35.5  T
     SCC iter.                  ...        0 min,  0.001 sec
     gradient                   ...        0 min,  0.001 sec
 * total energy  :   -21.5615477 Eh     change       -0.3640271E-04 Eh
   gradient norm :     0.0024730 Eh/α   predicted    -0.2633678E-04 ( -27.65%)
   displ. norm   :     0.0323005 α      lambda       -0.1834122E-04
   maximum displ.:     0.0193444 α      in ANC's #1, #2, #4, ...

........................................................................
.............................. CYCLE   45 ..............................
........................................................................
   1    -21.7448723 -0.217449E+02  0.435E-02    5.32       0.0  T
   2    -21.7448725 -0.217882E-06  0.263E-02    5.32       1.1  T
   3    -21.7448725  0.124638E-07  0.334E-03    5.32       8.6  T
   4    -21.7448726 -0.596510E-07  0.186E-03    5.32      15.5  T
   5    -21.7448726 -0.238860E-07  0.677E-04    5.32      42.6  T
   6    -21.7448726 -0.468258E-09  0.227E-04    5.32     127.4  T
     SCC iter.                  ...        0 min,  0.001 sec
     gradient                   ...        0 min,  0.091 sec
 * total energy  :   -21.5615603 Eh     change       -0.1259023E-04 Eh
   gradient norm :     0.0008757 Eh/α   predicted    -0.9179257E-05 ( -27.09%)
   displ. norm   :     0.0736712 α      lambda       -0.1415472E-04
   maximum displ.:     0.0441519 α      in ANC's #2, #1, #4, ...

........................................................................
.............................. CYCLE   46 ..............................
........................................................................
   1    -21.7450451 -0.217450E+02  0.106E-01    5.32       0.0  T
   2    -21.7450459 -0.769816E-06  0.646E-02    5.32       1.0  T
   3    -21.7450462 -0.337023E-06  0.435E-03    5.32       6.6  T
   4    -21.7450462 -0.235527E-07  0.281E-03    5.32      10.3  T
   5    -21.7450462 -0.117560E-07  0.162E-03    5.32      17.9  T
   6    -21.7450462 -0.111572E-07  0.309E-04    5.32      93.5  T
   7    -21.7450462 -0.184496E-09  0.723E-05    5.32     399.3  T
     SCC iter.                  ...        0 min,  0.002 sec
     gradient                   ...        0 min,  0.199 sec
 * total energy  :   -21.5615796 Eh     change       -0.1926688E-04 Eh
   gradient norm :     0.0021997 Eh/α   predicted    -0.7095108E-05 ( -63.17%)
   displ. norm   :     0.5258470 α      lambda       -0.1507094E-03
   maximum displ.:     0.3138433 α      in ANC's #2, #1, #4, ...

........................................................................
.............................. CYCLE   47 ..............................
........................................................................
   1    -21.7393202 -0.217393E+02  0.743E-01    5.32       0.0  T
   2    -21.7393874 -0.671659E-04  0.457E-01    5.32       1.0  T
   3    -21.7394179 -0.304978E-04  0.401E-02    5.32       1.0  T
   4    -21.7394199 -0.203789E-05  0.221E-02    5.32       1.3  T
   5    -21.7394198  0.908713E-07  0.899E-03    5.32       3.2  T
   6    -21.7394202 -0.388985E-06  0.400E-03    5.32       7.2  T
   7    -21.7394203 -0.906308E-07  0.747E-04    5.32      38.6  T
   8    -21.7394203 -0.155487E-08  0.391E-04    5.32      73.9  T
     SCC iter.                  ...        0 min,  0.002 sec
     gradient                   ...        0 min,  0.001 sec
 * total energy  :   -21.5608460 Eh     change        0.7335822E-03 Eh
   gradient norm :     0.0357798 Eh/α   predicted    -0.9617026E-04 (-113.11%)
   displ. norm   :     0.3645644 α      lambda       -0.2603097E-02
   maximum displ.:     0.2033202 α      in ANC's #2, #5, #4, ...

........................................................................
.............................. CYCLE   48 ..............................
........................................................................
   1    -21.7450316 -0.217450E+02  0.573E-01    5.32       0.0  T
   2    -21.7451018 -0.702250E-04  0.353E-01    5.32       1.0  T
   3    -21.7451259 -0.241338E-04  0.406E-02    5.32       1.0  T
   4    -21.7451277 -0.182497E-05  0.196E-02    5.32       1.5  T
   5    -21.7451281 -0.344102E-06  0.111E-02    5.32       2.6  T
   6    -21.7451287 -0.568791E-06  0.452E-03    5.32       6.4  T
   7    -21.7451287 -0.593001E-07  0.104E-03    5.32      27.8  T
     SCC iter.                  ...        0 min,  0.091 sec
     gradient                   ...        0 min,  0.001 sec
 * total energy  :   -21.5616136 Eh     change       -0.7675609E-03 Eh
   gradient norm :     0.0029340 Eh/α   predicted    -0.1474544E-02 (  92.11%)
   displ. norm   :     0.0183431 α      lambda       -0.1353704E-04
   maximum displ.:     0.0092644 α      in ANC's #5, #2, #6, ...

........................................................................
.............................. CYCLE   49 ..............................
........................................................................
   1    -21.7449691 -0.217450E+02  0.346E-02    5.32       0.0  T
   2    -21.7449693 -0.160400E-06  0.215E-02    5.32       1.3  T
   3    -21.7449692  0.716383E-07  0.434E-03    5.32       6.7  T
   4    -21.7449693 -0.158191E-06  0.146E-03    5.32      19.7  T
   5    -21.7449694 -0.544496E-08  0.651E-04    5.32      44.3  T
   6    -21.7449694 -0.291823E-09  0.157E-04    5.32     183.5  T
     SCC iter.                  ...        0 min,  0.002 sec
     gradient                   ...        0 min,  0.001 sec
 * total energy  :   -21.5616243 Eh     change       -0.1072098E-04 Eh
   gradient norm :     0.0018494 Eh/α   predicted    -0.6771269E-05 ( -36.84%)
   displ. norm   :     0.1245917 α      lambda       -0.3891502E-04
   maximum displ.:     0.0708110 α      in ANC's #2, #5, #4, ...

........................................................................
.............................. CYCLE   50 ..............................
........................................................................
   1    -21.7436208 -0.217436E+02  0.224E-01    5.32       0.0  T
   2    -21.7436278 -0.705636E-05  0.139E-01    5.32       1.0  T
   3    -21.7436269  0.924371E-06  0.241E-02    5.32       1.2  T
   4    -21.7436312 -0.426369E-05  0.994E-03    5.32       2.9  T
   5    -21.7436315 -0.342239E-06  0.444E-03    5.32       6.5  T
   6    -21.7436315 -0.174312E-07  0.112E-03    5.32      25.9  T
   7    -21.7436315 -0.124789E-08  0.198E-04    5.32     145.7  T
   8    -21.7436315 -0.841887E-10  0.614E-05    5.32     470.3  T
     SCC iter.                  ...        0 min,  0.092 sec
     gradient                   ...        0 min,  0.002 sec
 * total energy  :   -21.5616243 Eh     change       -0.5696641E-08 Eh
   gradient norm :     0.0085792 Eh/α   predicted    -0.1959185E-04 (*******%)
   displ. norm   :     0.0398356 α      lambda       -0.4660902E-04
   maximum displ.:     0.0218601 α      in ANC's #5, #2, #4, ...

........................................................................
.............................. CYCLE   51 ..............................
........................................................................
   1    -21.7443149 -0.217443E+02  0.743E-02    5.32       0.0  T
   2    -21.7443161 -0.116746E-05  0.461E-02    5.32       1.0  T
   3    -21.7443163 -0.277684E-06  0.659E-03    5.32       4.4  T
   4    -21.7443165 -0.119666E-06  0.394E-03    5.32       7.3  T
   5    -21.7443165 -0.888192E-07  0.160E-03    5.32      18.0  T
   6    -21.7443166 -0.428571E-08  0.523E-04    5.32      55.2  T
     SCC iter.                  ...        0 min,  0.001 sec
     gradient                   ...        0 min,  0.001 sec
 * total energy  :   -21.5616504 Eh     change       -0.2606464E-04 Eh
   gradient norm :     0.0036471 Eh/α   predicted    -0.2334296E-04 ( -10.44%)
   displ. norm   :     0.0137438 α      lambda       -0.1032134E-04
   maximum displ.:     0.0087527 α      in ANC's #2, #4, #5, ...

........................................................................
.............................. CYCLE   52 ..............................
........................................................................
   1    -21.7444636 -0.217445E+02  0.213E-02    5.32       0.0  T
   2    -21.7444637 -0.442759E-07  0.130E-02    5.32       2.2  T
   3    -21.7444635  0.177519E-06  0.459E-03    5.32       6.3  T
   4    -21.7444637 -0.207980E-06  0.578E-04    5.32      50.0  T
   5    -21.7444637 -0.913126E-09  0.237E-04    5.32     122.0  T
     SCC iter.                  ...        0 min,  0.001 sec
     gradient                   ...        0 min,  0.091 sec
 * total energy  :   -21.5616591 Eh     change       -0.8775936E-05 Eh
   gradient norm :     0.0025292 Eh/α   predicted    -0.5163256E-05 ( -41.17%)
   displ. norm   :     0.0704232 α      lambda       -0.3061065E-04
   maximum displ.:     0.0447967 α      in ANC's #2, #4, #5, ...

........................................................................
.............................. CYCLE   53 ..............................
........................................................................
   1    -21.7445841 -0.217446E+02  0.112E-01    5.32       0.0  T
   2    -21.7445849 -0.830747E-06  0.683E-02    5.32       1.0  T
   3    -21.7445813  0.367686E-05  0.209E-02    5.32       1.4  T
   4    -21.7445857 -0.440524E-05  0.302E-03    5.32       9.6  T
   5    -21.7445857 -0.907134E-08  0.158E-03    5.32      18.2  T
   6    -21.7445857 -0.151282E-08  0.240E-04    5.32     120.3  T
   7    -21.7445857 -0.107736E-09  0.111E-04    5.32     260.5  T
     SCC iter.                  ...        0 min,  0.004 sec
     gradient                   ...        0 min,  0.001 sec
 * total energy  :   -21.5616822 Eh     change       -0.2307890E-04 Eh
   gradient norm :     0.0019614 Eh/α   predicted    -0.1537926E-04 ( -33.36%)
   displ. norm   :     0.1964527 α      lambda       -0.3914574E-04
   maximum displ.:     0.1203073 α      in ANC's #2, #4, #5, ...

........................................................................
.............................. CYCLE   54 ..............................
........................................................................
   1    -21.7433005 -0.217433E+02  0.316E-01    5.32       0.0  T
   2    -21.7433103 -0.983096E-05  0.194E-01    5.32       1.0  T
   3    -21.7432877  0.226113E-04  0.551E-02    5.32       1.0  T
   4    -21.7433170 -0.292568E-04  0.111E-02    5.32       2.6  T
   5    -21.7433172 -0.181790E-06  0.564E-03    5.32       5.1  T
   6    -21.7433172 -0.161882E-07  0.933E-04    5.32      30.9  T
   7    -21.7433172 -0.120101E-08  0.215E-04    5.32     134.4  T
     SCC iter.                  ...        0 min,  0.092 sec
     gradient                   ...        0 min,  0.001 sec
 * total energy  :   -21.5616771 Eh     change        0.5138420E-05 Eh
   gradient norm :     0.0105408 Eh/α   predicted    -0.1990970E-04 (-487.47%)
   displ. norm   :     0.0650353 α      lambda       -0.8127432E-04
   maximum displ.:     0.0418404 α      in ANC's #2, #4, #5, ...

........................................................................
.............................. CYCLE   55 ..............................
........................................................................
   1    -21.7443032 -0.217443E+02  0.101E-01    5.32       0.0  T
   2    -21.7443049 -0.168692E-05  0.619E-02    5.32       1.0  T
   3    -21.7443034  0.148557E-05  0.161E-02    5.32       1.8  T
   4    -21.7443057 -0.225163E-05  0.469E-03    5.32       6.2  T
   5    -21.7443057 -0.702001E-07  0.199E-03    5.32      14.5  T
   6    -21.7443057 -0.352247E-08  0.696E-04    5.32      41.5  T
     SCC iter.                  ...        0 min,  0.002 sec
     gradient                   ...        0 min,  0.001 sec
 * total energy  :   -21.5617203 Eh     change       -0.4318711E-04 Eh
   gradient norm :     0.0044014 Eh/α   predicted    -0.4081059E-04 (  -5.50%)
   displ. norm   :     0.0247757 α      lambda       -0.1973697E-04
   maximum displ.:     0.0123427 α      in ANC's #5, #1, #4, ...

........................................................................
.............................. CYCLE   56 ..............................
........................................................................
   1    -21.7445325 -0.217445E+02  0.429E-02    5.32       0.0  T
   2    -21.7445328 -0.231925E-06  0.268E-02    5.32       1.1  T
   3    -21.7445327  0.317122E-07  0.473E-03    5.32       6.1  T
   4    -21.7445329 -0.181452E-06  0.181E-03    5.32      15.9  T
   5    -21.7445329 -0.629653E-08  0.879E-04    5.32      32.8  T
     SCC iter.                  ...        0 min,  0.001 sec
     gradient                   ...        0 min,  0.092 sec
 * total energy  :   -21.5617373 Eh     change       -0.1705799E-04 Eh
   gradient norm :     0.0033808 Eh/α   predicted    -0.9873520E-05 ( -42.12%)
   displ. norm   :     0.1318501 α      lambda       -0.6826449E-04
   maximum displ.:     0.0708278 α      in ANC's #5, #4, #2, ...

........................................................................
.............................. CYCLE   57 ..............................
........................................................................
   1    -21.7443441 -0.217443E+02  0.232E-01    5.32       0.0  T
   2    -21.7443503 -0.621122E-05  0.144E-01    5.32       1.0  T
   3    -21.7443493  0.997995E-06  0.237E-02    5.32       1.2  T
   4    -21.7443537 -0.438042E-05  0.931E-03    5.32       3.1  T
   5    -21.7443539 -0.231798E-06  0.470E-03    5.32       6.1  T
   6    -21.7443539 -0.231034E-07  0.625E-04    5.32      46.2  T
   7    -21.7443539 -0.112964E-08  0.291E-04    5.32      99.1  T
     SCC iter.                  ...        0 min,  0.002 sec
     gradient                   ...        0 min,  0.001 sec
 * total energy  :   -21.5617891 Eh     change       -0.5182479E-04 Eh
   gradient norm :     0.0039497 Eh/α   predicted    -0.3472550E-04 ( -32.99%)
   displ. norm   :     0.1281239 α      lambda       -0.4486133E-04
   maximum displ.:     0.0710859 α      in ANC's #4, #5, #2, ...

........................................................................
.............................. CYCLE   58 ..............................
........................................................................
   1    -21.7435156 -0.217435E+02  0.218E-01    5.32       0.0  T
   2    -21.7435216 -0.597625E-05  0.135E-01    5.32       1.0  T
   3    -21.7435221 -0.540435E-06  0.187E-02    5.32       1.5  T
   4    -21.7435242 -0.209266E-05  0.909E-03    5.32       3.2  T
   5    -21.7435245 -0.312991E-06  0.441E-03    5.32       6.5  T
   6    -21.7435245 -0.279853E-07  0.882E-04    5.32      32.7  T
   7    -21.7435245 -0.130800E-08  0.206E-04    5.32     140.1  T
     SCC iter.                  ...        0 min,  0.002 sec
     gradient                   ...        0 min,  0.001 sec
 * total energy  :   -21.5617963 Eh     change       -0.7170971E-05 Eh
   gradient norm :     0.0089310 Eh/α   predicted    -0.2279843E-04 ( 217.93%)
   displ. norm   :     0.0298301 α      lambda       -0.7463395E-04
   maximum displ.:     0.0190677 α      in ANC's #2, #4, #5, ...

........................................................................
.............................. CYCLE   59 ..............................
........................................................................
   1    -21.7445606 -0.217446E+02  0.478E-02    5.33       0.0  T
   2    -21.7445622 -0.151823E-05  0.287E-02    5.32       1.0  T
   3    -21.7445612  0.920046E-06  0.147E-02    5.33       2.0  T
   4    -21.7445626 -0.138932E-05  0.432E-03    5.32       6.7  T
   5    -21.7445627 -0.753367E-07  0.139E-03    5.32      20.8  T
   6    -21.7445627 -0.159178E-08  0.539E-04    5.32      53.5  T
     SCC iter.                  ...        0 min,  0.002 sec
     gradient                   ...        0 min,  0.001 sec
 * total energy  :   -21.5618349 Eh     change       -0.3862312E-04 Eh
   gradient norm :     0.0022699 Eh/α   predicted    -0.3735108E-04 (  -3.29%)
   displ. norm   :     0.0518618 α      lambda       -0.2256392E-04
   maximum displ.:     0.0303673 α      in ANC's #5, #4, #2, ...

........................................................................
.............................. CYCLE   60 ..............................
........................................................................
   1    -21.7445691 -0.217446E+02  0.863E-02    5.33       0.0  T
   2    -21.7445700 -0.883583E-06  0.534E-02    5.33       1.0  T
   3    -21.7445702 -0.230402E-06  0.596E-03    5.33       4.8  T
   4    -21.7445703 -0.143010E-06  0.340E-03    5.33       8.5  T
   5    -21.7445704 -0.475748E-07  0.169E-03    5.33      17.0  T
   6    -21.7445704 -0.567226E-08  0.396E-04    5.33      72.9  T
   7    -21.7445704 -0.339892E-09  0.111E-04    5.33     259.4  T
     SCC iter.                  ...        0 min,  0.002 sec
     gradient                   ...        0 min,  0.001 sec
 * total energy  :   -21.5618547 Eh     change       -0.1980620E-04 Eh
   gradient norm :     0.0024409 Eh/α   predicted    -0.1131344E-04 ( -42.88%)
   displ. norm   :     0.1857919 α      lambda       -0.6939066E-04
   maximum displ.:     0.1125546 α      in ANC's #5, #4, #2, ...

........................................................................
.............................. CYCLE   61 ..............................
........................................................................
   1    -21.7432630 -0.217433E+02  0.307E-01    5.33       0.0  T
   2    -21.7432761 -0.130467E-04  0.191E-01    5.33       1.0  T
   3    -21.7432712  0.488681E-05  0.372E-02    5.32       1.0  T
   4    -21.7432823 -0.111348E-04  0.130E-02    5.33       2.2  T
   5    -21.7432829 -0.522780E-06  0.603E-03    5.33       4.8  T
   6    -21.7432829 -0.352562E-07  0.150E-03    5.33      19.2  T
   7    -21.7432829 -0.334597E-08  0.279E-04    5.33     103.6  T
   8    -21.7432829 -0.188805E-09  0.136E-04    5.33     212.1  T
     SCC iter.                  ...        0 min,  0.092 sec
     gradient                   ...        0 min,  0.001 sec
 * total energy  :   -21.5618427 Eh     change        0.1200931E-04 Eh
   gradient norm :     0.0110105 Eh/α   predicted    -0.3589175E-04 (-398.87%)
   displ. norm   :     0.1055709 α      lambda       -0.1467627E-03
   maximum displ.:     0.0593327 α      in ANC's #5, #4, #2, ...

........................................................................
.............................. CYCLE   62 ..............................
........................................................................
   1    -21.7447854 -0.217448E+02  0.175E-01    5.33       0.0  T
   2    -21.7447916 -0.617694E-05  0.108E-01    5.33       1.0  T
   3    -21.7447923 -0.682987E-06  0.170E-02    5.33       1.7  T
   4    -21.7447935 -0.124079E-05  0.909E-03    5.33       3.2  T
   5    -21.7447939 -0.440302E-06  0.368E-03    5.33       7.8  T
   6    -21.7447940 -0.263854E-07  0.129E-03    5.33      22.4  T
   7    -21.7447940 -0.108231E-08  0.237E-04    5.33     121.9  T
     SCC iter.                  ...        0 min,  0.002 sec
     gradient                   ...        0 min,  0.001 sec
 * total energy  :   -21.5618877 Eh     change       -0.4500266E-04 Eh
   gradient norm :     0.0019142 Eh/α   predicted    -0.7420024E-04 (  64.88%)
   displ. norm   :     0.0542414 α      lambda       -0.1408815E-04
   maximum displ.:     0.0357920 α      in ANC's #5, #4, #2, ...

........................................................................
.............................. CYCLE   63 ..............................
........................................................................
   1    -21.7445869 -0.217446E+02  0.967E-02    5.33       0.0  T
   2    -21.7445882 -0.131362E-05  0.605E-02    5.33       1.0  T
   3    -21.7445861  0.214378E-05  0.180E-02    5.32       1.6  T
   4    -21.7445891 -0.302109E-05  0.395E-03    5.33       7.3  T
   5    -21.7445891 -0.249520E-07  0.194E-03    5.33      14.9  T
   6    -21.7445891 -0.305645E-08  0.413E-04    5.33      70.0  T
   7    -21.7445891 -0.431157E-09  0.156E-04    5.33     185.0  T
     SCC iter.                  ...        0 min,  0.092 sec
     gradient                   ...        0 min,  0.001 sec
 * total energy  :   -21.5619063 Eh     change       -0.1855327E-04 Eh
   gradient norm :     0.0022462 Eh/α   predicted    -0.7051816E-05 ( -61.99%)
   displ. norm   :     0.1300364 α      lambda       -0.4140330E-04
   maximum displ.:     0.0851677 α      in ANC's #5, #4, #2, ...

........................................................................
.............................. CYCLE   64 ..............................
........................................................................
   1    -21.7436700 -0.217437E+02  0.227E-01    5.33       0.0  T
[...]
   5    -21.7444875 -0.103695E-06  0.219E-03    5.32      13.2  T
   6    -21.7444875 -0.452789E-08  0.759E-04    5.32      38.0  T
     SCC iter.                  ...        0 min,  0.091 sec
     gradient                   ...        0 min,  0.001 sec
 * total energy  :   -21.5619285 Eh     change       -0.1792926E-04 Eh
   gradient norm :     0.0018927 Eh/α   predicted    -0.2380019E-04 (  32.75%)
   displ. norm   :     0.0401654 α      lambda       -0.8123725E-05
   maximum displ.:     0.0241463 α      in ANC's #5, #2, #26, ...

........................................................................
.............................. CYCLE   66 ..............................
........................................................................
   1    -21.7444592 -0.217445E+02  0.677E-02    5.32       0.0  T
   2    -21.7444599 -0.671209E-06  0.425E-02    5.32       1.0  T
   3    -21.7444577  0.216425E-05  0.170E-02    5.32       1.7  T
   4    -21.7444604 -0.274886E-05  0.274E-03    5.32      10.5  T
   5    -21.7444604 -0.854793E-08  0.145E-03    5.32      19.9  T
   6    -21.7444604 -0.199195E-08  0.241E-04    5.32     120.0  T
   7    -21.7444604 -0.181760E-09  0.149E-04    5.32     194.0  T
     SCC iter.                  ...        0 min,  0.002 sec
     gradient                   ...        0 min,  0.002 sec
 * total energy  :   -21.5619385 Eh     change       -0.9954469E-05 Eh
   gradient norm :     0.0015266 Eh/α   predicted    -0.4065629E-05 ( -59.16%)
   displ. norm   :     0.0846283 α      lambda       -0.1205587E-04
   maximum displ.:     0.0470727 α      in ANC's #5, #2, #4, ...
 * RMSD in coord.:     0.3264997 α      energy gain  -0.4340393E-03 Eh

generating ANC from model Hessian ...
Using Lindh-Hessian (1995)
 Shifting diagonal of input Hessian by   7.793238922301743E-003
 Lowest  eigenvalues of input Hessian
   -0.000000   -0.000000   -0.000000    0.000000    0.000000    0.000000
    0.010000    0.012458    0.019866    0.021476    0.023152    0.042100
    0.059491    0.067091    0.071786    0.099216    0.105323    0.118310
 Highest eigenvalues
    1.226071    1.291582    1.385414    1.567955    1.783739    2.114970
 

........................................................................
.............................. CYCLE   67 ..............................
........................................................................
   1    -21.7442276 -0.217442E+02  0.137E-01    5.32       0.0  T
   2    -21.7442302 -0.265036E-05  0.859E-02    5.33       1.0  T
   3    -21.7442240  0.622703E-05  0.294E-02    5.32       1.0  T
   4    -21.7442322 -0.819328E-05  0.553E-03    5.32       5.2  T
   5    -21.7442322 -0.432027E-07  0.291E-03    5.32       9.9  T
   6    -21.7442322 -0.576233E-08  0.427E-04    5.32      67.7  T
   7    -21.7442322 -0.520561E-09  0.212E-04    5.32     136.0  T
     SCC iter.                  ...        0 min,  0.002 sec
     gradient                   ...        0 min,  0.001 sec
 * total energy  :   -21.5619483 Eh     change       -0.9770085E-05 Eh
   gradient norm :     0.0026071 Eh/α   predicted     0.0000000E+00 (-100.00%)
   displ. norm   :     0.0079438 α      lambda       -0.6612069E-05
   maximum displ.:     0.0043725 α      in ANC's #4, #2, #1, ...

........................................................................
.............................. CYCLE   68 ..............................
........................................................................
   1    -21.7445021 -0.217445E+02  0.102E-02    5.33       0.0  T
   2    -21.7445022 -0.466425E-07  0.601E-03    5.33       4.8  T
   3    -21.7445022 -0.113378E-08  0.139E-03    5.33      20.8  T
   4    -21.7445022 -0.311813E-08  0.813E-04    5.33      35.5  T
   5    -21.7445022 -0.539881E-08  0.197E-04    5.33     146.7  T
     SCC iter.                  ...        0 min,  0.001 sec
     gradient                   ...        0 min,  0.001 sec
 * total energy  :   -21.5619529 Eh     change       -0.4637897E-05 Eh
   gradient norm :     0.0008428 Eh/α   predicted    -0.3306669E-05 ( -28.70%)
   displ. norm   :     0.0182432 α      lambda       -0.2644919E-05
   maximum displ.:     0.0100776 α      in ANC's #4, #2, #1, ...

   *** GEOMETRY OPTIMIZATION CONVERGED AFTER 68 ITERATIONS ***

------------------------------------------------------------------------
 total energy gain   :        -0.0192410 Eh      -12.0739 kcal/mol
 total RMSD          :         0.8268493 a0        0.4375 Å
 total power (kW/mol):        -0.7429021 (step)  -13.6607 (real)
------------------------------------------------------------------------

 ANCopt (total)                0 d,  0 h,  0 min,  3.698 sec
 optimizer setup                ...        0 min,  0.000 sec (  0.009%)
 model hessian                  ...        0 min,  0.094 sec (  2.533%)
 ANC generation                 ...        0 min,  0.001 sec (  0.035%)
 coordinate transformation      ...        0 min,  0.003 sec (  0.075%)
 single point calculation       ...        0 min,  3.294 sec ( 89.072%)
 optimization log               ...        0 min,  0.005 sec (  0.129%)
 hessian update                 ...        0 min,  0.284 sec (  7.689%)
 rational function              ...        0 min,  0.005 sec (  0.137%)

================
 final structure:
================
12
 xtb: 6.2.3 (830e466)
C         1.76134544872405    1.41406330149226   -2.42400070615571
C        -0.29330782319021    0.00325757482921   -1.04469731892731
C         0.99444117802088   -0.09602241262219   -0.76766028342399
O         0.99255648797300    2.53781489626055   -2.12506670880886
O         1.76516398546197    3.53114128938233   -1.47997161219029
O         2.03436077668775    0.58890358550666   -1.33121579697866
H         1.53184009165335    3.45756437368059   -0.54145844062577
H         2.73889680324616    1.70483937979349   -2.82555998076644
H         1.16861685249965    0.88853742884092   -3.18605460127756
H         1.38296822911198   -0.76821508953736   -0.01522933694008
H        -1.00128051873394   -0.61104092512894   -0.52120818311346
H        -0.68662151145468    0.68874659750239   -1.77366703079190
 
 Bond Distances (Angstroems)
 ---------------------------
C1-O4=1.3940         C1-O6=1.3963         C1-H8=1.0961         C1-H9=1.0992         C2-C3=1.3209         C2-H11=1.0736        
C2-H12=1.0752        C3-C2=1.3209         C3-O6=1.3668         C3-H10=1.0812        O4-C1=1.3940         O4-O5=1.4141         
O5-O4=1.4141         O5-H7=0.9699         O6-C1=1.3963         O6-C3=1.3668         H7-O5=0.9699         H8-C1=1.0961         
H9-C1=1.0992         H10-C3=1.0812        H11-C2=1.0736        H12-C2=1.0752        
 C  H  Rav=1.0850 sigma=0.0106  Rmin=1.0736  Rmax=1.0992     5
 C  C  Rav=1.3209 sigma=0.0000  Rmin=1.3209  Rmax=1.3209     1
 O  H  Rav=0.9699 sigma=0.0000  Rmin=0.9699  Rmax=0.9699     1
 O  C  Rav=1.3857 sigma=0.0134  Rmin=1.3668  Rmax=1.3963     3
 O  O  Rav=1.4141 sigma=0.0000  Rmin=1.4141  Rmax=1.4141     1
 
 selected bond angles (degree)
 --------------------
O6-C1-O4=114.61                H8-C1-O4=110.89                H8-C1-O6=105.61                H9-C1-O4=103.69                
H9-C1-O6=111.44                H9-C1-H8=110.72                H11-C2-C3=119.84               H12-C2-C3=123.14               
H12-C2-H11=117.01              O6-C3-C2=128.14                H10-C3-C2=122.89               H10-C3-O6=108.97               
O5-O4-C1=111.27                H7-O5-O4=104.87                C3-O6-C1=118.04                
 
 selected dihedral angles (degree)
 ---------------------------------
O6-C3-C2-H11=179.47           O6-C3-C2-H12=358.68           H10-C3-C2-H11=359.12          H10-C3-C2-H12=178.33          
O5-O4-C1-O6= 76.36            O5-O4-C1-H8=316.91            O5-O4-C1-H9=198.05            H7-O5-O4-C1=258.09            
C3-O6-C1-O4= 68.06            C3-O6-C1-H8=190.42            C3-O6-C1-H9=310.71            C1-O6-C3-C2=353.32            
C1-O6-C3-H10=173.63           
           -------------------------------------------------
          |                Final Singlepoint                |
           -------------------------------------------------

          ...................................................
          :                      SETUP                      :
          :.................................................:
          :  # basis functions                  30          :
          :  # atomic orbitals                  30          :
          :  # shells                           18          :
          :  # electrons                        36          :
          :  max. iterations                   100          :
          :  Hamiltonian                  GFN2-xTB          :
          :  restarted?                      false          :
          :  GBSA solvation                  false          :
          :  PC potential                    false          :
          :  electronic temp.          300.0000000     K    :
          :  accuracy                    1.0000000          :
          :  -> integral cutoff          0.2500000E+02      :
          :  -> integral neglect         0.1000000E-07      :
          :  -> SCF convergence          0.1000000E-05 Eh   :
          :  -> wf. convergence          0.1000000E-03 e    :
          :  Broyden damping             0.4000000          :
          ...................................................

 iter      E             dE          RMSdq      gap      omega  full diag
   1    -21.7445022 -0.217445E+02  0.438E-05    5.33       0.0  T
   2    -21.7445022 -0.927258E-12  0.256E-05    5.33    1127.9  T
   3    -21.7445022  0.383693E-12  0.124E-05    5.33    2318.9  T

   *** convergence criteria satisfied after 3 iterations ***

         #    Occupation            Energy/Eh            Energy/eV
      -------------------------------------------------------------
         1        2.0000           -0.7426544             -20.2087
       ...           ...                  ...                  ...
        12        2.0000           -0.5210824             -14.1794
        13        2.0000           -0.4964460             -13.5090
        14        2.0000           -0.4750330             -12.9263
        15        2.0000           -0.4680275             -12.7357
        16        2.0000           -0.4619438             -12.5701
        17        2.0000           -0.4430006             -12.0547
        18        2.0000           -0.3995986             -10.8736 (HOMO)
        19                         -0.2039008              -5.5484 (LUMO)
        20                         -0.1526142              -4.1528
        21                          0.0388425               1.0570
        22                          0.0877632               2.3882
        23                          0.1075109               2.9255
       ...                                ...                  ...
        30                          0.6232208              16.9587
      -------------------------------------------------------------
                  HL-Gap            0.1956978 Eh            5.3252 eV
             Fermi-level           -0.3017497 Eh           -8.2110 eV

 SCC (total)                   0 d,  0 h,  0 min,  0.093 sec
 SCC setup                      ...        0 min,  0.000 sec (  0.232%)
 Dispersion                     ...        0 min,  0.000 sec (  0.052%)
 integral evaluation            ...        0 min,  0.090 sec ( 97.154%)
 zeroth order Hamiltonian       ...        0 min,  0.000 sec (  0.099%)
 iterations                     ...        0 min,  0.001 sec (  0.872%)
 molecular gradient             ...        0 min,  0.001 sec (  1.154%)
 printout                       ...        0 min,  0.000 sec (  0.208%)

         :::::::::::::::::::::::::::::::::::::::::::::::::::::
         ::                     SUMMARY                     ::
         :::::::::::::::::::::::::::::::::::::::::::::::::::::
         :: total energy             -21.561952888743 Eh    ::
         :: gradient norm              0.000845329142 Eh/a0 ::
         :: HOMO-LUMO gap              5.325208952691 eV    ::
         ::.................................................::
         :: SCC energy               -21.744502170385 Eh    ::
         :: -> isotropic ES            0.042375034216 Eh    ::
         :: -> anisotropic ES         -0.003655614497 Eh    ::
         :: -> anisotropic XC         -0.005470573667 Eh    ::
         :: -> dispersion             -0.006094031656 Eh    ::
         :: repulsion energy           0.182540281678 Eh    ::
         :: add. restraining           0.000000000000 Eh    ::
         :::::::::::::::::::::::::::::::::::::::::::::::::::::

           -------------------------------------------------
          |                Property Printout                |
           -------------------------------------------------

    * Orbital Energies and Occupations

         #    Occupation            Energy/Eh            Energy/eV
      -------------------------------------------------------------
         1        2.0000           -0.7426544             -20.2087
       ...           ...                  ...                  ...
         6        2.0000           -0.6218279             -16.9208
         7        2.0000           -0.6160351             -16.7632
         8        2.0000           -0.5987269             -16.2922
         9        2.0000           -0.5716029             -15.5541
        10        2.0000           -0.5670132             -15.4292
        11        2.0000           -0.5337476             -14.5240
        12        2.0000           -0.5210824             -14.1794
        13        2.0000           -0.4964460             -13.5090
        14        2.0000           -0.4750330             -12.9263
        15        2.0000           -0.4680275             -12.7357
        16        2.0000           -0.4619438             -12.5701
        17        2.0000           -0.4430006             -12.0547
        18        2.0000           -0.3995986             -10.8736 (HOMO)
        19                         -0.2039008              -5.5484 (LUMO)
        20                         -0.1526142              -4.1528
        21                          0.0388425               1.0570
        22                          0.0877632               2.3882
        23                          0.1075109               2.9255
        24                          0.1196053               3.2546
        25                          0.1280926               3.4856
        26                          0.1453125               3.9542
        27                          0.1945214               5.2932
        28                          0.2589616               7.0467
        29                          0.4082313              11.1085
        30                          0.6232208              16.9587
      -------------------------------------------------------------
                  HL-Gap            0.1956978 Eh            5.3252 eV
             Fermi-level           -0.3017497 Eh           -8.2110 eV

     #   Z        covCN         q      C6AA      α(0)
     1   6 C      3.577     0.216    17.859     6.140
     2   6 C      2.833    -0.133    31.394     9.182
     3   6 C      2.784     0.099    25.793     8.319
     4   8 O      1.786    -0.209    17.453     5.641
     5   8 O      1.742    -0.304    19.055     5.894
     6   8 O      1.704    -0.278    18.606     5.824
     7   1 H      0.804     0.323     0.657     1.273
     8   1 H      0.924     0.068     2.106     2.269
     9   1 H      0.923     0.059     2.207     2.323
    10   1 H      0.926     0.055     2.263     2.352
    11   1 H      0.926     0.047     2.351     2.398
    12   1 H      0.926     0.057     2.240     2.340

 Mol. C6AA /au·bohr⁶  :       1290.143417
 Mol. C8AA /au·bohr⁸  :      27608.916044
 Mol. α(0) /au        :         53.956059


Wiberg/Mayer (AO) data.
largest (>0.10) Wiberg bond orders for each atom
          total WBO             WBO to atom ...
     1  C   3.923        O    4 0.996    O    6 0.984    H    8 0.957    H    9 0.942
     2  C   3.983        C    3 1.897    H   11 0.976    H   12 0.971    O    6 0.119
     3  C   3.927        C    2 1.897    O    6 1.046    H   10 0.956
     4  O   2.050        C    1 0.996    O    5 0.974
     5  O   1.915        O    4 0.974    H    7 0.890
     6  O   2.236        C    3 1.046    C    1 0.984    C    2 0.119
     7  H   0.896        O    5 0.890
     8  H   0.995        C    1 0.957
     9  H   0.996        C    1 0.942
    10  H   0.997        C    3 0.956
    11  H   0.998        C    2 0.976
    12  H   0.997        C    2 0.971

molecular dipole:
                 x           y           z       tot (Debye)
 q only:       -0.098      -0.414       0.228
   full:       -0.149      -0.512       0.322       1.583
molecular quadrupole (traceless):
                xx          xy          yy          xz          yz          zz
 q only:        0.127      -1.030      -3.099       0.134       5.603       2.972
  q+dip:        1.262      -2.014      -5.261       0.849       6.764       3.999
   full:        0.429      -1.672      -4.578       0.667       7.405       4.149

           -------------------------------------------------
          |                Geometry Summary                 |
           -------------------------------------------------

      molecular mass/u    :       90.0780670
   center of mass at/Å    :        1.2369473       1.4187089      -1.5408020
  moments of inertia/u·Å² :        0.7059359E+02   0.2155202E+03   0.2370990E+03
rotational constants/cm⁻¹ :        0.2387983E+00   0.7821836E-01   0.7109956E-01

 * 11 selected distances

     #   Z        #   Z                                     value/Å
     2   6 C      3   6 C                                 1.3209480
     1   6 C      4   8 O                                 1.3939927
     4   8 O      5   8 O                                 1.4141313 (max)
     1   6 C      6   8 O                                 1.3962825
     3   6 C      6   8 O                                 1.3668033
     5   8 O      7   1 H                                 0.9698766 (min)
     1   6 C      8   1 H                                 1.0960872
     1   6 C      9   1 H                                 1.0991955
     3   6 C     10   1 H                                 1.0811793
     2   6 C     11   1 H                                 1.0736055
     2   6 C     12   1 H                                 1.0751687

 * 5 distinct bonds (by element types)

   Z      Z             #   av. dist./Å        max./Å        min./Å
   1 H    6 C           5     1.0850472     1.0991955     1.0736055
   6 C    6 C           1     1.3209480     1.3209480     1.3209480
   1 H    8 O           1     0.9698766     0.9698766     0.9698766
   6 C    8 O           3     1.3856928     1.3962825     1.3668033
   8 O    8 O           1     1.4141313     1.4141313     1.4141313


optimized geometry written to: xtbopt.xyz


           -------------------------------------------------
          | TOTAL ENERGY              -21.561952888743 Eh   |
          | GRADIENT NORM               0.000845329142 Eh/α |
          | HOMO-LUMO GAP               5.325208952691 eV   |
           -------------------------------------------------

------------------------------------------------------------------------
 * finished run on 2020/12/23 at 21:41:52.758     
------------------------------------------------------------------------
 total:
 * wall-time:     0 d,  0 h,  0 min,  4.144 sec
 *  cpu-time:     0 d,  0 h,  0 min, 16.779 sec
 * ratio c/w:     4.049 speedup
 SCF:
 * wall-time:     0 d,  0 h,  0 min,  0.007 sec
 *  cpu-time:     0 d,  0 h,  0 min,  0.189 sec
 * ratio c/w:    25.455 speedup
 ANC optimizer:
 * wall-time:     0 d,  0 h,  0 min,  3.794 sec
 *  cpu-time:     0 d,  0 h,  0 min, 15.107 sec
 * ratio c/w:     3.981 speedup

