      -----------------------------------------------------------      
     |                   =====================                   |     
     |                           x T B                           |     
     |                   =====================                   |     
     |                         S. Grimme                         |     
     |          Mulliken Center for Theoretical Chemistry        |     
     |                    University of Bonn                     |     
      -----------------------------------------------------------      

   * xtb version 6.2.3 (830e466) compiled by 'ehlert@majestix' on 2020-03-16

   xtb is free software: you can redistribute it and/or modify it under
   the terms of the GNU Lesser General Public License as published by
   the Free Software Foundation, either version 3 of the License, or
   (at your option) any later version.
   
   xtb is distributed in the hope that it will be useful,
   but WITHOUT ANY WARRANTY; without even the implied warranty of
   MERCHANTABILITY or FITNESS FOR A PARTICULAR PURPOSE.  See the
   GNU Lesser General Public License for more details.
   
   Cite this work as:
   * S. Grimme, C. Bannwarth, P. Shushkov, J. Chem. Theory Comput., 2017,
     13, 1989-2009. DOI: 10.1021/acs.jctc.7b00118
   * C. Bannwarth, S. Ehlert and S. Grimme., J. Chem. Theory Comput., 2019,
     15, 1652-1671. DOI: 10.1021/acs.jctc.8b01176
   * P. Pracht, E. Caldeweyher, S. Ehlert, S. Grimme, ChemRxiv, 2019, preprint.
     DOI: 10.26434/chemrxiv.8326202.v1
   
   for DFT-D4:
   * E. Caldeweyher, C. Bannwarth and S. Grimme, J. Chem. Phys., 2017,
     147, 034112. DOI: 10.1063/1.4993215
   * E. Caldeweyher, S. Ehlert, A. Hansen, H. Neugebauer, S. Spicher,
     C. Bannwarth and S. Grimme, J. Chem. Phys., 2019, 150, 154122.
     DOI: 10.1063/1.5090222
   
   for sTDA-xTB:
   * S. Grimme and C. Bannwarth, J. Chem. Phys., 2016, 145, 054103.
     DOI: 10.1063/1.4959605
   
   in the mass-spec context:
   * V. Asgeirsson, C. Bauer and S. Grimme, Chem. Sci., 2017, 8, 4879.
     DOI: 10.1039/c7sc00601b
   
   for metadynamics refer to:
   * S. Grimme, J. Chem. Theory Comput., 2019, 155, 2847-2862
     DOI: 10.1021/acs.jctc.9b00143
   
   with help from (in alphabetical order)
   C. Bannwarth, F. Bohle, G. Brandenburg, E. Caldeweyher, M. Checinski,
   S. Dohm, S. Ehlert, S. Ehrlich, F. März, H. Neugebauer, J. Pisarek,
   P. Pracht, P. Shushkov, and S. Spicher.
   
 * started run on 2020/12/23 at 21:41:17.495     

           -------------------------------------------------
          |                Calculation Setup                |
           -------------------------------------------------

          program call               : xtb -c 0 -u 0 -a 1.0 --iterations 100 --opt normal --namespace product_12 /scratch/bell/zhao922/YARP/paper-example/potential_product/test/reaction_channel/pp_0/pp_16_0.xyz
          hostname                   : bell-fe05.rcac.purdue.edu
          calculation namespace      : product_12
          coordinate file            : /scratch/bell/zhao922/YARP/paper-example/potential_product/test/reaction_channel/pp_0/pp_16_0.xyz
          omp threads                :                    32
          number of atoms            :                    12
          number of electrons        :                    36
          charge                     :                     0
          spin                       :                   0.0
          first test random number   :      0.33132919397344


molecular fragmentation (1/2 indicates fragments):
112112111111
# atoms in fragment 1/2:    10     2
 fragment masses (1/2) :       62.07       28.01
CMA distance (Bohr)    :   8.246
constraining FC (au)   :  0.0500
           ------------------------------------------------- 
          |                 G F N 2 - x T B                 |
          | Geometry, Frequencies, Noncovalent interactions |
          |            JCTC 2019 parametrisation            |
           ------------------------------------------------- 
             k(s)              :                1.8500
             k(p)              :                2.2300
             k(d)              :                2.2300
             k(f)              :                2.0000
             kEN (H0ij)        :               -2.0000
             D4 a1             :                0.5200
             D4 a2             :                5.0000
             D4 s6             :                1.0000
             D4 s8             :                2.7000
             D4 s9             :                5.0000
             alphaj            :                2.0000

  Z AO/shell   Hii/eV     exponent
  1     Wed Apr 25 08:07:45 CEST 2018   EN: 2.200 GM2: 0.406  GM3: 0.0800  RAES: 1.40
     1s    -10.707211    1.230000
  6     Wed Apr 25 08:07:45 CEST 2018   EN: 2.550 GM2: 0.538  GM3: 0.1500  RAES: 3.00
     2s    -13.970922    2.096432
     2p    -10.063292    1.800000
  8     Wed Apr 25 08:07:45 CEST 2018   EN: 3.440 GM2: 0.452  GM3:-0.0517  RAES: 1.80
     2s    -20.229985    2.439742
     2p    -15.503117    2.137023

           ------------------------------------------------- 
          |        Self-Consistent Charge Iterations        |
           ------------------------------------------------- 

          ...................................................
          :                      SETUP                      :
          :.................................................:
          :  # basis functions                  30          :
          :  # atomic orbitals                  30          :
          :  # shells                           18          :
          :  # electrons                        36          :
          :  max. iterations                   100          :
          :  Hamiltonian                  GFN2-xTB          :
          :  restarted?                      false          :
          :  GBSA solvation                  false          :
          :  PC potential                    false          :
          :  electronic temp.          300.0000000     K    :
          :  accuracy                    1.0000000          :
          :  -> integral cutoff          0.2500000E+02      :
          :  -> integral neglect         0.1000000E-07      :
          :  -> SCF convergence          0.1000000E-05 Eh   :
          :  -> wf. convergence          0.1000000E-03 e    :
          :  Broyden damping             0.4000000          :
          ...................................................

 iter      E             dE          RMSdq      gap      omega  full diag
   1    -21.6663492 -0.216663E+02  0.578E+00    5.16       0.0  T
   2    -21.6719839 -0.563468E-02  0.343E+00    5.04       1.0  T
   3    -21.6708867  0.109713E-02  0.507E-01    3.43       1.0  T
   4    -21.6730873 -0.220062E-02  0.254E-01    3.55       1.0  T
   5    -21.6733448 -0.257437E-03  0.108E-01    3.47       1.0  T
   6    -21.6733423  0.249373E-05  0.435E-02    3.50       1.0  T
   7    -21.6733568 -0.144692E-04  0.109E-02    3.49       2.6  T
   8    -21.6733568 -0.252634E-07  0.388E-03    3.49       7.4  T
   9    -21.6733568 -0.373369E-08  0.327E-03    3.49       8.8  T
  10    -21.6733569 -0.119111E-06  0.396E-04    3.49      72.9  T
  11    -21.6733569 -0.402270E-09  0.226E-04    3.49     127.7  T

   *** convergence criteria satisfied after 11 iterations ***

         #    Occupation            Energy/Eh            Energy/eV
      -------------------------------------------------------------
         1        2.0000           -0.8009965             -21.7962
       ...           ...                  ...                  ...
        12        2.0000           -0.5070117             -13.7965
        13        2.0000           -0.5002421             -13.6123
        14        2.0000           -0.4778903             -13.0041
        15        2.0000           -0.4683994             -12.7458
        16        2.0000           -0.4477370             -12.1835
        17        2.0000           -0.4443346             -12.0910
        18        2.0000           -0.4140739             -11.2675 (HOMO)
        19                         -0.2857786              -7.7764 (LUMO)
        20                         -0.2856975              -7.7742
        21                         -0.0362881              -0.9874
        22                          0.0732591               1.9935
        23                          0.0898674               2.4454
       ...                                ...                  ...
        30                          0.7980595              21.7163
      -------------------------------------------------------------
                  HL-Gap            0.1282953 Eh            3.4911 eV
             Fermi-level           -0.3499263 Eh           -9.5220 eV

 SCC (total)                   0 d,  0 h,  0 min,  0.094 sec
 SCC setup                      ...        0 min,  0.000 sec (  0.146%)
 Dispersion                     ...        0 min,  0.000 sec (  0.058%)
 integral evaluation            ...        0 min,  0.001 sec (  0.903%)
 zeroth order Hamiltonian       ...        0 min,  0.000 sec (  0.071%)
 iterations                     ...        0 min,  0.091 sec ( 96.243%)
 molecular gradient             ...        0 min,  0.002 sec (  2.277%)
 printout                       ...        0 min,  0.000 sec (  0.093%)

         :::::::::::::::::::::::::::::::::::::::::::::::::::::
         ::                     SUMMARY                     ::
         :::::::::::::::::::::::::::::::::::::::::::::::::::::
         :: total energy             -21.496564811372 Eh    ::
         :: gradient norm              0.118974789587 Eh/a0 ::
         :: HOMO-LUMO gap              3.491091940769 eV    ::
         ::.................................................::
         :: SCC energy               -21.673356902720 Eh    ::
         :: -> isotropic ES            0.024897224733 Eh    ::
         :: -> anisotropic ES         -0.001829085105 Eh    ::
         :: -> anisotropic XC         -0.005888061711 Eh    ::
         :: -> dispersion             -0.005191091296 Eh    ::
         :: repulsion energy           0.176777438563 Eh    ::
         :: add. restraining           0.000000000000 Eh    ::
         :::::::::::::::::::::::::::::::::::::::::::::::::::::

      ----------------------------------------------------------- 
     |                   =====================                   |
     |                        A N C O P T                        |
     |                   =====================                   |
     |               Approximate Normal Coordinate               |
     |                Rational Function Optimizer                |
      ----------------------------------------------------------- 

          ...................................................
          :                      SETUP                      :
          :.................................................:
          :   optimization level            normal          :
          :   max. optcycles                   200          :
          :   ANC micro-cycles                  20          :
          :   degrees of freedom                30          :
          :.................................................:
          :   RF solver                   davidson          :
          :   write xtbopt.log                true          :
          :   linear?                        false          :
          :   energy convergence         0.5000000E-05 Eh   :
          :   grad. convergence          0.1000000E-02 Eh/α :
          :   maximium RF displ.         1.0000000          :
          :   Hlow (freq-cutoff)         0.1000000E-01      :
          :   Hmax (freq-cutoff)         5.0000000          :
          :   S6 in model hess.         20.0000000          :
          ...................................................

generating ANC from model Hessian ...
Using Lindh-Hessian (1995)
 Shifting diagonal of input Hessian by   1.002612108379429E-002
 Lowest  eigenvalues of input Hessian
    0.010000   -0.000000   -0.000000    0.000000    0.000000    0.000000
    0.000000    0.010268    0.010395    0.010548    0.011702    0.018610
    0.019751    0.028627    0.046174    0.050287    0.063302    0.072378
 Highest eigenvalues
    1.110345    1.182112    1.198566    1.377599    1.632559    2.257852
 

........................................................................
.............................. CYCLE    1 ..............................
........................................................................
   1    -21.6733569 -0.216734E+02  0.412E-05    3.49       0.0  T
   2    -21.6733569 -0.405365E-11  0.308E-05    3.49     937.3  T
   3    -21.6733569 -0.330402E-11  0.180E-05    3.49    1600.2  T
     SCC iter.                  ...        0 min,  0.001 sec
     gradient                   ...        0 min,  0.001 sec
 * total energy  :   -21.4965648 Eh     change        0.2013596E-08 Eh
   gradient norm :     0.1189748 Eh/α   predicted     0.0000000E+00 (-100.00%)
   displ. norm   :     0.1923291 α      lambda       -0.1366935E-01
   maximum displ.:     0.0809230 α      in ANC's #21, #9, #12, ...

........................................................................
.............................. CYCLE    2 ..............................
........................................................................
   1    -21.6919979 -0.216920E+02  0.371E-01    3.77       0.0  T
   2    -21.6920777 -0.797283E-04  0.235E-01    3.69       1.0  T
   3    -21.6921000 -0.223784E-04  0.426E-02    3.62       1.0  T
   4    -21.6921035 -0.341080E-05  0.147E-02    3.63       2.0  T
   5    -21.6921041 -0.651153E-06  0.705E-03    3.64       4.1  T
   6    -21.6921041 -0.213230E-07  0.355E-03    3.64       8.1  T
   7    -21.6921042 -0.797959E-07  0.129E-03    3.64      22.4  T
     SCC iter.                  ...        0 min,  0.003 sec
     gradient                   ...        0 min,  0.002 sec
 * total energy  :   -21.5055049 Eh     change       -0.8940060E-02 Eh
   gradient norm :     0.0416335 Eh/α   predicted    -0.7087493E-02 ( -20.72%)
   displ. norm   :     0.1557797 α      lambda       -0.2817009E-02
   maximum displ.:     0.0729313 α      in ANC's #9, #5, #12, ...

........................................................................
.............................. CYCLE    3 ..............................
........................................................................
   1    -21.6979515 -0.216980E+02  0.324E-01    3.75       0.0  T
   2    -21.6979884 -0.369163E-04  0.208E-01    3.70       1.0  T
   3    -21.6979987 -0.102440E-04  0.354E-02    3.66       1.0  T
   4    -21.6980058 -0.715239E-05  0.169E-02    3.66       1.7  T
   5    -21.6980072 -0.136327E-05  0.741E-03    3.67       3.9  T
   6    -21.6980073 -0.127454E-06  0.423E-03    3.67       6.8  T
   7    -21.6980073 -0.484303E-07  0.117E-03    3.67      24.6  T
     SCC iter.                  ...        0 min,  0.004 sec
     gradient                   ...        0 min,  0.002 sec
 * total energy  :   -21.5071397 Eh     change       -0.1634869E-02 Eh
   gradient norm :     0.0077419 Eh/α   predicted    -0.1442683E-02 ( -11.76%)
   displ. norm   :     0.0931497 α      lambda       -0.2607000E-03
   maximum displ.:     0.0476134 α      in ANC's #5, #6, #8, ...

........................................................................
.............................. CYCLE    4 ..............................
........................................................................
   1    -21.6979229 -0.216979E+02  0.160E-01    3.68       0.0  T
   2    -21.6979289 -0.596831E-05  0.103E-01    3.67       1.0  T
   3    -21.6979322 -0.328839E-05  0.102E-02    3.66       2.8  T
   4    -21.6979325 -0.307900E-06  0.584E-03    3.66       4.9  T
   5    -21.6979326 -0.719500E-07  0.338E-03    3.67       8.5  T
   6    -21.6979326 -0.397949E-07  0.119E-03    3.67      24.3  T
   7    -21.6979326 -0.413777E-08  0.549E-04    3.66      52.6  T
     SCC iter.                  ...        0 min,  0.004 sec
     gradient                   ...        0 min,  0.001 sec
 * total energy  :   -21.5073265 Eh     change       -0.1867266E-03 Eh
   gradient norm :     0.0069422 Eh/α   predicted    -0.1314801E-03 ( -29.59%)
   displ. norm   :     0.1487260 α      lambda       -0.2347375E-03
   maximum displ.:     0.0778186 α      in ANC's #6, #5, #8, ...

........................................................................
.............................. CYCLE    5 ..............................
........................................................................
   1    -21.6977700 -0.216978E+02  0.199E-01    3.66       0.0  T
   2    -21.6977779 -0.791242E-05  0.127E-01    3.67       1.0  T
   3    -21.6977815 -0.361504E-05  0.141E-02    3.66       2.1  T
   4    -21.6977824 -0.855782E-06  0.739E-03    3.66       3.9  T
   5    -21.6977825 -0.142908E-06  0.425E-03    3.66       6.8  T
   6    -21.6977825 -0.415608E-07  0.913E-04    3.66      31.6  T
   7    -21.6977825 -0.232676E-08  0.475E-04    3.66      60.8  T
     SCC iter.                  ...        0 min,  0.004 sec
     gradient                   ...        0 min,  0.002 sec
 * total energy  :   -21.5075027 Eh     change       -0.1762726E-03 Eh
   gradient norm :     0.0077890 Eh/α   predicted    -0.1199650E-03 ( -31.94%)
   displ. norm   :     0.2441820 α      lambda       -0.2791809E-03
   maximum displ.:     0.1240340 α      in ANC's #5, #6, #8, ...

........................................................................
.............................. CYCLE    6 ..............................
........................................................................
   1    -21.6954500 -0.216954E+02  0.318E-01    3.58       0.0  T
   2    -21.6954685 -0.185643E-04  0.202E-01    3.58       1.0  T
   3    -21.6954643  0.420056E-05  0.420E-02    3.60       1.0  T
   4    -21.6954800 -0.156441E-04  0.126E-02    3.59       2.3  T
   5    -21.6954803 -0.347868E-06  0.680E-03    3.59       4.2  T
   6    -21.6954804 -0.365624E-07  0.101E-03    3.59      28.5  T
   7    -21.6954804 -0.204162E-08  0.426E-04    3.59      67.8  T
     SCC iter.                  ...        0 min,  0.090 sec
     gradient                   ...        0 min,  0.002 sec
 * total energy  :   -21.5076813 Eh     change       -0.1785527E-03 Eh
   gradient norm :     0.0142021 Eh/α   predicted    -0.1479119E-03 ( -17.16%)
   displ. norm   :     0.3720249 α      lambda       -0.4898161E-03
   maximum displ.:     0.1889519 α      in ANC's #4, #8, #6, ...

........................................................................
.............................. CYCLE    7 ..............................
........................................................................
   1    -21.7007671 -0.217008E+02  0.416E-01    3.72       0.0  T
   2    -21.7008307 -0.636298E-04  0.260E-01    3.78       1.0  T
   3    -21.7007551  0.756343E-04  0.140E-01    3.75       1.0  T
   4    -21.7008773 -0.122261E-03  0.123E-02    3.78       2.4  T
   5    -21.7008774 -0.833871E-07  0.671E-03    3.78       4.3  T
   6    -21.7008774 -0.257789E-07  0.136E-03    3.78      21.2  T
   7    -21.7008774 -0.295608E-08  0.478E-04    3.78      60.4  T
     SCC iter.                  ...        0 min,  0.004 sec
     gradient                   ...        0 min,  0.002 sec
 * total energy  :   -21.5073211 Eh     change        0.3601576E-03 Eh
   gradient norm :     0.0461058 Eh/α   predicted    -0.2788012E-03 (-177.41%)
   displ. norm   :     0.1549820 α      lambda       -0.1066888E-02
   maximum displ.:     0.0779842 α      in ANC's #6, #8, #3, ...

........................................................................
.............................. CYCLE    8 ..............................
........................................................................
   1    -21.6971654 -0.216972E+02  0.233E-01    3.62       0.0  T
   2    -21.6972029 -0.374541E-04  0.149E-01    3.58       1.0  T
   3    -21.6972005  0.242937E-05  0.956E-02    3.61       1.0  T
   4    -21.6972376 -0.371155E-04  0.792E-03    3.59       3.6  T
   5    -21.6972376 -0.412785E-07  0.409E-03    3.59       7.1  T
   6    -21.6972376 -0.119967E-07  0.908E-04    3.59      31.8  T
     SCC iter.                  ...        0 min,  0.088 sec
     gradient                   ...        0 min,  0.002 sec
 * total energy  :   -21.5078691 Eh     change       -0.5479916E-03 Eh
   gradient norm :     0.0056984 Eh/α   predicted    -0.5462569E-03 (  -0.32%)
   displ. norm   :     0.0335872 α      lambda       -0.4357066E-04
   maximum displ.:     0.0167166 α      in ANC's #2, #5, #4, ...

........................................................................
.............................. CYCLE    9 ..............................
........................................................................
   1    -21.6982216 -0.216982E+02  0.537E-02    3.59       0.0  T
   2    -21.6982221 -0.501409E-06  0.341E-02    3.59       1.0  T
   3    -21.6982220  0.724700E-07  0.691E-03    3.58       4.2  T
   4    -21.6982225 -0.424336E-06  0.213E-03    3.59      13.5  T
   5    -21.6982225 -0.465236E-08  0.633E-04    3.59      45.6  T
     SCC iter.                  ...        0 min,  0.003 sec
     gradient                   ...        0 min,  0.002 sec
 * total energy  :   -21.5079048 Eh     change       -0.3570357E-04 Eh
   gradient norm :     0.0033352 Eh/α   predicted    -0.2181166E-04 ( -38.91%)
   displ. norm   :     0.2078912 α      lambda       -0.1129873E-03
   maximum displ.:     0.0923925 α      in ANC's #5, #4, #8, ...

........................................................................
.............................. CYCLE   10 ..............................
........................................................................
   1    -21.6970439 -0.216970E+02  0.300E-01    3.52       0.0  T
   2    -21.6970568 -0.128988E-04  0.189E-01    3.51       1.0  T
   3    -21.6970507  0.610016E-05  0.410E-02    3.53       1.0  T
   4    -21.6970667 -0.159250E-04  0.112E-02    3.52       2.6  T
   5    -21.6970668 -0.966815E-07  0.380E-03    3.52       7.6  T
   6    -21.6970668 -0.154691E-07  0.748E-04    3.52      38.6  T
   7    -21.6970668 -0.100402E-08  0.404E-04    3.52      71.4  T
     SCC iter.                  ...        0 min,  0.089 sec
     gradient                   ...        0 min,  0.002 sec
 * total energy  :   -21.5079473 Eh     change       -0.4245523E-04 Eh
   gradient norm :     0.0123434 Eh/α   predicted    -0.5893390E-04 (  38.81%)
   displ. norm   :     0.0667763 α      lambda       -0.1131866E-03
   maximum displ.:     0.0392851 α      in ANC's #2, #3, #4, ...

........................................................................
.............................. CYCLE   11 ..............................
........................................................................
   1    -21.7001573 -0.217002E+02  0.110E-01    3.58       0.0  T
   2    -21.7001634 -0.614781E-05  0.707E-02    3.59       1.0  T
   3    -21.7001589  0.448581E-05  0.428E-02    3.58       1.0  T
   4    -21.7001688 -0.982974E-05  0.429E-03    3.59       6.7  T
   5    -21.7001688 -0.162461E-07  0.127E-03    3.59      22.7  T
   6    -21.7001688 -0.131745E-08  0.483E-04    3.59      59.7  T
     SCC iter.                  ...        0 min,  0.003 sec
     gradient                   ...        0 min,  0.002 sec
 * total energy  :   -21.5079943 Eh     change       -0.4704556E-04 Eh
   gradient norm :     0.0071524 Eh/α   predicted    -0.5684546E-04 (  20.83%)
   displ. norm   :     0.0656042 α      lambda       -0.4598558E-04
   maximum displ.:     0.0383086 α      in ANC's #2, #1, #4, ...

........................................................................
.............................. CYCLE   12 ..............................
........................................................................
   1    -21.6992853 -0.216993E+02  0.120E-01    3.57       0.0  T
   2    -21.6992883 -0.294669E-05  0.768E-02    3.56       1.0  T
   3    -21.6992870  0.129447E-05  0.195E-02    3.57       1.5  T
   4    -21.6992905 -0.350593E-05  0.468E-03    3.57       6.2  T
   5    -21.6992905 -0.237507E-07  0.196E-03    3.57      14.7  T
   6    -21.6992905 -0.404681E-08  0.459E-04    3.57      62.8  T
     SCC iter.                  ...        0 min,  0.088 sec
     gradient                   ...        0 min,  0.002 sec
 * total energy  :   -21.5080347 Eh     change       -0.4033416E-04 Eh
   gradient norm :     0.0035538 Eh/α   predicted    -0.2308988E-04 ( -42.75%)
   displ. norm   :     0.4062109 α      lambda       -0.1964570E-03
   maximum displ.:     0.2152278 α      in ANC's #2, #4, #8, ...

........................................................................
.............................. CYCLE   13 ..............................
........................................................................
   1    -21.6877943 -0.216878E+02  0.675E-01    3.34       0.0  T
   2    -21.6878997 -0.105442E-03  0.429E-01    3.31       1.0  T
   3    -21.6876667  0.233050E-03  0.194E-01    3.39       1.0  T
   4    -21.6879971 -0.330470E-03  0.266E-02    3.35       1.1  T
   5    -21.6879976 -0.516943E-06  0.107E-02    3.35       2.7  T
   6    -21.6879978 -0.181262E-06  0.232E-03    3.35      12.5  T
   7    -21.6879978 -0.124883E-07  0.152E-03    3.35      19.0  T
   8    -21.6879979 -0.960317E-08  0.419E-04    3.35      68.9  T
   9    -21.6879979 -0.666187E-09  0.134E-04    3.35     216.0  T
     SCC iter.                  ...        0 min,  0.005 sec
     gradient                   ...        0 min,  0.002 sec
 * total energy  :   -21.5076177 Eh     change        0.4170089E-03 Eh
   gradient norm :     0.0476062 Eh/α   predicted    -0.1144352E-03 (-127.44%)
   displ. norm   :     0.2349392 α      lambda       -0.1528227E-02
   maximum displ.:     0.1434950 α      in ANC's #1, #2, #4, ...

........................................................................
.............................. CYCLE   14 ..............................
........................................................................
   1    -21.6984666 -0.216985E+02  0.501E-01    3.56       0.0  T
   2    -21.6985445 -0.779371E-04  0.318E-01    3.60       1.0  T
   3    -21.6984123  0.132211E-03  0.168E-01    3.54       1.0  T
   4    -21.6986133 -0.200967E-03  0.188E-02    3.58       1.5  T
   5    -21.6986135 -0.241500E-06  0.688E-03    3.58       4.2  T
   6    -21.6986136 -0.508765E-07  0.148E-03    3.58      19.5  T
   7    -21.6986136 -0.607104E-08  0.768E-04    3.58      37.6  T
     SCC iter.                  ...        0 min,  0.088 sec
     gradient                   ...        0 min,  0.002 sec
 * total energy  :   -21.5081093 Eh     change       -0.4916345E-03 Eh
   gradient norm :     0.0046160 Eh/α   predicted    -0.8062852E-03 (  64.00%)
   displ. norm   :     0.0536462 α      lambda       -0.4781786E-04
   maximum displ.:     0.0361205 α      in ANC's #6, #5, #2, ...

........................................................................
.............................. CYCLE   15 ..............................
........................................................................
   1    -21.6991104 -0.216991E+02  0.876E-02    3.57       0.0  T
   2    -21.6991121 -0.173640E-05  0.560E-02    3.56       1.0  T
   3    -21.6991121  0.191234E-07  0.114E-02    3.56       2.5  T
   4    -21.6991132 -0.109617E-05  0.357E-03    3.56       8.1  T
   5    -21.6991132 -0.365242E-07  0.160E-03    3.56      18.1  T
   6    -21.6991132 -0.255372E-08  0.494E-04    3.56      58.5  T
     SCC iter.                  ...        0 min,  0.003 sec
     gradient                   ...        0 min,  0.002 sec
 * total energy  :   -21.5081429 Eh     change       -0.3360475E-04 Eh
   gradient norm :     0.0024807 Eh/α   predicted    -0.2397891E-04 ( -28.64%)
   displ. norm   :     0.1983446 α      lambda       -0.1190978E-03
   maximum displ.:     0.1145060 α      in ANC's #2, #4, #6, ...

........................................................................
.............................. CYCLE   16 ..............................
........................................................................
   1    -21.6978184 -0.216978E+02  0.328E-01    3.52       0.0  T
   2    -21.6978378 -0.193989E-04  0.209E-01    3.52       1.0  T
   3    -21.6978456 -0.776732E-05  0.299E-02    3.52       1.0  T
   4    -21.6978524 -0.681952E-05  0.131E-02    3.52       2.2  T
   5    -21.6978527 -0.248662E-06  0.502E-03    3.52       5.7  T
   6    -21.6978527 -0.796903E-07  0.170E-03    3.52      17.0  T
   7    -21.6978528 -0.121787E-07  0.738E-04    3.52      39.1  T
   8    -21.6978528 -0.235112E-08  0.245E-04    3.52     117.8  T
     SCC iter.                  ...        0 min,  0.090 sec
     gradient                   ...        0 min,  0.002 sec
 * total energy  :   -21.5082037 Eh     change       -0.6075781E-04 Eh
   gradient norm :     0.0088631 Eh/α   predicted    -0.6189223E-04 (   1.87%)
   displ. norm   :     0.0489783 α      lambda       -0.4575717E-04
   maximum displ.:     0.0392704 α      in ANC's #2, #4, #8, ...

........................................................................
.............................. CYCLE   17 ..............................
........................................................................
   1    -21.6980082 -0.216980E+02  0.394E-02    3.53       0.0  T
   2    -21.6980086 -0.421174E-06  0.245E-02    3.53       1.2  T
   3    -21.6980083  0.254796E-06  0.757E-03    3.53       3.8  T
   4    -21.6980088 -0.467078E-06  0.205E-03    3.53      14.1  T
   5    -21.6980088 -0.886112E-08  0.805E-04    3.53      35.9  T
     SCC iter.                  ...        0 min,  0.003 sec
     gradient                   ...        0 min,  0.002 sec
 * total energy  :   -21.5082387 Eh     change       -0.3504680E-04 Eh
   gradient norm :     0.0058223 Eh/α   predicted    -0.2293319E-04 ( -34.56%)
   displ. norm   :     0.2166201 α      lambda       -0.8622135E-04
   maximum displ.:     0.1623198 α      in ANC's #2, #4, #8, ...

........................................................................
.............................. CYCLE   18 ..............................
........................................................................
   1    -21.6973864 -0.216974E+02  0.239E-01    3.53       0.0  T
   2    -21.6973948 -0.842623E-05  0.150E-01    3.53       1.0  T
   3    -21.6973990 -0.422231E-05  0.177E-02    3.53       1.6  T
   4    -21.6974008 -0.178694E-05  0.914E-03    3.54       3.2  T
   5    -21.6974009 -0.139772E-06  0.291E-03    3.54       9.9  T
   6    -21.6974010 -0.258204E-07  0.119E-03    3.54      24.4  T
     SCC iter.                  ...        0 min,  0.088 sec
     gradient                   ...        0 min,  0.002 sec
 * total energy  :   -21.5082960 Eh     change       -0.5731272E-04 Eh
   gradient norm :     0.0061130 Eh/α   predicted    -0.4513642E-04 ( -21.25%)
   displ. norm   :     0.1854929 α      lambda       -0.1001612E-03
   maximum displ.:     0.1500892 α      in ANC's #2, #4, #8, ...

........................................................................
.............................. CYCLE   19 ..............................
........................................................................
   1    -21.6983964 -0.216984E+02  0.179E-01    3.53       0.0  T
   2    -21.6984012 -0.478940E-05  0.112E-01    3.54       1.0  T
   3    -21.6984020 -0.802159E-06  0.179E-02    3.53       1.6  T
   4    -21.6984045 -0.248870E-05  0.705E-03    3.54       4.1  T
   5    -21.6984046 -0.607008E-07  0.222E-03    3.54      13.0  T
   6    -21.6984046 -0.585095E-08  0.703E-04    3.54      41.1  T
     SCC iter.                  ...        0 min,  0.003 sec
     gradient                   ...        0 min,  0.002 sec
 * total energy  :   -21.5083701 Eh     change       -0.7410191E-04 Eh
   gradient norm :     0.0048889 Eh/α   predicted    -0.5180459E-04 ( -30.09%)
   displ. norm   :     0.4806364 α      lambda       -0.1950197E-03
   maximum displ.:     0.3899901 α      in ANC's #2, #4, #8, ...

........................................................................
.............................. CYCLE   20 ..............................
........................................................................
   1    -21.6919838 -0.216920E+02  0.573E-01    3.44       0.0  T
   2    -21.6920400 -0.561651E-04  0.363E-01    3.42       1.0  T
   3    -21.6919921  0.478712E-04  0.985E-02    3.46       1.0  T
   4    -21.6920855 -0.933791E-04  0.221E-02    3.44       1.3  T
   5    -21.6920859 -0.434705E-06  0.430E-03    3.44       6.7  T
   6    -21.6920860 -0.473748E-07  0.219E-03    3.44      13.2  T
   7    -21.6920860 -0.157271E-07  0.109E-03    3.44      26.5  T
     SCC iter.                  ...        0 min,  0.089 sec
     gradient                   ...        0 min,  0.002 sec
 * total energy  :   -21.5083203 Eh     change        0.4978510E-04 Eh
   gradient norm :     0.0252899 Eh/α   predicted    -0.1200339E-03 (-341.10%)
   displ. norm   :     0.1576277 α      lambda       -0.5693136E-03
   maximum displ.:     0.1022970 α      in ANC's #2, #4, #8, ...
 * RMSD in coord.:     0.5753135 α      energy gain  -0.1175552E-01 Eh

generating ANC from model Hessian ...
Using Lindh-Hessian (1995)
 Shifting diagonal of input Hessian by   1.069088669053161E-002
 Lowest  eigenvalues of input Hessian
    0.010000   -0.000000   -0.000000   -0.000000   -0.000000   -0.000000
    0.000000    0.010768    0.011112    0.011308    0.012510    0.018009
    0.021362    0.029412    0.048032    0.051745    0.064667    0.074045
 Highest eigenvalues
    1.148054    1.206612    1.242606    1.301791    1.486826    2.261064
 

........................................................................
.............................. CYCLE   21 ..............................
........................................................................
   1    -21.7000478 -0.217000E+02  0.227E-01    3.50       0.0  T
   2    -21.7000658 -0.180847E-04  0.144E-01    3.52       1.0  T
   3    -21.7000406  0.252715E-04  0.745E-02    3.50       1.0  T
   4    -21.7000797 -0.391752E-04  0.945E-03    3.52       3.1  T
   5    -21.7000798 -0.103582E-06  0.477E-03    3.52       6.1  T
   6    -21.7000799 -0.297361E-07  0.110E-03    3.52      26.3  T
   7    -21.7000799 -0.386413E-08  0.620E-04    3.52      46.6  T
   8    -21.7000799 -0.160770E-08  0.260E-04    3.52     111.1  T
     SCC iter.                  ...        0 min,  0.004 sec
     gradient                   ...        0 min,  0.002 sec
 * total energy  :   -21.5085334 Eh     change       -0.2130428E-03 Eh
   gradient norm :     0.0028221 Eh/α   predicted     0.0000000E+00 (-100.00%)
   displ. norm   :     0.0389004 α      lambda       -0.2961788E-04
   maximum displ.:     0.0190660 α      in ANC's #5, #3, #4, ...

........................................................................
.............................. CYCLE   22 ..............................
........................................................................
   1    -21.6995424 -0.216995E+02  0.820E-02    3.51       0.0  T
   2    -21.6995437 -0.132356E-05  0.529E-02    3.51       1.0  T
   3    -21.6995442 -0.519750E-06  0.798E-03    3.51       3.6  T
   4    -21.6995447 -0.538949E-06  0.288E-03    3.51      10.0  T
   5    -21.6995447 -0.704341E-08  0.521E-04    3.51      55.4  T
   6    -21.6995447 -0.470969E-09  0.207E-04    3.51     139.3  T
     SCC iter.                  ...        0 min,  0.003 sec
     gradient                   ...        0 min,  0.002 sec
 * total energy  :   -21.5085575 Eh     change       -0.2410666E-04 Eh
   gradient norm :     0.0015982 Eh/α   predicted    -0.1483069E-04 ( -38.48%)
   displ. norm   :     0.1553621 α      lambda       -0.5419493E-04
   maximum displ.:     0.0851818 α      in ANC's #3, #8, #5, ...

........................................................................
.............................. CYCLE   23 ..............................
........................................................................
   1    -21.6972806 -0.216973E+02  0.281E-01    3.49       0.0  T
   2    -21.6972956 -0.149652E-04  0.180E-01    3.48       1.0  T
   3    -21.6972957 -0.947401E-07  0.357E-02    3.49       1.0  T
   4    -21.6973075 -0.117816E-04  0.104E-02    3.48       2.8  T
   5    -21.6973076 -0.873395E-07  0.239E-03    3.49      12.1  T
   6    -21.6973076 -0.117365E-07  0.905E-04    3.49      31.9  T
   7    -21.6973076 -0.216252E-08  0.408E-04    3.49      70.7  T
     SCC iter.                  ...        0 min,  0.004 sec
     gradient                   ...        0 min,  0.002 sec
 * total energy  :   -21.5085762 Eh     change       -0.1869894E-04 Eh
   gradient norm :     0.0111032 Eh/α   predicted    -0.2738997E-04 (  46.48%)
   displ. norm   :     0.0365761 α      lambda       -0.5858458E-04
   maximum displ.:     0.0213693 α      in ANC's #4, #1, #2, ...

........................................................................
.............................. CYCLE   24 ..............................
........................................................................
   1    -21.6988036 -0.216988E+02  0.708E-02    3.52       0.0  T
   2    -21.6988056 -0.201647E-05  0.460E-02    3.53       1.0  T
   3    -21.6988031  0.254188E-05  0.262E-02    3.52       1.1  T
   4    -21.6988075 -0.437764E-05  0.254E-03    3.52      11.4  T
   5    -21.6988075 -0.317925E-08  0.906E-04    3.52      31.9  T
   6    -21.6988075 -0.836145E-09  0.140E-04    3.52     206.0  T
     SCC iter.                  ...        0 min,  0.005 sec
     gradient                   ...        0 min,  0.002 sec
 * total energy  :   -21.5086130 Eh     change       -0.3678747E-04 Eh
   gradient norm :     0.0041976 Eh/α   predicted    -0.2933007E-04 ( -20.27%)
   displ. norm   :     0.0653401 α      lambda       -0.4494505E-04
   maximum displ.:     0.0346063 α      in ANC's #2, #1, #3, ...

........................................................................
.............................. CYCLE   25 ..............................
........................................................................
   1    -21.6997054 -0.216997E+02  0.606E-02    3.53       0.0  T
   2    -21.6997059 -0.533903E-06  0.377E-02    3.53       1.0  T
   3    -21.6997051  0.850665E-06  0.114E-02    3.53       2.5  T
   4    -21.6997063 -0.123576E-05  0.209E-03    3.53      13.8  T
   5    -21.6997063 -0.275436E-08  0.886E-04    3.53      32.6  T
     SCC iter.                  ...        0 min,  0.004 sec
     gradient                   ...        0 min,  0.002 sec
 * total energy  :   -21.5086505 Eh     change       -0.3756487E-04 Eh
   gradient norm :     0.0030651 Eh/α   predicted    -0.2256774E-04 ( -39.92%)
   displ. norm   :     0.2631786 α      lambda       -0.1140944E-03
   maximum displ.:     0.1324029 α      in ANC's #2, #3, #1, ...

........................................................................
.............................. CYCLE   26 ..............................
........................................................................
   1    -21.6998532 -0.216999E+02  0.263E-01    3.53       0.0  T
   2    -21.6998608 -0.761995E-05  0.164E-01    3.53       1.0  T
   3    -21.6998651 -0.434082E-05  0.152E-02    3.53       1.9  T
   4    -21.6998661 -0.100258E-05  0.869E-03    3.54       3.3  T
   5    -21.6998662 -0.123299E-06  0.264E-03    3.54      10.9  T
   6    -21.6998663 -0.171448E-07  0.789E-04    3.54      36.6  T
   7    -21.6998663 -0.142466E-08  0.381E-04    3.54      75.8  T
     SCC iter.                  ...        0 min,  0.005 sec
     gradient                   ...        0 min,  0.287 sec
 * total energy  :   -21.5087368 Eh     change       -0.8631959E-04 Eh
   gradient norm :     0.0070383 Eh/α   predicted    -0.6099537E-04 ( -29.34%)
   displ. norm   :     0.3596314 α      lambda       -0.1384855E-03
   maximum displ.:     0.1873542 α      in ANC's #1, #3, #2, ...

........................................................................
.............................. CYCLE   27 ..............................
........................................................................
   1    -21.6971763 -0.216972E+02  0.341E-01    3.48       0.0  T
   2    -21.6971929 -0.166232E-04  0.214E-01    3.47       1.0  T
   3    -21.6971767  0.162781E-04  0.556E-02    3.50       1.0  T
   4    -21.6972061 -0.294663E-04  0.124E-02    3.49       2.3  T
   5    -21.6972062 -0.109026E-06  0.292E-03    3.49       9.9  T
   6    -21.6972062 -0.706779E-08  0.762E-04    3.49      37.9  T
     SCC iter.                  ...        0 min,  0.003 sec
     gradient                   ...        0 min,  0.002 sec
 * total energy  :   -21.5088101 Eh     change       -0.7324836E-04 Eh
   gradient norm :     0.0111149 Eh/α   predicted    -0.7820274E-04 (   6.76%)
   displ. norm   :     0.1508743 α      lambda       -0.1570734E-03
   maximum displ.:     0.1115534 α      in ANC's #2, #1, #3, ...

........................................................................
.............................. CYCLE   28 ..............................
........................................................................
   1    -21.6989126 -0.216989E+02  0.974E-02    3.49       0.0  T
   2    -21.6989162 -0.357583E-05  0.608E-02    3.49       1.0  T
   3    -21.6989176 -0.142710E-05  0.101E-02    3.49       2.9  T
   4    -21.6989177 -0.696346E-07  0.484E-03    3.49       6.0  T
   5    -21.6989178 -0.930218E-07  0.256E-03    3.49      11.3  T
   6    -21.6989178 -0.148894E-07  0.572E-04    3.49      50.5  T
     SCC iter.                  ...        0 min,  0.091 sec
     gradient                   ...        0 min,  0.004 sec
 * total energy  :   -21.5088886 Eh     change       -0.7848870E-04 Eh
   gradient norm :     0.0078930 Eh/α   predicted    -0.8032573E-04 (   2.34%)
   displ. norm   :     0.2714613 α      lambda       -0.1653154E-03
   maximum displ.:     0.1991280 α      in ANC's #2, #3, #1, ...

........................................................................
.............................. CYCLE   29 ..............................
........................................................................
   1    -21.6988839 -0.216989E+02  0.244E-01    3.53       0.0  T
   2    -21.6988923 -0.844786E-05  0.154E-01    3.54       1.0  T
   3    -21.6988932 -0.849383E-06  0.254E-02    3.53       1.1  T
   4    -21.6988987 -0.551065E-05  0.907E-03    3.54       3.2  T
   5    -21.6988987 -0.721648E-07  0.167E-03    3.54      17.3  T
   6    -21.6988987 -0.350044E-08  0.638E-04    3.54      45.2  T
     SCC iter.                  ...        0 min,  0.099 sec
     gradient                   ...        0 min,  0.001 sec
 * total energy  :   -21.5090228 Eh     change       -0.1341660E-03 Eh
   gradient norm :     0.0033242 Eh/α   predicted    -0.8875072E-04 ( -33.85%)
   displ. norm   :     0.6173394 α      lambda       -0.2513756E-03
   maximum displ.:     0.4322845 α      in ANC's #2, #3, #1, ...

........................................................................
.............................. CYCLE   30 ..............................
........................................................................
   1    -21.6921586 -0.216922E+02  0.530E-01    3.50       0.0  T
   2    -21.6922006 -0.419939E-04  0.335E-01    3.49       1.0  T
   3    -21.6921500  0.505297E-04  0.926E-02    3.53       1.0  T
   4    -21.6922344 -0.843692E-04  0.196E-02    3.51       1.5  T
   5    -21.6922347 -0.249290E-06  0.487E-03    3.51       5.9  T
   6    -21.6922347 -0.250667E-07  0.130E-03    3.51      22.1  T
   7    -21.6922347 -0.324145E-08  0.680E-04    3.51      42.4  T
   8    -21.6922347 -0.135437E-08  0.302E-04    3.51      95.5  T
     SCC iter.                  ...        0 min,  0.002 sec
     gradient                   ...        0 min,  0.001 sec
 * total energy  :   -21.5089778 Eh     change        0.4494118E-04 Eh
   gradient norm :     0.0287853 Eh/α   predicted    -0.1735930E-03 (-486.27%)
   displ. norm   :     0.1344297 α      lambda       -0.5704551E-03
   maximum displ.:     0.0916864 α      in ANC's #3, #8, #6, ...

........................................................................
.............................. CYCLE   31 ..............................
........................................................................
   1    -21.7000507 -0.217001E+02  0.212E-01    3.60       0.0  T
   2    -21.7000695 -0.188107E-04  0.136E-01    3.62       1.0  T
   3    -21.7000480  0.215721E-04  0.774E-02    3.60       1.0  T
   4    -21.7000853 -0.373171E-04  0.841E-03    3.61       3.4  T
   5    -21.7000853 -0.602080E-07  0.413E-03    3.61       7.0  T
   6    -21.7000854 -0.134999E-07  0.937E-04    3.61      30.8  T
     SCC iter.                  ...        0 min,  0.002 sec
     gradient                   ...        0 min,  0.001 sec
 * total energy  :   -21.5092130 Eh     change       -0.2352376E-03 Eh
   gradient norm :     0.0061477 Eh/α   predicted    -0.2903803E-03 (  23.44%)
   displ. norm   :     0.2104194 α      lambda       -0.1139061E-03
   maximum displ.:     0.1658057 α      in ANC's #2, #1, #5, ...

........................................................................
.............................. CYCLE   32 ..............................
........................................................................
   1    -21.6993950 -0.216994E+02  0.157E-01    3.59       0.0  T
   2    -21.6993989 -0.389567E-05  0.995E-02    3.59       1.0  T
   3    -21.6993970  0.187439E-05  0.230E-02    3.60       1.3  T
   4    -21.6994019 -0.491506E-05  0.635E-03    3.60       4.5  T
   5    -21.6994020 -0.268878E-07  0.182E-03    3.60      15.8  T
   6    -21.6994020 -0.259237E-08  0.303E-04    3.60      95.1  T
     SCC iter.                  ...        0 min,  0.092 sec
     gradient                   ...        0 min,  0.001 sec
 * total energy  :   -21.5093148 Eh     change       -0.1017090E-03 Eh
   gradient norm :     0.0045750 Eh/α   predicted    -0.5947371E-04 ( -41.53%)
   displ. norm   :     0.8012576 α      lambda       -0.3434360E-03
   maximum displ.:     0.6092700 α      in ANC's #2, #1, #5, ...

........................................................................
.............................. CYCLE   33 ..............................
........................................................................
   1    -21.6925411 -0.216925E+02  0.526E-01    3.54       0.0  T
   2    -21.6925740 -0.329256E-04  0.329E-01    3.53       1.0  T
   3    -21.6925280  0.459720E-04  0.846E-02    3.58       1.0  T
   4    -21.6925995 -0.715067E-04  0.189E-02    3.56       1.5  T
   5    -21.6925997 -0.225206E-06  0.782E-03    3.56       3.7  T
   6    -21.6925998 -0.875064E-07  0.129E-03    3.56      22.4  T
   7    -21.6925998 -0.207606E-08  0.517E-04    3.56      55.8  T
     SCC iter.                  ...        0 min,  0.003 sec
     gradient                   ...        0 min,  0.001 sec
 * total energy  :   -21.5094137 Eh     change       -0.9894099E-04 Eh
   gradient norm :     0.0259587 Eh/α   predicted    -0.2819591E-03 ( 184.98%)
   displ. norm   :     0.0938747 α      lambda       -0.3954047E-03
   maximum displ.:     0.0628259 α      in ANC's #2, #1, #6, ...

........................................................................
.............................. CYCLE   34 ..............................
........................................................................
   1    -21.6985935 -0.216986E+02  0.190E-01    3.63       0.0  T
   2    -21.6986052 -0.116810E-04  0.123E-01    3.64       1.0  T
   3    -21.6985854  0.197768E-04  0.615E-02    3.62       1.0  T
   4    -21.6986151 -0.296912E-04  0.745E-03    3.63       3.9  T
   5    -21.6986152 -0.328985E-07  0.355E-03    3.64       8.1  T
   6    -21.6986152 -0.934877E-08  0.632E-04    3.64      45.7  T
     SCC iter.                  ...        0 min,  0.092 sec
     gradient                   ...        0 min,  0.001 sec
 * total energy  :   -21.5096178 Eh     change       -0.2040712E-03 Eh
   gradient norm :     0.0052393 Eh/α   predicted    -0.1994425E-03 (  -2.27%)
   displ. norm   :     0.3885598 α      lambda       -0.2371337E-03
   maximum displ.:     0.2614076 α      in ANC's #2, #1, #5, ...

........................................................................
.............................. CYCLE   35 ..............................
........................................................................
   1    -21.7001053 -0.217001E+02  0.243E-01    3.66       0.0  T
   2    -21.7001128 -0.749951E-05  0.153E-01    3.66       1.0  T
   3    -21.7001152 -0.233898E-05  0.195E-02    3.66       1.5  T
   4    -21.7001177 -0.251936E-05  0.903E-03    3.66       3.2  T
   5    -21.7001178 -0.140753E-06  0.358E-03    3.66       8.1  T
   6    -21.7001179 -0.156340E-07  0.864E-04    3.66      33.4  T
   7    -21.7001179 -0.120242E-08  0.290E-04    3.66      99.7  T
     SCC iter.                  ...        0 min,  0.002 sec
     gradient                   ...        0 min,  0.001 sec
 * total energy  :   -21.5097807 Eh     change       -0.1629357E-03 Eh
   gradient norm :     0.0091342 Eh/α   predicted    -0.1364679E-03 ( -16.24%)
   displ. norm   :     0.7516874 α      lambda       -0.3129719E-03
   maximum displ.:     0.4952522 α      in ANC's #2, #1, #5, ...

........................................................................
.............................. CYCLE   36 ..............................
........................................................................
   1    -21.6967873 -0.216968E+02  0.422E-01    3.75       0.0  T
   2    -21.6968018 -0.144168E-04  0.261E-01    3.74       1.0  T
   3    -21.6968092 -0.739139E-05  0.213E-02    3.74       1.4  T
   4    -21.6968106 -0.146955E-05  0.130E-02    3.73       2.2  T
   5    -21.6968109 -0.271827E-06  0.600E-03    3.74       4.8  T
   6    -21.6968110 -0.116150E-06  0.126E-03    3.74      23.0  T
   7    -21.6968110 -0.311408E-08  0.448E-04    3.74      64.4  T
     SCC iter.                  ...        0 min,  0.092 sec
     gradient                   ...        0 min,  0.001 sec
 * total energy  :   -21.5099573 Eh     change       -0.1766241E-03 Eh
   gradient norm :     0.0113677 Eh/α   predicted    -0.2449180E-03 (  38.67%)
   displ. norm   :     0.1881598 α      lambda       -0.1760340E-03
   maximum displ.:     0.1176582 α      in ANC's #1, #2, #5, ...

........................................................................
.............................. CYCLE   37 ..............................
........................................................................
   1    -21.6984493 -0.216984E+02  0.102E-01    3.72       0.0  T
   2    -21.6984508 -0.149425E-05  0.625E-02    3.73       1.0  T
   3    -21.6984512 -0.430612E-06  0.691E-03    3.74       4.2  T
   4    -21.6984514 -0.119167E-06  0.390E-03    3.74       7.4  T
   5    -21.6984514 -0.544071E-07  0.209E-03    3.74      13.8  T
   6    -21.6984514 -0.716728E-08  0.442E-04    3.74      65.3  T
     SCC iter.                  ...        0 min,  0.001 sec
     gradient                   ...        0 min,  0.001 sec
 * total energy  :   -21.5100689 Eh     change       -0.1115879E-03 Eh
   gradient norm :     0.0073443 Eh/α   predicted    -0.9113401E-04 ( -18.33%)
   displ. norm   :     0.2938419 α      lambda       -0.1066400E-03
   maximum displ.:     0.1954610 α      in ANC's #2, #1, #5, ...

........................................................................
.............................. CYCLE   38 ..............................
........................................................................
   1    -21.7000410 -0.217000E+02  0.141E-01    3.79       0.0  T
   2    -21.7000429 -0.186684E-05  0.867E-02    3.79       1.0  T
   3    -21.7000409  0.194811E-05  0.188E-02    3.78       1.5  T
   4    -21.7000442 -0.331545E-05  0.505E-03    3.79       5.7  T
   5    -21.7000443 -0.163318E-07  0.120E-03    3.79      24.0  T
   6    -21.7000443 -0.135431E-08  0.359E-04    3.79      80.5  T
     SCC iter.                  ...        0 min,  0.001 sec
     gradient                   ...        0 min,  0.091 sec
 * total energy  :   -21.5101395 Eh     change       -0.7058038E-04 Eh
   gradient norm :     0.0024146 Eh/α   predicted    -0.5792521E-04 ( -17.93%)
   displ. norm   :     0.2653841 α      lambda       -0.4399558E-04
   maximum displ.:     0.1664022 α      in ANC's #2, #1, #5, ...

........................................................................
.............................. CYCLE   39 ..............................
........................................................................
   1    -21.6995883 -0.216996E+02  0.146E-01    3.81       0.0  T
   2    -21.6995907 -0.230646E-05  0.909E-02    3.80       1.0  T
   3    -21.6995884  0.226630E-05  0.205E-02    3.81       1.4  T
   4    -21.6995924 -0.398884E-05  0.533E-03    3.80       5.4  T
   5    -21.6995924 -0.196674E-07  0.164E-03    3.80      17.6  T
   6    -21.6995924 -0.201645E-08  0.315E-04    3.80      91.6  T
   7    -21.6995924 -0.134371E-09  0.139E-04    3.80     207.3  T
     SCC iter.                  ...        0 min,  0.002 sec
     gradient                   ...        0 min,  0.002 sec
 * total energy  :   -21.5101516 Eh     change       -0.1207792E-04 Eh
   gradient norm :     0.0053225 Eh/α   predicted    -0.2354813E-04 (  94.97%)
   displ. norm   :     0.0624362 α      lambda       -0.3873341E-04
   maximum displ.:     0.0401378 α      in ANC's #2, #1, #4, ...

........................................................................
.............................. CYCLE   40 ..............................
........................................................................
   1    -21.7017969 -0.217018E+02  0.557E-02    3.81       0.0  T
   2    -21.7017979 -0.972469E-06  0.353E-02    3.82       1.0  T
   3    -21.7017962  0.171050E-05  0.190E-02    3.81       1.5  T
   4    -21.7017987 -0.252764E-05  0.181E-03    3.82      15.9  T
   5    -21.7017987 -0.210177E-08  0.921E-04    3.82      31.4  T
     SCC iter.                  ...        0 min,  0.001 sec
     gradient                   ...        0 min,  0.091 sec
 * total energy  :   -21.5101603 Eh     change       -0.8696561E-05 Eh
   gradient norm :     0.0029675 Eh/α   predicted    -0.1944126E-04 ( 123.55%)
   displ. norm   :     0.0477747 α      lambda       -0.2496996E-04
   maximum displ.:     0.0278822 α      in ANC's #2, #1, #6, ...

........................................................................
.............................. CYCLE   41 ..............................
........................................................................
   1    -21.7005750 -0.217006E+02  0.336E-02    3.82       0.0  T
   2    -21.7005753 -0.281684E-06  0.208E-02    3.82       1.4  T
   3    -21.7005752  0.387669E-07  0.443E-03    3.82       6.5  T
   4    -21.7005753 -0.113470E-06  0.150E-03    3.82      19.2  T
   5    -21.7005754 -0.108513E-07  0.757E-04    3.82      38.1  T
   6    -21.7005754 -0.561609E-09  0.145E-04    3.82     198.5  T
     SCC iter.                  ...        0 min,  0.003 sec
     gradient                   ...        0 min,  0.001 sec
 * total energy  :   -21.5101690 Eh     change       -0.8756792E-05 Eh
   gradient norm :     0.0033077 Eh/α   predicted    -0.1251194E-04 (  42.88%)
   displ. norm   :     0.0303009 α      lambda       -0.1373096E-04
   maximum displ.:     0.0209109 α      in ANC's #2, #1, #5, ...

........................................................................
.............................. CYCLE   42 ..............................
........................................................................
   1    -21.7004684 -0.217005E+02  0.239E-02    3.82       0.0  T
   2    -21.7004685 -0.154610E-06  0.149E-02    3.81       1.9  T
   3    -21.7004684  0.148115E-06  0.537E-03    3.81       5.4  T
   4    -21.7004686 -0.232915E-06  0.118E-03    3.81      24.5  T
   5    -21.7004686 -0.264846E-08  0.554E-04    3.81      52.1  T
   6    -21.7004686 -0.255696E-09  0.133E-04    3.81     217.3  T
     SCC iter.                  ...        0 min,  0.001 sec
     gradient                   ...        0 min,  0.091 sec
 * total energy  :   -21.5101770 Eh     change       -0.7999266E-05 Eh
   gradient norm :     0.0016617 Eh/α   predicted    -0.6869761E-05 ( -14.12%)
   displ. norm   :     0.0376589 α      lambda       -0.9357371E-05
   maximum displ.:     0.0277800 α      in ANC's #6, #3, #2, ...
 * RMSD in coord.:     1.2865783 α      energy gain  -0.1856700E-02 Eh

generating ANC from model Hessian ...
Using Lindh-Hessian (1995)
 Shifting diagonal of input Hessian by   1.035980546367156E-002
 Lowest  eigenvalues of input Hessian
    0.010000   -0.000000   -0.000000    0.000000    0.000000    0.000000
    0.000000    0.010468    0.010841    0.011796    0.012806    0.017191
    0.020576    0.032712    0.045509    0.052089    0.063824    0.073158
 Highest eigenvalues
    1.143759    1.206957    1.236599    1.300819    1.474159    2.254012
 

........................................................................
.............................. CYCLE   43 ..............................
........................................................................
   1    -21.7004497 -0.217004E+02  0.624E-02    3.81       0.0  T
   2    -21.7004503 -0.677470E-06  0.400E-02    3.80       1.0  T
   3    -21.7004498  0.503390E-06  0.104E-02    3.81       2.8  T
   4    -21.7004509 -0.105526E-05  0.204E-03    3.81      14.2  T
   5    -21.7004509 -0.358959E-08  0.445E-04    3.81      64.9  T
   6    -21.7004509 -0.360128E-09  0.182E-04    3.81     158.7  T
     SCC iter.                  ...        0 min,  0.002 sec
     gradient                   ...        0 min,  0.001 sec
 * total energy  :   -21.5101858 Eh     change       -0.8791586E-05 Eh
   gradient norm :     0.0030116 Eh/α   predicted     0.0000000E+00 (-100.00%)
   displ. norm   :     0.0233250 α      lambda       -0.1806778E-04
   maximum displ.:     0.0151742 α      in ANC's #8, #7, #5, ...

........................................................................
.............................. CYCLE   44 ..............................
........................................................................
   1    -21.7008924 -0.217009E+02  0.552E-02    3.82       0.0  T
   2    -21.7008932 -0.772204E-06  0.356E-02    3.82       1.0  T
   3    -21.7008916  0.159324E-05  0.165E-02    3.82       1.8  T
   4    -21.7008939 -0.224429E-05  0.152E-03    3.82      19.0  T
   5    -21.7008939 -0.137201E-08  0.399E-04    3.82      72.4  T
   6    -21.7008939 -0.272284E-09  0.164E-04    3.82     176.0  T
     SCC iter.                  ...        0 min,  0.001 sec
     gradient                   ...        0 min,  0.091 sec
 * total energy  :   -21.5102002 Eh     change       -0.1436800E-04 Eh
   gradient norm :     0.0007991 Eh/α   predicted    -0.9039750E-05 ( -37.08%)
   displ. norm   :     0.1046672 α      lambda       -0.3388485E-04
   maximum displ.:     0.0696940 α      in ANC's #8, #7, #3, ...

........................................................................
.............................. CYCLE   45 ..............................
........................................................................
   1    -21.7009060 -0.217009E+02  0.235E-01    3.82       0.0  T
   2    -21.7009155 -0.955902E-05  0.151E-01    3.83       1.0  T
   3    -21.7009106  0.487516E-05  0.349E-02    3.83       1.0  T
   4    -21.7009227 -0.120596E-04  0.665E-03    3.84       4.3  T
   5    -21.7009227 -0.282463E-07  0.205E-03    3.84      14.1  T
   6    -21.7009227 -0.660745E-08  0.725E-04    3.84      39.8  T
   7    -21.7009227 -0.202923E-08  0.295E-04    3.84      98.0  T
     SCC iter.                  ...        0 min,  0.002 sec
     gradient                   ...        0 min,  0.001 sec
 * total energy  :   -21.5102210 Eh     change       -0.2081919E-04 Eh
   gradient norm :     0.0046648 Eh/α   predicted    -0.1702246E-04 ( -18.24%)
   displ. norm   :     0.0078242 α      lambda       -0.1164794E-04
   maximum displ.:     0.0039535 α      in ANC's #2, #10, #9, ...

........................................................................
.............................. CYCLE   46 ..............................
........................................................................
   1    -21.7008781 -0.217009E+02  0.169E-02    3.83       0.0  T
   2    -21.7008783 -0.149087E-06  0.108E-02    3.83       2.7  T
   3    -21.7008782  0.110121E-06  0.651E-03    3.83       4.4  T
   4    -21.7008784 -0.231711E-06  0.742E-04    3.83      38.9  T
   5    -21.7008784 -0.666521E-09  0.351E-04    3.83      82.2  T
     SCC iter.                  ...        0 min,  0.001 sec
     gradient                   ...        0 min,  0.091 sec
 * total energy  :   -21.5102300 Eh     change       -0.9002173E-05 Eh
   gradient norm :     0.0022330 Eh/α   predicted    -0.5824452E-05 ( -35.30%)
   displ. norm   :     0.0328695 α      lambda       -0.1393864E-04
   maximum displ.:     0.0179760 α      in ANC's #7, #8, #3, ...

........................................................................
.............................. CYCLE   47 ..............................
........................................................................
   1    -21.7007333 -0.217007E+02  0.596E-02    3.81       0.0  T
   2    -21.7007340 -0.684637E-06  0.377E-02    3.81       1.0  T
   3    -21.7007329  0.112684E-05  0.136E-02    3.81       2.1  T
   4    -21.7007346 -0.166703E-05  0.225E-03    3.81      12.8  T
   5    -21.7007346 -0.268903E-08  0.788E-04    3.81      36.6  T
   6    -21.7007346 -0.378741E-09  0.130E-04    3.81     222.9  T
     SCC iter.                  ...        0 min,  0.002 sec
     gradient                   ...        0 min,  0.001 sec
 * total energy  :   -21.5102393 Eh     change       -0.9243482E-05 Eh
   gradient norm :     0.0010281 Eh/α   predicted    -0.6977368E-05 ( -24.52%)
   displ. norm   :     0.0586609 α      lambda       -0.7317854E-05
   maximum displ.:     0.0335137 α      in ANC's #7, #8, #3, ...

........................................................................
.............................. CYCLE   48 ..............................
........................................................................
   1    -21.7004371 -0.217004E+02  0.105E-01    3.79       0.0  T
   2    -21.7004387 -0.158290E-05  0.665E-02    3.79       1.0  T
   3    -21.7004388 -0.135481E-06  0.109E-02    3.80       2.7  T
   4    -21.7004399 -0.102577E-05  0.388E-03    3.80       7.4  T
   5    -21.7004399 -0.117943E-07  0.103E-03    3.80      28.1  T
   6    -21.7004399 -0.677616E-09  0.172E-04    3.80     167.6  T
   7    -21.7004399 -0.331113E-10  0.807E-05    3.80     357.8  T
     SCC iter.                  ...        0 min,  0.002 sec
     gradient                   ...        0 min,  0.091 sec
 * total energy  :   -21.5102466 Eh     change       -0.7394204E-05 Eh
   gradient norm :     0.0028684 Eh/α   predicted    -0.3666055E-05 ( -50.42%)
   displ. norm   :     0.0432979 α      lambda       -0.8144048E-05
   maximum displ.:     0.0236390 α      in ANC's #7, #6, #8, ...

........................................................................
.............................. CYCLE   49 ..............................
........................................................................
   1    -21.7005410 -0.217005E+02  0.655E-02    3.79       0.0  T
   2    -21.7005415 -0.500795E-06  0.411E-02    3.80       1.0  T
   3    -21.7005416 -0.155163E-06  0.525E-03    3.79       5.5  T
   4    -21.7005418 -0.188947E-06  0.241E-03    3.80      12.0  T
   5    -21.7005418 -0.572380E-08  0.756E-04    3.80      38.2  T
   6    -21.7005418 -0.431054E-09  0.947E-05    3.80     304.9  T
     SCC iter.                  ...        0 min,  0.002 sec
     gradient                   ...        0 min,  0.001 sec
 * total energy  :   -21.5102530 Eh     change       -0.6373956E-05 Eh
   gradient norm :     0.0019650 Eh/α   predicted    -0.4079220E-05 ( -36.00%)
   displ. norm   :     0.1058665 α      lambda       -0.1120800E-04
   maximum displ.:     0.0599956 α      in ANC's #6, #7, #8, ...

........................................................................
.............................. CYCLE   50 ..............................
........................................................................
   1    -21.7004363 -0.217004E+02  0.146E-01    3.79       0.0  T
   2    -21.7004384 -0.217295E-05  0.910E-02    3.79       1.0  T
   3    -21.7004399 -0.144493E-05  0.754E-03    3.79       3.8  T
   4    -21.7004399 -0.378678E-07  0.481E-03    3.79       6.0  T
   5    -21.7004400 -0.551337E-07  0.169E-03    3.79      17.1  T
   6    -21.7004400 -0.980856E-08  0.232E-04    3.79     124.6  T
   7    -21.7004400 -0.349409E-10  0.669E-05    3.79     431.5  T
     SCC iter.                  ...        0 min,  0.002 sec
     gradient                   ...        0 min,  0.001 sec
 * total energy  :   -21.5102595 Eh     change       -0.6478726E-05 Eh
   gradient norm :     0.0024928 Eh/α   predicted    -0.5633229E-05 ( -13.05%)
   displ. norm   :     0.0198815 α      lambda       -0.9249343E-05
   maximum displ.:     0.0119872 α      in ANC's #8, #6, #7, ...

........................................................................
.............................. CYCLE   51 ..............................
........................................................................
   1    -21.7010211 -0.217010E+02  0.436E-02    3.80       0.0  T
   2    -21.7010215 -0.399541E-06  0.279E-02    3.80       1.0  T
   3    -21.7010217 -0.232944E-06  0.218E-03    3.80      13.2  T
   4    -21.7010217 -0.621930E-08  0.979E-04    3.80      29.5  T
   5    -21.7010217 -0.683418E-09  0.549E-04    3.80      52.6  T
     SCC iter.                  ...        0 min,  0.001 sec
     gradient                   ...        0 min,  0.004 sec
 * total energy  :   -21.5102629 Eh     change       -0.3390771E-05 Eh
   gradient norm :     0.0012582 Eh/α   predicted    -0.4627316E-05 (  36.47%)
   displ. norm   :     0.0254581 α      lambda       -0.4502241E-05
   maximum displ.:     0.0128658 α      in ANC's #6, #2, #8, ...

........................................................................
.............................. CYCLE   52 ..............................
........................................................................
   1    -21.7006447 -0.217006E+02  0.464E-02    3.79       0.0  T
   2    -21.7006452 -0.468324E-06  0.297E-02    3.79       1.0  T
   3    -21.7006446  0.560564E-06  0.103E-02    3.79       2.8  T
   4    -21.7006456 -0.951893E-06  0.188E-03    3.79      15.4  T
   5    -21.7006456 -0.229184E-08  0.472E-04    3.79      61.2  T
   6    -21.7006456 -0.385668E-09  0.120E-04    3.79     241.2  T
     SCC iter.                  ...        0 min,  0.002 sec
     gradient                   ...        0 min,  0.001 sec
 * total energy  :   -21.5102672 Eh     change       -0.4304192E-05 Eh
   gradient norm :     0.0014242 Eh/α   predicted    -0.2251972E-05 ( -47.68%)
   displ. norm   :     0.0478687 α      lambda       -0.4061057E-05
   maximum displ.:     0.0340491 α      in ANC's #6, #8, #5, ...

........................................................................
.............................. CYCLE   53 ..............................
........................................................................
   1    -21.7007476 -0.217007E+02  0.639E-02    3.79       0.0  T
   2    -21.7007480 -0.439560E-06  0.399E-02    3.79       1.0  T
   3    -21.7007484 -0.328706E-06  0.328E-03    3.79       8.8  T
   4    -21.7007484 -0.206710E-08  0.164E-03    3.79      17.6  T
   5    -21.7007484 -0.423727E-08  0.641E-04    3.79      45.0  T
   6    -21.7007484 -0.280369E-08  0.141E-04    3.79     204.2  T
     SCC iter.                  ...        0 min,  0.002 sec
     gradient                   ...        0 min,  0.001 sec
 * total energy  :   -21.5102710 Eh     change       -0.3788458E-05 Eh
   gradient norm :     0.0010758 Eh/α   predicted    -0.2032523E-05 ( -46.35%)
   displ. norm   :     0.0666852 α      lambda       -0.3786011E-05
   maximum displ.:     0.0453811 α      in ANC's #6, #1, #2, ...

........................................................................
.............................. CYCLE   54 ..............................
........................................................................
   1    -21.7004244 -0.217004E+02  0.101E-01    3.78       0.0  T
   2    -21.7004259 -0.146698E-05  0.635E-02    3.78       1.0  T
   3    -21.7004244  0.152194E-05  0.170E-02    3.78       1.7  T
   4    -21.7004271 -0.274558E-05  0.381E-03    3.78       7.6  T
   5    -21.7004271 -0.971839E-08  0.413E-04    3.78      70.0  T
   6    -21.7004271 -0.284981E-09  0.142E-04    3.78     203.0  T
     SCC iter.                  ...        0 min,  0.091 sec
     gradient                   ...        0 min,  0.001 sec
 * total energy  :   -21.5102739 Eh     change       -0.2900819E-05 Eh
   gradient norm :     0.0029036 Eh/α   predicted    -0.1898097E-05 ( -34.57%)
   displ. norm   :     0.0331910 α      lambda       -0.5026088E-05
   maximum displ.:     0.0185577 α      in ANC's #6, #7, #1, ...

........................................................................
.............................. CYCLE   55 ..............................
........................................................................
   1    -21.7008178 -0.217008E+02  0.355E-02    3.79       0.0  T
   2    -21.7008180 -0.149150E-06  0.221E-02    3.79       1.3  T
   3    -21.7008176  0.381663E-06  0.722E-03    3.79       4.0  T
   4    -21.7008181 -0.501657E-06  0.107E-03    3.79      26.9  T
   5    -21.7008181 -0.631058E-09  0.245E-04    3.79     117.8  T
   6    -21.7008181 -0.888214E-10  0.980E-05    3.79     294.5  T
     SCC iter.                  ...        0 min,  0.001 sec
     gradient                   ...        0 min,  0.001 sec
 * total energy  :   -21.5102773 Eh     change       -0.3395665E-05 Eh
   gradient norm :     0.0009169 Eh/α   predicted    -0.2515139E-05 ( -25.93%)
   displ. norm   :     0.0890926 α      lambda       -0.4888418E-05
   maximum displ.:     0.0466045 α      in ANC's #6, #4, #1, ...

   *** GEOMETRY OPTIMIZATION CONVERGED AFTER 55 ITERATIONS ***

------------------------------------------------------------------------
 total energy gain   :        -0.0137125 Eh       -8.6047 kcal/mol
 total RMSD          :         1.6774589 a0        0.8877 Å
 total power (kW/mol):        -0.6545832 (step)  -11.6054 (real)
------------------------------------------------------------------------

 ANCopt (total)                0 d,  0 h,  0 min,  3.102 sec
 optimizer setup                ...        0 min,  0.000 sec (  0.011%)
 model hessian                  ...        0 min,  0.012 sec (  0.392%)
 ANC generation                 ...        0 min,  0.001 sec (  0.043%)
 coordinate transformation      ...        0 min,  0.002 sec (  0.066%)
 single point calculation       ...        0 min,  2.969 sec ( 95.721%)
 optimization log               ...        0 min,  0.005 sec (  0.146%)
 hessian update                 ...        0 min,  0.100 sec (  3.224%)
 rational function              ...        0 min,  0.004 sec (  0.135%)

================
 final structure:
================
12
 xtb: 6.2.3 (830e466)
C         0.66602824779594    1.05534941143131   -2.34601083046070
C        -0.49750018704033    0.65406547695707   -1.44697061088580
C         3.24845699995595    0.13541876128182   -0.67738153371016
O         0.97257400752069    2.42538983622653   -2.29063190340948
O         1.57628674404864    2.73007180994435   -1.02842128519157
O         3.17173138371131    0.52191493228485    0.38037815729078
H         1.65386942361302    3.69111703351478   -1.07430853608919
H         1.56405499272286    0.47019461663849   -2.09382925275862
H         0.42085318569435    0.90895577665712   -3.40125163352563
H        -0.70332222382140   -0.40539426029420   -1.56776440635967
H        -1.38740050835948    1.22345620187783   -1.70428023246019
H        -0.24565206583805    0.85010040348751   -0.40774793243652
 
 Bond Distances (Angstroems)
 ---------------------------
C1-C2=1.5242         C1-O4=1.4050         C1-H8=1.1011         C1-H9=1.0932         C2-C1=1.5242         C2-H10=1.0860        
C2-H11=1.0874        C2-H12=1.0871        C3-O6=1.1288         O4-C1=1.4050         O4-O5=1.4319         O5-O4=1.4319         
O5-H7=0.9653         O6-C3=1.1288         H7-O5=0.9653         H8-C1=1.1011         H9-C1=1.0932         H10-C2=1.0860        
H11-C2=1.0874        H12-C2=1.0871        
 C  H  Rav=1.0910 sigma=0.0057  Rmin=1.0860  Rmax=1.1011     5
 C  C  Rav=1.5242 sigma=0.0000  Rmin=1.5242  Rmax=1.5242     1
 O  H  Rav=0.9653 sigma=0.0000  Rmin=0.9653  Rmax=0.9653     1
 O  C  Rav=1.2669 sigma=0.1381  Rmin=1.1288  Rmax=1.4050     2
 O  O  Rav=1.4319 sigma=0.0000  Rmin=1.4319  Rmax=1.4319     1
 
 selected bond angles (degree)
 --------------------
O4-C1-C2=113.58                H8-C1-C2=110.34                H8-C1-O4=109.34                H9-C1-C2=111.28                
H9-C1-O4=102.57                H9-C1-H8=109.44                H10-C2-C1=109.63               H11-C2-C1=110.32               
H11-C2-H10=109.23              H12-C2-C1=109.85               H12-C2-H10=109.04              H12-C2-H11=108.75              
O5-O4-C1=109.52                H7-O5-O4=101.76                
 
 selected dihedral angles (degree)
 ---------------------------------
H10-C2-C1-O4=177.84           H10-C2-C1-H8=301.02           H10-C2-C1-H9= 62.71           H11-C2-C1-O4= 57.51           
H11-C2-C1-H8=180.69           H11-C2-C1-H9=302.37           H12-C2-C1-O4=297.64           H12-C2-C1-H8= 60.82           
H12-C2-C1-H9=182.50           O5-O4-C1-C2= 71.38            O5-O4-C1-H8=307.66            O5-O4-C1-H9=191.58            
H7-O5-O4-C1=185.55            
 
 CMA Distance (Angstroems)
 ---------------------------
R(CMA):  3.3238
           -------------------------------------------------
          |                Final Singlepoint                |
           -------------------------------------------------

          ...................................................
          :                      SETUP                      :
          :.................................................:
          :  # basis functions                  30          :
          :  # atomic orbitals                  30          :
          :  # shells                           18          :
          :  # electrons                        36          :
          :  max. iterations                   100          :
          :  Hamiltonian                  GFN2-xTB          :
          :  restarted?                      false          :
          :  GBSA solvation                  false          :
          :  PC potential                    false          :
          :  electronic temp.          300.0000000     K    :
          :  accuracy                    1.0000000          :
          :  -> integral cutoff          0.2500000E+02      :
          :  -> integral neglect         0.1000000E-07      :
          :  -> SCF convergence          0.1000000E-05 Eh   :
          :  -> wf. convergence          0.1000000E-03 e    :
          :  Broyden damping             0.4000000          :
          ...................................................

 iter      E             dE          RMSdq      gap      omega  full diag
   1    -21.7008181 -0.217008E+02  0.190E-05    3.79       0.0  T
   2    -21.7008181 -0.170530E-12  0.117E-05    3.79    2476.6  T
   3    -21.7008181 -0.284217E-13  0.318E-06    3.79    9076.1  T

   *** convergence criteria satisfied after 3 iterations ***

         #    Occupation            Energy/Eh            Energy/eV
      -------------------------------------------------------------
         1        2.0000           -0.7819749             -21.2786
       ...           ...                  ...                  ...
        12        2.0000           -0.5168181             -14.0633
        13        2.0000           -0.5019573             -13.6590
        14        2.0000           -0.4813054             -13.0970
        15        2.0000           -0.4696940             -12.7810
        16        2.0000           -0.4629836             -12.5984
        17        2.0000           -0.4440579             -12.0834
        18        2.0000           -0.4076442             -11.0926 (HOMO)
        19                         -0.2684520              -7.3050 (LUMO)
        20                         -0.2667687              -7.2591
        21                         -0.1519750              -4.1354
        22                          0.0686398               1.8678
        23                          0.1144420               3.1141
       ...                                ...                  ...
        30                          0.8161859              22.2095
      -------------------------------------------------------------
                  HL-Gap            0.1391921 Eh            3.7876 eV
             Fermi-level           -0.3380481 Eh           -9.1988 eV

 SCC (total)                   0 d,  0 h,  0 min,  0.092 sec
 SCC setup                      ...        0 min,  0.000 sec (  0.099%)
 Dispersion                     ...        0 min,  0.000 sec (  0.042%)
 integral evaluation            ...        0 min,  0.090 sec ( 97.487%)
 zeroth order Hamiltonian       ...        0 min,  0.000 sec (  0.068%)
 iterations                     ...        0 min,  0.001 sec (  0.834%)
 molecular gradient             ...        0 min,  0.001 sec (  1.046%)
 printout                       ...        0 min,  0.000 sec (  0.209%)

         :::::::::::::::::::::::::::::::::::::::::::::::::::::
         ::                     SUMMARY                     ::
         :::::::::::::::::::::::::::::::::::::::::::::::::::::
         :: total energy             -21.510277275050 Eh    ::
         :: gradient norm              0.000916805897 Eh/a0 ::
         :: HOMO-LUMO gap              3.787610712491 eV    ::
         ::.................................................::
         :: SCC energy               -21.700818081913 Eh    ::
         :: -> isotropic ES            0.027467070260 Eh    ::
         :: -> anisotropic ES         -0.007089692798 Eh    ::
         :: -> anisotropic XC         -0.002137819727 Eh    ::
         :: -> dispersion             -0.005686931265 Eh    ::
         :: repulsion energy           0.190525442218 Eh    ::
         :: add. restraining           0.000000000000 Eh    ::
         :::::::::::::::::::::::::::::::::::::::::::::::::::::

           -------------------------------------------------
          |                Property Printout                |
           -------------------------------------------------

    * Orbital Energies and Occupations

         #    Occupation            Energy/Eh            Energy/eV
      -------------------------------------------------------------
         1        2.0000           -0.7819749             -21.2786
       ...           ...                  ...                  ...
         6        2.0000           -0.6095049             -16.5855
         7        2.0000           -0.6029329             -16.4066
         8        2.0000           -0.5994653             -16.3123
         9        2.0000           -0.5971082             -16.2481
        10        2.0000           -0.5677468             -15.4492
        11        2.0000           -0.5472227             -14.8907
        12        2.0000           -0.5168181             -14.0633
        13        2.0000           -0.5019573             -13.6590
        14        2.0000           -0.4813054             -13.0970
        15        2.0000           -0.4696940             -12.7810
        16        2.0000           -0.4629836             -12.5984
        17        2.0000           -0.4440579             -12.0834
        18        2.0000           -0.4076442             -11.0926 (HOMO)
        19                         -0.2684520              -7.3050 (LUMO)
        20                         -0.2667687              -7.2591
        21                         -0.1519750              -4.1354
        22                          0.0686398               1.8678
        23                          0.1144420               3.1141
        24                          0.1348492               3.6694
        25                          0.1616202               4.3979
        26                          0.1723048               4.6887
        27                          0.1891414               5.1468
        28                          0.2443139               6.6481
        29                          0.2793341               7.6011
        30                          0.8161859              22.2095
      -------------------------------------------------------------
                  HL-Gap            0.1391921 Eh            3.7876 eV
             Fermi-level           -0.3380481 Eh           -9.1988 eV

     #   Z        covCN         q      C6AA      α(0)
     1   6 C      3.675     0.083    19.414     6.313
     2   6 C      3.750    -0.116    22.792     6.809
     3   6 C      0.856     0.044    33.797     9.701
     4   8 O      1.774    -0.214    17.534     5.654
     5   8 O      1.731    -0.332    19.558     5.971
     6   8 O      0.856    -0.056    15.879     5.343
     7   1 H      0.805     0.319     0.667     1.283
     8   1 H      0.923     0.057     2.239     2.340
     9   1 H      0.924     0.064     2.156     2.296
    10   1 H      0.925     0.042     2.417     2.431
    11   1 H      0.925     0.052     2.293     2.368
    12   1 H      0.925     0.057     2.231     2.336

 Mol. C6AA /au·bohr⁶  :       1281.758088
 Mol. C8AA /au·bohr⁸  :      27438.046472
 Mol. α(0) /au        :         52.845362


Wiberg/Mayer (AO) data.
largest (>0.10) Wiberg bond orders for each atom
          total WBO             WBO to atom ...
     1  C   3.938        C    2 1.011    O    4 0.989    H    9 0.954    H    8 0.943
     2  C   3.994        C    1 1.011    H   11 0.986    H   10 0.985    H   12 0.985
     3  C   2.638        O    6 2.591
     4  O   2.014        C    1 0.989    O    5 0.969
     5  O   1.906        O    4 0.969    H    7 0.892
     6  O   2.606        C    3 2.591
     7  H   0.898        O    5 0.892
     8  H   0.997        C    1 0.943
     9  H   0.996        C    1 0.954
    10  H   0.998        C    2 0.985
    11  H   0.997        C    2 0.986
    12  H   0.997        C    2 0.985

molecular dipole:
                 x           y           z       tot (Debye)
 q only:       -0.239      -0.151      -0.196
   full:       -0.250       0.092       0.101       0.725
molecular quadrupole (traceless):
                xx          xy          yy          xz          yz          zz
 q only:       -2.050       0.072       2.251      -0.165       2.087      -0.200
  q+dip:       -2.278       1.196       4.225       2.533       1.497      -1.947
   full:       -2.058       1.697       4.946       2.914       0.981      -2.888

           -------------------------------------------------
          |                Geometry Summary                 |
           -------------------------------------------------

      molecular mass/u    :       90.0780670
   center of mass at/Å    :        1.4862588       1.3297842      -1.2327082
  moments of inertia/u·Å² :        0.1116573E+03   0.2569223E+03   0.3115204E+03
rotational constants/cm⁻¹ :        0.1509765E+00   0.6561373E-01   0.5411406E-01

 * 10 selected distances

     #   Z        #   Z                                     value/Å
     1   6 C      2   6 C                                 1.5241721 (max)
     1   6 C      4   8 O                                 1.4050081
     4   8 O      5   8 O                                 1.4319483
     3   6 C      6   8 O                                 1.1287700
     5   8 O      7   1 H                                 0.9652630 (min)
     1   6 C      8   1 H                                 1.1011148
     1   6 C      9   1 H                                 1.0931949
     2   6 C     10   1 H                                 1.0860059
     2   6 C     11   1 H                                 1.0873530
     2   6 C     12   1 H                                 1.0871251

 * 5 distinct bonds (by element types)

   Z      Z             #   av. dist./Å        max./Å        min./Å
   1 H    6 C           5     1.0909587     1.1011148     1.0860059
   6 C    6 C           1     1.5241721     1.5241721     1.5241721
   1 H    8 O           1     0.9652630     0.9652630     0.9652630
   6 C    8 O           2     1.2668891     1.4050081     1.1287700
   8 O    8 O           1     1.4319483     1.4319483     1.4319483


optimized geometry written to: xtbopt.xyz


           -------------------------------------------------
          | TOTAL ENERGY              -21.510277275050 Eh   |
          | GRADIENT NORM               0.000916805897 Eh/α |
          | HOMO-LUMO GAP               3.787610712491 eV   |
           -------------------------------------------------

------------------------------------------------------------------------
 * finished run on 2020/12/23 at 21:41:20.967     
------------------------------------------------------------------------
 total:
 * wall-time:     0 d,  0 h,  0 min,  3.472 sec
 *  cpu-time:     0 d,  0 h,  0 min, 14.269 sec
 * ratio c/w:     4.110 speedup
 SCF:
 * wall-time:     0 d,  0 h,  0 min,  0.095 sec
 *  cpu-time:     0 d,  0 h,  0 min,  0.306 sec
 * ratio c/w:     3.220 speedup
 ANC optimizer:
 * wall-time:     0 d,  0 h,  0 min,  3.199 sec
 *  cpu-time:     0 d,  0 h,  0 min, 12.793 sec
 * ratio c/w:     3.999 speedup

