12
 energy: -21.552424906980 gnorm: 0.122610142562 xtb: 6.2.3 (830e466)
C         1.25746000000000    1.14421000000000   -1.35314000000000
C        -0.22694000000000    0.77248000000000   -1.33468000000000
C         2.08446000000000   -0.09179000000000   -1.55507000000000
O         1.52491000000000    2.03459000000000   -2.41117000000000
O         1.15131000000000    3.23525000000000   -2.00508000000000
O         2.90009000000000   -0.43776000000000   -0.71505000000000
H         1.99851000000000    3.72766000000000   -1.85378000000000
H         1.54161000000000    1.59549000000000   -0.37176000000000
H        -0.52469000000000    0.30936000000000   -2.30012000000000
H         1.96057000000000   -0.68594000000000   -2.45523000000000
H        -0.43273000000000    0.05619000000000   -0.51049000000000
H        -0.84555000000000    1.67987000000000   -1.17023000000000
12
 energy: -21.561727568053 gnorm: 0.043982765737 xtb: 6.2.3 (830e466)
C         1.25136954711244    1.12666546270862   -1.34748795775977
C        -0.23294866283579    0.75812626828120   -1.32365970736107
C         2.09764767189394   -0.10613902867705   -1.53808209899523
O         1.54067210464948    2.02580889234275   -2.40646585976442
O         1.15467696721220    3.29497789076754   -2.04215910092111
O         2.89235416076118   -0.47850953619436   -0.71262061874354
H         1.98686727450158    3.77579865802490   -1.85058994816368
H         1.53727855421865    1.58842245845703   -0.38509829374348
H        -0.51913319249197    0.30840562991960   -2.27684393830514
H         1.95279015614235   -0.67198021865227   -2.46437932090003
H        -0.44328364708775    0.05644124515466   -0.51369391206307
H        -0.82928093407631    1.66159227786739   -1.17471924327945
12
 energy: -21.563589208670 gnorm: 0.009009745189 xtb: 6.2.3 (830e466)
C         1.24979778458167    1.12482726368336   -1.32005821805159
C        -0.23313108304308    0.74918382900188   -1.31762730120777
C         2.09877371364095   -0.11271305499380   -1.52427375650265
O         1.56356328030904    2.01116221068920   -2.38953849967609
O         1.15458016073107    3.32068886813388   -2.07468860213223
O         2.87459027532846   -0.52801784078991   -0.71248482018301
H         1.97387633032833    3.80164180081043   -1.87960599785716
H         1.53079742126719    1.59157721187509   -0.36490993638752
H        -0.50344805604553    0.30062153267599   -2.26865838370988
H         1.94293563647890   -0.62294461717828   -2.49385626742967
H        -0.44139186553421    0.05313353962435   -0.51312827557195
H        -0.82193359804279    1.65044925646780   -1.17696994129048
12
 energy: -21.563898156176 gnorm: 0.010276905399 xtb: 6.2.3 (830e466)
C         1.25609224664613    1.12699710783403   -1.30783162422214
C        -0.22674629005952    0.74950987273579   -1.31226149181059
C         2.10296198068057   -0.11346639207379   -1.52476300346123
O         1.58287089594369    2.00654824219272   -2.37920012795339
O         1.14472959996341    3.32264678021687   -2.08993025468665
O         2.84860242716265   -0.57188373465305   -0.70657242474120
H         1.95474255803211    3.81739518020999   -1.90074969622891
H         1.53049103071867    1.59260748409451   -0.35159068959747
H        -0.48665627388625    0.29574196776813   -2.26416892682064
H         1.94109766128138   -0.59088136485723   -2.51281440240120
H        -0.43861052375731    0.05493268855016   -0.50595404299978
H        -0.82056531272553    1.64946216798186   -1.17996331507680
12
 energy: -21.564140059627 gnorm: 0.014201180239 xtb: 6.2.3 (830e466)
C         1.26406577792345    1.12729602821612   -1.29184422139108
C        -0.21954520318354    0.75294525600519   -1.30463692071128
C         2.09603511089362   -0.12417511807082   -1.51993015217726
O         1.60642533200117    1.99774448523390   -2.36352486264923
O         1.12860767444380    3.31477357659838   -2.10462480528830
O         2.81101634802642   -0.62572605356249   -0.70079458215332
H         1.92811502834885    3.83223485318619   -1.93452586783707
H         1.53420925848932    1.59023207029296   -0.33365192305968
H        -0.47179197903061    0.28951323358952   -2.25544924973697
H         1.96715643471314   -0.53485086527777   -2.54831409190917
H        -0.43945869098111    0.06456644644653   -0.49244496717615
H        -0.81582509164451    1.65505608734230   -1.18605835591049
12
 energy: -21.564460133284 gnorm: 0.014601755742 xtb: 6.2.3 (830e466)
C         1.27535381350301    1.12917555871081   -1.28490363772567
C        -0.20882052017405    0.75682382385445   -1.30210028991806
C         2.09870212267256   -0.12635559142770   -1.52512648214641
O         1.62176114818267    1.99964073044868   -2.34989263023724
O         1.10863421504524    3.30523023504471   -2.10290391633919
O         2.76696341043617   -0.67324437049741   -0.69290380168133
H         1.90002569278425    3.84829509462098   -1.96587986822182
H         1.54493183375564    1.58498257060188   -0.32264146381125
H        -0.45991172851771    0.28540882452680   -2.25064009523178
H         1.98208175623107   -0.50458286021899   -2.56130852902576
H        -0.43386709946194    0.07397142451472   -0.48481764242178
H        -0.80684464445691    1.66026455982107   -1.19268164323971
12
 energy: -21.564834818398 gnorm: 0.010288121268 xtb: 6.2.3 (830e466)
C         1.28609931278437    1.12757201382375   -1.27968126534692
C        -0.20008266021555    0.76250005272912   -1.29900127808289
C         2.09613629760840   -0.13311029404842   -1.52943333366554
O         1.63198348756524    2.00477062475389   -2.33160731119025
O         1.08641532955914    3.28933722734561   -2.08782025104933
O         2.71627068209280   -0.71407178548507   -0.69075228488092
H         1.87147280442083    3.86089911810096   -2.01183868104303
H         1.55858832072559    1.57038011589288   -0.31089938218077
H        -0.45235464962881    0.28478969104166   -2.24467246281365
H         2.02085785431148   -0.47226534542578   -2.57255393008016
H        -0.43355122501572    0.08783702465812   -0.47717408420692
H        -0.79282555420777    1.67097155661329   -1.20036573545961
12
 energy: -21.564806421856 gnorm: 0.031538186100 xtb: 6.2.3 (830e466)
C         1.30275879300090    1.12587337511007   -1.26866893632111
C        -0.18673114002331    0.77027635862754   -1.29075952208764
C         2.09148669686476   -0.14522138048527   -1.53156581514523
O         1.65541668044671    2.00931125234011   -2.30835468286623
O         1.05253969958660    3.27534314300440   -2.09024903834943
O         2.62760008687526   -0.80292712012443   -0.67237973682174
H         1.81831569144913    3.88623656790584   -2.07504276619136
H         1.57567143066593    1.55197404397790   -0.29178932297424
H        -0.44104350486410    0.28300644032459   -2.23004950118014
H         2.08882982313549   -0.40819072743227   -2.61096699862090
H        -0.42607411648186    0.10901339532292   -0.46188093966018
H        -0.76976014065553    1.68491465142860   -1.20409273978180
12
 energy: -21.565216071760 gnorm: 0.005735524560 xtb: 6.2.3 (830e466)
C         1.29824569430076    1.12419519118101   -1.27433563337061
C        -0.19233979177626    0.77026695414131   -1.29314983460551
C         2.09202484761365   -0.14312250719874   -1.53049149090940
O         1.65046473088419    2.00982743079765   -2.31696840603191
O         1.06015655067634    3.28100175500277   -2.09814712603554
O         2.65158090897784   -0.77463556702197   -0.68234952774223
H         1.82377580024023    3.87253068841209   -2.04565040730112
H         1.57260481789565    1.55284984686691   -0.29949318307179
H        -0.44919972385116    0.28836857608467   -2.23310899379878
H         2.08082986554035   -0.43464179137418   -2.59465147804846
H        -0.42829747595984    0.10732304212508   -0.46704894901869
H        -0.77083622454177    1.68564638098340   -1.20040497006597
12
 energy: -21.565367812080 gnorm: 0.004872293519 xtb: 6.2.3 (830e466)
C         1.30612548193159    1.12118563552756   -1.26900256008549
C        -0.18759364092069    0.77464301035604   -1.29002716188045
C         2.09143866086687   -0.14832593495868   -1.53187617959431
O         1.66116691920619    2.01241354791464   -2.30667616566058
O         1.04568126591185    3.27590158356336   -2.10037015876858
O         2.61978157707704   -0.80559637796162   -0.68326994811983
H         1.79622727085811    3.88561328594624   -2.06830127471981
H         1.58116607331726    1.54246462658980   -0.29108384010012
H        -0.44394397656634    0.29307945816666   -2.23014371170711
H         2.10729690183772   -0.42160777039172   -2.60039930829572
H        -0.42872555701366    0.11521791346259   -0.46295058821309
H        -0.75961097650593    1.69462102178515   -1.20169910285493
12
 energy: -21.565461618371 gnorm: 0.021578883050 xtb: 6.2.3 (830e466)
C         1.32410454797144    1.11633222842946   -1.25479092571079
C        -0.17527897183546    0.78362897028021   -1.28054577755595
C         2.08792538334230   -0.15752845609315   -1.53563310853368
O         1.68438784760933    2.02118818784501   -2.27978812761323
O         1.01528241506341    3.26282418709765   -2.10042256630638
O         2.52057769602443   -0.89106916455643   -0.68326117877410
H         1.73574734892010    3.91365687395076   -2.13868168007263
H         1.60101131957463    1.51896162566619   -0.26951794227825
H        -0.43111494486378    0.29769645925564   -2.21891109562387
H         2.18808794529411   -0.37093104882803   -2.62206556320915
H        -0.42594068332325    0.13320062832967   -0.44932063041979
H        -0.73577990377729    1.71164950862304   -1.20286140390221
12
 energy: -21.565594880416 gnorm: 0.003941955837 xtb: 6.2.3 (830e466)
C         1.31834056885619    1.11770700886774   -1.25758312810086
C        -0.17899979197911    0.78040972235314   -1.28353069277298
C         2.08890240376516   -0.15352766989447   -1.53394274828672
O         1.67580238993954    2.01986708714670   -2.28670704488570
O         1.02768137919759    3.26755242278312   -2.09671236432620
O         2.54964588920601   -0.86313695967886   -0.68885127378419
H         1.75594434766917    3.90683886798272   -2.12267240799945
H         1.59431128345120    1.52634175219746   -0.27501874379351
H        -0.43354700911677    0.29755265481673   -2.22417749823561
H         2.16306125676165   -0.38940773876877   -2.60992776997341
H        -0.42741111689625    0.12443558328800   -0.45529887147712
H        -0.74472160085440    1.70497726890651   -1.20137745636427
12
 energy: -21.565661339067 gnorm: 0.004278940126 xtb: 6.2.3 (830e466)
C         1.32178087535421    1.11844239160426   -1.25554244719821
C        -0.17555415915187    0.78177286132083   -1.28139169765066
C         2.08789668970622   -0.15422534298846   -1.53413145979084
O         1.68218989322189    2.02158422591468   -2.28275582420360
O         1.02291989276686    3.26557358451435   -2.09952463932757
O         2.52320651357409   -0.88237382903396   -0.68995144356317
H         1.74398110984057    3.90823969141828   -2.13476301009910
H         1.59718371039237    1.52498178266087   -0.27220826300676
H        -0.43115406596693    0.29813572509572   -2.22120163352518
H         2.18070837739526   -0.37477414488088   -2.61275166718265
H        -0.42321641231048    0.12608754529076   -0.45283196115307
H        -0.74093242482220    1.70616550908355   -1.19874595329919
12
 energy: -21.565637620022 gnorm: 0.020172769538 xtb: 6.2.3 (830e466)
C         1.33497092587094    1.11842357529804   -1.24203546642415
C        -0.16341118916023    0.78651672203394   -1.27311253843492
C         2.08442311465274   -0.15950497709208   -1.53321016990693
O         1.70369075214763    2.02756264086644   -2.26008049730143
O         1.00580567982741    3.25605971895841   -2.09626325288645
O         2.42407735291028   -0.95720062626850   -0.69779558427386
H         1.70177242529851    3.92622328325046   -2.20736479183001
H         1.60755443459444    1.51525538619314   -0.25440893118333
H        -0.41964767666362    0.30548872883114   -2.21414779268429
H         2.25052780813726   -0.31766646652923   -2.62233164724829
H        -0.41259607603622    0.12761517038630   -0.44717043702099
H        -0.72815755157915    1.71083684407196   -1.18787889080534
12
 energy: -21.565778862837 gnorm: 0.002770519813 xtb: 6.2.3 (830e466)
C         1.32696241616398    1.11960218789324   -1.24941877582087
C        -0.16989335260846    0.78321564004603   -1.27709777839242
C         2.08635477310889   -0.15583657084570   -1.53251075105637
O         1.69154352807310    2.02383135927717   -2.27314835761450
O         1.01788944034627    3.26184908487004   -2.09761755133314
O         2.46989279190006   -0.91847823734529   -0.69538792988900
H         1.72733407954757    3.91304765979805   -2.17237663075737
H         1.60006295914847    1.52368338180241   -0.26466129117690
H        -0.42663454107065    0.30360996352346   -2.21863915640280
H         2.21805490209126   -0.34288896204793   -2.61486807866956
H        -0.41527671247222    0.12213507446134   -0.45178282949345
H        -0.73728028422829    1.70583941856721   -1.18829086939363
12
 energy: -21.565818409013 gnorm: 0.003028655188 xtb: 6.2.3 (830e466)
C         1.32851843284560    1.12052089403904   -1.24792904306995
C        -0.16812125992342    0.78300848186322   -1.27569199646854
C         2.08639697573898   -0.15576016235383   -1.53209774954480
O         1.69269302874558    2.02575179282788   -2.27026288987994
O         1.01724220671900    3.26213195571345   -2.09465293042518
O         2.44895298884600   -0.93145957503463   -0.69680251670613
H         1.72363995651828    3.91525612439932   -2.18897203329428
H         1.60100415666376    1.52365538690071   -0.26248699182078
H        -0.42545501192305    0.30726204825055   -2.21906348625026
H         2.23214600546387   -0.33285423211873   -2.61292540902366
H        -0.41133637432355    0.11769226486780   -0.45312620905726
H        -0.73667110537107    1.70440502064523   -1.18178874445920
12
 energy: -21.565753294684 gnorm: 0.017014036038 xtb: 6.2.3 (830e466)
C         1.33350053424498    1.12133543195985   -1.23898113031720
C        -0.16381690113889    0.78389489262124   -1.26625406673172
C         2.08576024535829   -0.15815220772033   -1.52805382395619
O         1.70080284078691    2.02779374216075   -2.25594133275203
O         1.01492188597110    3.25947657305412   -2.08426671378719
O         2.34735322375900   -0.99281713596613   -0.70451051529238
H         1.70569861018822    3.91984015744062   -2.27162327865536
H         1.60341775252238    1.52109550424929   -0.25102385420499
H        -0.42623931687801    0.32865220903997   -2.21862083294111
H         2.32120370275693   -0.27191486519402   -2.61293636257890
H        -0.39870549249350    0.09865503913399   -0.45677949687015
H        -0.73488708507742    1.70175065922066   -1.14680859191279
12
 energy: -21.565898585014 gnorm: 0.002106148541 xtb: 6.2.3 (830e466)
C         1.33005799486556    1.12132829584333   -1.24524075700072
C        -0.16684100452999    0.78311228494100   -1.27182947016408
C         2.08695365720924   -0.15666608805067   -1.52937095329838
O         1.69506878670470    2.02567192984568   -2.26633318187538
O         1.01771423937540    3.26265198284370   -2.09025748089881
O         2.40454745413178   -0.95661056199202   -0.70029294013326
H         1.71761130805908    3.91649755025596   -2.22542703811541
H         1.60151309476381    1.52438597567045   -0.25913584811880
H        -0.42780828323323    0.32196863085193   -2.22148820231296
H         2.27170740853206   -0.30844905376303   -2.60780008469189
H        -0.40435604311422    0.10393158205410   -0.45865111072002
H        -0.73715861276421    1.70178747149959   -1.15997293267029
12
 energy: -21.565927506135 gnorm: 0.002460084109 xtb: 6.2.3 (830e466)
C         1.32959220190686    1.12142125710312   -1.24551024562977
C        -0.16747262391274    0.78295807793636   -1.27007272650381
C         2.08719146159208   -0.15629575178714   -1.52878108959716
O         1.69337138759228    2.02589281649577   -2.26645923150391
O         1.01938014574430    3.26372539847079   -2.08758121182810
O         2.38724964508578   -0.96465996725223   -0.70073965201077
H         1.71788928973867    3.91520124575818   -2.23842838217800
H         1.60142485273206    1.52450812740821   -0.25943001765068
H        -0.43046146762010    0.32768899766369   -2.22204151307521
H         2.29062635166673   -0.29974073668706   -2.60562842377246
H        -0.40175834916985    0.09830741030944   -0.46053614971701
H        -0.73802289535611    1.70060312458088   -1.15059135653314
12
 energy: -21.565878122072 gnorm: 0.016586166047 xtb: 6.2.3 (830e466)
C         1.32864244961851    1.12058719884515   -1.24461411300927
C        -0.16986338375873    0.78309729472278   -1.26073762589452
C         2.08854599348905   -0.15669718242587   -1.52394440463475
O         1.68969927075549    2.02465022273807   -2.26466878887723
O         1.02588295575928    3.26861345055280   -2.07140893397404
O         2.29258573515494   -1.01328439128747   -0.70642592426656
H         1.71266310621550    3.91515469047573   -2.31720498597923
H         1.60225696429390    1.52382437980458   -0.25878309464160
H        -0.44456951978848    0.36386841648371   -2.22691615128724
H         2.39369576673801   -0.25112949139797   -2.58980563489481
H        -0.38970665567315    0.06587422497922   -0.47419103449264
H        -0.74082268280433    1.69505118650928   -1.09709930804812
12
 energy: -21.565993620472 gnorm: 0.002558617814 xtb: 6.2.3 (830e466)
C         1.32704503929243    1.12072048042263   -1.24743118958234
C        -0.17061774732454    0.78272705882612   -1.26592937197233
C         2.08798249255014   -0.15585136003187   -1.52641015452267
O         1.68815340843835    2.02390526777373   -2.26963458497082
O         1.02536389756682    3.26720889363237   -2.08029070429531
O         2.34965994099160   -0.98104480531351   -0.70239393570397
H         1.72048857866266    3.91193879609959   -2.26843173960733
H         1.60068809852190    1.52551833015300   -0.26238751847801
H        -0.44036462765473    0.34545573554743   -2.22438870881117
H         2.33866453902575   -0.28029567236904   -2.59664669391470
H        -0.39689391027458    0.08214233321435   -0.46783066682011
H        -0.74115970979582    1.69718494204523   -1.12402473132124
12
 energy: -21.566011905920 gnorm: 0.002562844049 xtb: 6.2.3 (830e466)
C         1.32389298086695    1.11862018833240   -1.24905656991283
C        -0.17396658825246    0.78217421892001   -1.26451582991228
C         2.08436571565910   -0.15784045932742   -1.52835978075357
O         1.68259006441735    2.02106253685024   -2.27315755827031
O         1.03036133566547    3.26959581498078   -2.07265023986947
O         2.35147113870491   -0.98149445968289   -0.70411712052721
H         1.72510443116674    3.91096002030352   -2.27431755410282
H         1.60011560197820    1.52409127660813   -0.26501570515927
H        -0.44526764542235    0.34329577181636   -2.22174730133856
H         2.35341667477289   -0.27188404678776   -2.59412015431966
H        -0.40002859031416    0.08347565359712   -0.46480403532124
H        -0.74304511924266    1.69755348438953   -1.12393815051280
12
 energy: -21.566042372877 gnorm: 0.001765791286 xtb: 6.2.3 (830e466)
C         1.32111480660417    1.11688048241746   -1.25080091088770
C        -0.17668621814119    0.78038977404004   -1.26362848893772
C         2.08839068061669   -0.15548931109279   -1.52865633966698
O         1.67635053651860    2.01936841031347   -2.27653642046906
O         1.03741737205115    3.27405290613777   -2.06005626880278
O         2.34961341514068   -0.98346969261410   -0.70640752439536
H         1.73026327302641    3.91124045587099   -2.28330158300856
H         1.59812887857789    1.52415426526345   -0.26782562453462
H        -0.44885073820091    0.33864951037256   -2.21924275538109
H         2.36111275083969   -0.26654673190670   -2.59216155189725
H        -0.40237612227276    0.08423337539753   -0.46169439174778
H        -0.74546863476041    1.69614655580035   -1.12548814027111
12
 energy: -21.566068573433 gnorm: 0.005497110610 xtb: 6.2.3 (830e466)
C         1.31429119736060    1.11398208643417   -1.25401825725539
C        -0.18277123195955    0.77510146247199   -1.26046100940800
C         2.09430921539533   -0.15090012722483   -1.53073764425872
O         1.66271882703369    2.01804667697239   -2.28123158192587
O         1.05532625652179    3.28482079649707   -2.02997822115457
O         2.33685737494740   -0.99067066192436   -0.71400841297163
H         1.74217477057019    3.90979643949966   -2.31056309489937
H         1.59237946044995    1.52637856457021   -0.27363384954605
H        -0.45760115997855    0.32621366137935   -2.21206947437983
H         2.38836289224492   -0.24961100569457   -2.58925562691511
H        -0.40612252442582    0.08458131435849   -0.45299254049462
H        -0.75091507815996    1.69187079266043   -1.12685028679085
12
 energy: -21.566090095957 gnorm: 0.003216552307 xtb: 6.2.3 (830e466)
C         1.31408696788348    1.11428409764732   -1.25438387356317
C        -0.18279283591957    0.77459870094442   -1.25957740328794
C         2.09427323890760   -0.15058128722318   -1.53118271343443
O         1.66300695585092    2.01932484903668   -2.28039339430296
O         1.05725036276742    3.28531334312031   -2.02914961743694
O         2.32890371409943   -0.99439170838334   -0.71647999778437
H         1.74109834892209    3.90897169386984   -2.31435893815356
H         1.59193282887647    1.52717056510279   -0.27415456850701
H        -0.45856945173986    0.32436782114313   -2.21026747174823
H         2.39593195635135   -0.24531202969022   -2.58883986436547
H        -0.40464639505033    0.08471918406954   -0.45111789186100
H        -0.75146569094902    1.69114477036273   -1.12589426555493
12
 energy: -21.566125737851 gnorm: 0.002484726437 xtb: 6.2.3 (830e466)
C         1.31184576456542    1.11399442037178   -1.25552275096641
C        -0.18456208485288    0.77240265335618   -1.25567152530449
C         2.09299586730815   -0.15004553456698   -1.53315009692204
O         1.65827850834270    2.02190303139623   -2.27962989441193
O         1.06818937469476    3.29032806924968   -2.01529917458903
O         2.29979852316780   -1.00946748064174   -0.72697269814554
H         1.73974536411505    3.90655435211192   -2.33951324278017
H         1.59110121656777    1.52778690459071   -0.27595571025996
H        -0.46326179580464    0.31752957190988   -2.20323941194320
H         2.43115275218268   -0.22409525834604   -2.58444703565557
H        -0.40109398875685    0.08469428695294   -0.44390368065500
H        -0.75517950152998    1.68802498361545   -1.12249477836667
12
 energy: -21.566142925787 gnorm: 0.003091700782 xtb: 6.2.3 (830e466)
C         1.31084902925695    1.11374172632591   -1.25610944044898
C        -0.18536594475657    0.77117685138711   -1.25297713108289
C         2.09260454080932   -0.14959852950389   -1.53402637901836
O         1.65494933404733    2.02303638944656   -2.27964133076592
O         1.07575824931738    3.29392091334117   -2.00441334017587
O         2.27915783599133   -1.02020832150228   -0.73491620438445
H         1.73649465619901    3.90567383934797   -2.35874697128354
H         1.59172668277339    1.52757954023923   -0.27687189184071
H        -0.46530341059079    0.31485889116671   -2.19943515475691
H         2.45417182937213   -0.21031122792349   -2.57896666138618
H        -0.39895695177396    0.08368303298327   -0.44026812323076
H        -0.75707585064551    1.68605689469176   -1.11942737162543
12
 energy: -21.566173014933 gnorm: 0.002699199164 xtb: 6.2.3 (830e466)
C         1.31056675540681    1.11330952634461   -1.25664492008614
C        -0.18574259493985    0.77067912245050   -1.24892814861126
C         2.09223418337206   -0.14961686535994   -1.53470895193110
O         1.65155115772684    2.02381862655434   -2.27970771487308
O         1.08588527559878    3.29801757426410   -1.99011073282295
O         2.24608523466848   -1.03769381130600   -0.74823527824097
H         1.72579102502447    3.90476435755871   -2.38819492769027
H         1.59468044831821    1.52640294429976   -0.27771608757337
H        -0.46746117068308    0.31567402413625   -2.19542999107775
H         2.48925274721900   -0.19087035349508   -2.56681952990250
H        -0.39532164525717    0.08086908390621   -0.43725476359509
H        -0.75851141645456    1.68425577064654   -1.11204895359554
12
 energy: -21.566201379871 gnorm: 0.002246031434 xtb: 6.2.3 (830e466)
C         1.31036281795353    1.11178901099733   -1.25700553533043
C        -0.18655510364030    0.77173682011765   -1.24523539339104
C         2.09358256653544   -0.15024111537534   -1.53500764022456
O         1.65028582548273    2.02288262177168   -2.27931437743998
O         1.09397457952100    3.29997408374085   -1.97936330241893
O         2.21732277662932   -1.05413115486963   -0.76122819296300
H         1.71168984711108    3.90345317448072   -2.41565744779924
H         1.59727465933056    1.52408792264310   -0.27840652870560
H        -0.47167484673867    0.32215641380516   -2.19338886155562
H         2.52422358004426   -0.17421879655222   -2.55313539354053
H        -0.39338972316779    0.07730247634861   -0.43688896711900
H        -0.75808697906116    1.68481854289210   -1.10116835951208
12
 energy: -21.566240971956 gnorm: 0.001556987416 xtb: 6.2.3 (830e466)
C         1.31024259493733    1.10857247025047   -1.25739362419047
C        -0.18799480556133    0.77542950802028   -1.24021676838551
C         2.09655279716643   -0.15213880572971   -1.53460979986333
O         1.65174609166418    2.01992650514849   -2.27808691825344
O         1.10272749519663    3.29959391987257   -1.97005741518950
O         2.17871158730775   -1.07714095157740   -0.78039762668059
H         1.68616275906203    3.89966292962006   -2.45338152002237
H         1.60147160300373    1.51887235821032   -0.27897482451359
H        -0.48081868124062    0.34005346399969   -2.19291912856235
H         2.57690420148520   -0.15182034283356   -2.53004302489406
H        -0.39155237423075    0.07014545508075   -0.44039186846901
H        -0.75514326879058    1.68845348993806   -1.07932748097579
12
 energy: -21.564189664071 gnorm: 0.057166580204 xtb: 6.2.3 (830e466)
C         1.30591119622595    1.09694300770314   -1.25909693672611
C        -0.19532288370454    0.78393606044065   -1.22348155042200
C         2.10773477173371   -0.15625725504416   -1.53349279587976
O         1.64999786283257    2.01334644978345   -2.27253796010140
O         1.14169059483231    3.30554322518480   -1.91974664257374
O         2.05185260948786   -1.15301775540517   -0.84489616606370
H         1.61178801630782    3.88398822406754   -2.59757996391723
H         1.61032994526830    1.50279457002617   -0.28185754167873
H        -0.51476624041565    0.39315052411437   -2.18903057808984
H         2.75590516118591   -0.07142432273400   -2.45552815473910
H        -0.38729598400397    0.04442375966437   -0.45058023660482
H        -0.74881504975025    1.69618351219884   -1.00797147320359
12
 energy: -21.566284758510 gnorm: 0.006487194871 xtb: 6.2.3 (830e466)
C         1.30841683511527    1.09929802770809   -1.25860019537540
C        -0.19252406308152    0.78664445476675   -1.22972939694795
C         2.10519981221313   -0.15745300922690   -1.53084018518398
O         1.65837978281077    2.01183435974629   -2.27428172790778
O         1.12215314427119    3.29691388141733   -1.95358724618439
O         2.10018120203365   -1.12448742353011   -0.82742310105252
H         1.62191259407303    3.88310236928809   -2.54483610740728
H         1.61068151129355    1.50389947497347   -0.28005464660433
H        -0.50887228617957    0.40096759250567   -2.19797969709211
H         2.69850865413827   -0.10396564682151   -2.46452491166713
H        -0.38949944133197    0.04425982320629   -0.46085241420130
H        -0.74552774535579    1.69859609596654   -1.01309037037586
12
 energy: -21.566252654706 gnorm: 0.012154502999 xtb: 6.2.3 (830e466)
C         1.31119378540849    1.10277966568893   -1.25933537408633
C        -0.18847436556374    0.78666391070904   -1.22871631230640
C         2.10441237687963   -0.15642978923691   -1.52983117817734
O         1.66038349553856    2.01430102763183   -2.27656023122474
O         1.11944945003665    3.29678332770585   -1.96182829482396
O         2.08057572150348   -1.13381228733074   -0.83318382636343
H         1.61659071362744    3.88040947857747   -2.54052001155778
H         1.61345103431990    1.50863500528533   -0.28097096198616
H        -0.50472958930342    0.40059611277836   -2.19505997108880
H         2.70309942152111   -0.09889320152186   -2.45810815721907
H        -0.38251216902708    0.04376516851966   -0.46075695704988
H        -0.74442987494102    1.69481158119303   -1.01092872411612
12
 energy: -21.566310591876 gnorm: 0.003892147081 xtb: 6.2.3 (830e466)
C         1.31018335173447    1.10159380828170   -1.25856158042067
C        -0.18947662025750    0.78704621492527   -1.22967103142948
C         2.10492237116076   -0.15671376424907   -1.52886335999888
O         1.65916516869709    2.01389860861176   -2.27524386650513
O         1.12384605001148    3.29858021387481   -1.95324682190696
O         2.08905418644628   -1.12903551170828   -0.83438655270635
H         1.61465477074827    3.87806925264376   -2.54994448627997
H         1.61319752651586    1.50756057256176   -0.28047147765335
H        -0.50549194521973    0.40712696835363   -2.19814220762458
H         2.69865391784497   -0.10277110914177   -2.45326025016146
H        -0.38527726545983    0.04006834562375   -0.46659891837277
H        -0.74442151222209    1.69418640022267   -1.00740944694042
12
 energy: -21.566318578606 gnorm: 0.003353440883 xtb: 6.2.3 (830e466)
C         1.30766287227860    1.10009120850382   -1.25961292922197
C        -0.19253711875539    0.78653703043097   -1.22827383016890