      -----------------------------------------------------------      
     |                   =====================                   |     
     |                           x T B                           |     
     |                   =====================                   |     
     |                         S. Grimme                         |     
     |          Mulliken Center for Theoretical Chemistry        |     
     |                    University of Bonn                     |     
      -----------------------------------------------------------      

   * xtb version 6.2.3 (830e466) compiled by 'ehlert@majestix' on 2020-03-16

   xtb is free software: you can redistribute it and/or modify it under
   the terms of the GNU Lesser General Public License as published by
   the Free Software Foundation, either version 3 of the License, or
   (at your option) any later version.
   
   xtb is distributed in the hope that it will be useful,
   but WITHOUT ANY WARRANTY; without even the implied warranty of
   MERCHANTABILITY or FITNESS FOR A PARTICULAR PURPOSE.  See the
   GNU Lesser General Public License for more details.
   
   Cite this work as:
   * S. Grimme, C. Bannwarth, P. Shushkov, J. Chem. Theory Comput., 2017,
     13, 1989-2009. DOI: 10.1021/acs.jctc.7b00118
   * C. Bannwarth, S. Ehlert and S. Grimme., J. Chem. Theory Comput., 2019,
     15, 1652-1671. DOI: 10.1021/acs.jctc.8b01176
   * P. Pracht, E. Caldeweyher, S. Ehlert, S. Grimme, ChemRxiv, 2019, preprint.
     DOI: 10.26434/chemrxiv.8326202.v1
   
   for DFT-D4:
   * E. Caldeweyher, C. Bannwarth and S. Grimme, J. Chem. Phys., 2017,
     147, 034112. DOI: 10.1063/1.4993215
   * E. Caldeweyher, S. Ehlert, A. Hansen, H. Neugebauer, S. Spicher,
     C. Bannwarth and S. Grimme, J. Chem. Phys., 2019, 150, 154122.
     DOI: 10.1063/1.5090222
   
   for sTDA-xTB:
   * S. Grimme and C. Bannwarth, J. Chem. Phys., 2016, 145, 054103.
     DOI: 10.1063/1.4959605
   
   in the mass-spec context:
   * V. Asgeirsson, C. Bauer and S. Grimme, Chem. Sci., 2017, 8, 4879.
     DOI: 10.1039/c7sc00601b
   
   for metadynamics refer to:
   * S. Grimme, J. Chem. Theory Comput., 2019, 155, 2847-2862
     DOI: 10.1021/acs.jctc.9b00143
   
   with help from (in alphabetical order)
   C. Bannwarth, F. Bohle, G. Brandenburg, E. Caldeweyher, M. Checinski,
   S. Dohm, S. Ehlert, S. Ehrlich, F. März, H. Neugebauer, J. Pisarek,
   P. Pracht, P. Shushkov, and S. Spicher.
   
 * started run on 2020/12/23 at 21:43:34.702     

           -------------------------------------------------
          |                Calculation Setup                |
           -------------------------------------------------

          program call               : xtb -c 0 -u 0 -a 1.0 --iterations 100 --opt normal --namespace product_34 /scratch/bell/zhao922/YARP/paper-example/potential_product/test/reaction_channel/pp_0/pp_8_1.xyz
          hostname                   : bell-fe05.rcac.purdue.edu
          calculation namespace      : product_34
          coordinate file            : /scratch/bell/zhao922/YARP/paper-example/potential_product/test/reaction_channel/pp_0/pp_8_1.xyz
          omp threads                :                    32
          number of atoms            :                    12
          number of electrons        :                    36
          charge                     :                     0
          spin                       :                   0.0
          first test random number   :      0.97271391641380


molecular fragmentation (1/2 indicates fragments):
111221211112
# atoms in fragment 1/2:     8     4
 fragment masses (1/2) :       56.06       34.01
CMA distance (Bohr)    :   7.737
constraining FC (au)   :  0.0500
           ------------------------------------------------- 
          |                 G F N 2 - x T B                 |
          | Geometry, Frequencies, Noncovalent interactions |
          |            JCTC 2019 parametrisation            |
           ------------------------------------------------- 
             k(s)              :                1.8500
             k(p)              :                2.2300
             k(d)              :                2.2300
             k(f)              :                2.0000
             kEN (H0ij)        :               -2.0000
             D4 a1             :                0.5200
             D4 a2             :                5.0000
             D4 s6             :                1.0000
             D4 s8             :                2.7000
             D4 s9             :                5.0000
             alphaj            :                2.0000

  Z AO/shell   Hii/eV     exponent
  1     Wed Apr 25 08:07:45 CEST 2018   EN: 2.200 GM2: 0.406  GM3: 0.0800  RAES: 1.40
     1s    -10.707211    1.230000
  6     Wed Apr 25 08:07:45 CEST 2018   EN: 2.550 GM2: 0.538  GM3: 0.1500  RAES: 3.00
     2s    -13.970922    2.096432
     2p    -10.063292    1.800000
  8     Wed Apr 25 08:07:45 CEST 2018   EN: 3.440 GM2: 0.452  GM3:-0.0517  RAES: 1.80
     2s    -20.229985    2.439742
     2p    -15.503117    2.137023

           ------------------------------------------------- 
          |        Self-Consistent Charge Iterations        |
           ------------------------------------------------- 

          ...................................................
          :                      SETUP                      :
          :.................................................:
          :  # basis functions                  30          :
          :  # atomic orbitals                  30          :
          :  # shells                           18          :
          :  # electrons                        36          :
          :  max. iterations                   100          :
          :  Hamiltonian                  GFN2-xTB          :
          :  restarted?                      false          :
          :  GBSA solvation                  false          :
          :  PC potential                    false          :
          :  electronic temp.          300.0000000     K    :
          :  accuracy                    1.0000000          :
          :  -> integral cutoff          0.2500000E+02      :
          :  -> integral neglect         0.1000000E-07      :
          :  -> SCF convergence          0.1000000E-05 Eh   :
          :  -> wf. convergence          0.1000000E-03 e    :
          :  Broyden damping             0.4000000          :
          ...................................................

 iter      E             dE          RMSdq      gap      omega  full diag
   1    -21.6711393 -0.216711E+02  0.540E+00    3.32       0.0  T
   2    -21.6967312 -0.255919E-01  0.292E+00    2.60       1.0  T
   3    -21.6947153  0.201591E-02  0.164E+00    3.03       1.0  T
   4    -21.7020679 -0.735255E-02  0.214E-01    2.79       1.0  T
   5    -21.7022102 -0.142281E-03  0.146E-01    2.82       1.0  T
   6    -21.7023813 -0.171158E-03  0.519E-02    2.81       1.0  T
   7    -21.7023884 -0.704123E-05  0.197E-02    2.81       1.5  T
   8    -21.7023887 -0.338998E-06  0.320E-03    2.80       9.0  T
   9    -21.7023887 -0.134417E-07  0.142E-03    2.81      20.3  T
  10    -21.7023887 -0.697021E-08  0.526E-04    2.81      54.9  T
  11    -21.7023887 -0.169415E-08  0.215E-04    2.81     134.0  T

   *** convergence criteria satisfied after 11 iterations ***

         #    Occupation            Energy/Eh            Energy/eV
      -------------------------------------------------------------
         1        2.0000           -0.7414114             -20.1748
       ...           ...                  ...                  ...
        12        2.0000           -0.5314298             -14.4609
        13        2.0000           -0.5130299             -13.9603
        14        2.0000           -0.4751673             -12.9300
        15        2.0000           -0.4627869             -12.5931
        16        2.0000           -0.4554704             -12.3940
        17        2.0000           -0.4446541             -12.0997
        18        2.0000           -0.4168019             -11.3418 (HOMO)
        19                         -0.3137097              -8.5365 (LUMO)
        20                         -0.2004031              -5.4532
        21                         -0.0365262              -0.9939
        22                          0.0585838               1.5941
        23                          0.0771212               2.0986
       ...                                ...                  ...
        30                          0.6018243              16.3765
      -------------------------------------------------------------
                  HL-Gap            0.1030922 Eh            2.8053 eV
             Fermi-level           -0.3652558 Eh           -9.9391 eV

 SCC (total)                   0 d,  0 h,  0 min,  0.006 sec
 SCC setup                      ...        0 min,  0.000 sec (  5.149%)
 Dispersion                     ...        0 min,  0.000 sec (  0.935%)
 integral evaluation            ...        0 min,  0.001 sec (  8.643%)
 zeroth order Hamiltonian       ...        0 min,  0.000 sec (  1.274%)
 iterations                     ...        0 min,  0.004 sec ( 59.942%)
 molecular gradient             ...        0 min,  0.001 sec ( 16.995%)
 printout                       ...        0 min,  0.000 sec (  3.529%)

         :::::::::::::::::::::::::::::::::::::::::::::::::::::
         ::                     SUMMARY                     ::
         :::::::::::::::::::::::::::::::::::::::::::::::::::::
         :: total energy             -21.505694641597 Eh    ::
         :: gradient norm              0.124823008678 Eh/a0 ::
         :: HOMO-LUMO gap              2.805281234618 eV    ::
         ::.................................................::
         :: SCC energy               -21.702388716151 Eh    ::
         :: -> isotropic ES            0.054128147203 Eh    ::
         :: -> anisotropic ES         -0.003375895912 Eh    ::
         :: -> anisotropic XC         -0.005374012859 Eh    ::
         :: -> dispersion             -0.005196695685 Eh    ::
         :: repulsion energy           0.196678494000 Eh    ::
         :: add. restraining           0.000000000000 Eh    ::
         :::::::::::::::::::::::::::::::::::::::::::::::::::::

      ----------------------------------------------------------- 
     |                   =====================                   |
     |                        A N C O P T                        |
     |                   =====================                   |
     |               Approximate Normal Coordinate               |
     |                Rational Function Optimizer                |
      ----------------------------------------------------------- 

          ...................................................
          :                      SETUP                      :
          :.................................................:
          :   optimization level            normal          :
          :   max. optcycles                   200          :
          :   ANC micro-cycles                  20          :
          :   degrees of freedom                30          :
          :.................................................:
          :   RF solver                   davidson          :
          :   write xtbopt.log                true          :
          :   linear?                        false          :
          :   energy convergence         0.5000000E-05 Eh   :
          :   grad. convergence          0.1000000E-02 Eh/α :
          :   maximium RF displ.         1.0000000          :
          :   Hlow (freq-cutoff)         0.1000000E-01      :
          :   Hmax (freq-cutoff)         5.0000000          :
          :   S6 in model hess.         20.0000000          :
          ...................................................

generating ANC from model Hessian ...
Using Lindh-Hessian (1995)
 Shifting diagonal of input Hessian by   9.897823965610595E-003
 Lowest  eigenvalues of input Hessian
   -0.000000   -0.000000   -0.000000   -0.000000    0.000000    0.000000
    0.010000    0.010065    0.010401    0.010467    0.010707    0.011059
    0.021102    0.022523    0.037079    0.048975    0.050546    0.062983
 Highest eigenvalues
    1.184042    1.262902    1.467932    1.614329    1.908869    2.144897
 

........................................................................
.............................. CYCLE    1 ..............................
........................................................................
   1    -21.7023887 -0.217024E+02  0.751E-05    2.81       0.0  T
   2    -21.7023887 -0.176605E-10  0.479E-05    2.81     603.0  T
   3    -21.7023887 -0.884626E-11  0.337E-05    2.81     856.7  T
     SCC iter.                  ...        0 min,  0.001 sec
     gradient                   ...        0 min,  0.001 sec
 * total energy  :   -21.5056946 Eh     change       -0.4767617E-08 Eh
   gradient norm :     0.1248239 Eh/α   predicted     0.0000000E+00 (-100.00%)
   displ. norm   :     0.1528502 α      lambda       -0.1164507E-01
   maximum displ.:     0.0710993 α      in ANC's #28, #13, #18, ...

........................................................................
.............................. CYCLE    2 ..............................
........................................................................
   1    -21.7180158 -0.217180E+02  0.269E-01    2.83       0.0  T
   2    -21.7180721 -0.562861E-04  0.162E-01    2.84       1.0  T
   3    -21.7180795 -0.738403E-05  0.417E-02    2.83       1.0  T
   4    -21.7180793  0.116700E-06  0.248E-02    2.84       1.2  T
   5    -21.7180838 -0.444230E-05  0.871E-03    2.84       3.3  T
   6    -21.7180842 -0.458730E-06  0.295E-03    2.84       9.8  T
   7    -21.7180842 -0.363978E-08  0.142E-03    2.84      20.3  T
     SCC iter.                  ...        0 min,  0.002 sec
     gradient                   ...        0 min,  0.086 sec
 * total energy  :   -21.5133441 Eh     change       -0.7649420E-02 Eh
   gradient norm :     0.0440864 Eh/α   predicted    -0.5958564E-02 ( -22.10%)
   displ. norm   :     0.1413593 α      lambda       -0.2652905E-02
   maximum displ.:     0.0769066 α      in ANC's #10, #13, #3, ...

........................................................................
.............................. CYCLE    3 ..............................
........................................................................
   1    -21.7235633 -0.217236E+02  0.264E-01    2.85       0.0  T
   2    -21.7235888 -0.255369E-04  0.164E-01    2.86       1.0  T
   3    -21.7235892 -0.334162E-06  0.356E-02    2.85       1.0  T
   4    -21.7235943 -0.513478E-05  0.206E-02    2.85       1.4  T
   5    -21.7235974 -0.304687E-05  0.801E-03    2.85       3.6  T
   6    -21.7235976 -0.238672E-06  0.367E-03    2.85       7.9  T
   7    -21.7235976 -0.282268E-07  0.174E-03    2.85      16.5  T
     SCC iter.                  ...        0 min,  0.002 sec
     gradient                   ...        0 min,  0.001 sec
 * total energy  :   -21.5149256 Eh     change       -0.1581520E-02 Eh
   gradient norm :     0.0101148 Eh/α   predicted    -0.1352958E-02 ( -14.45%)
   displ. norm   :     0.1405742 α      lambda       -0.8338965E-03
   maximum displ.:     0.0908792 α      in ANC's #10, #12, #3, ...

........................................................................
.............................. CYCLE    4 ..............................
........................................................................
   1    -21.7237533 -0.217238E+02  0.286E-01    2.86       0.0  T
   2    -21.7237633 -0.100018E-04  0.179E-01    2.86       1.0  T
   3    -21.7237533  0.999720E-05  0.414E-02    2.86       1.0  T
   4    -21.7237708 -0.175422E-04  0.118E-02    2.85       2.5  T
   5    -21.7237710 -0.227548E-06  0.441E-03    2.85       6.5  T
   6    -21.7237711 -0.350374E-07  0.208E-03    2.85      13.9  T
   7    -21.7237711 -0.159983E-07  0.765E-04    2.85      37.7  T
     SCC iter.                  ...        0 min,  0.002 sec
     gradient                   ...        0 min,  0.001 sec
 * total energy  :   -21.5151646 Eh     change       -0.2390339E-03 Eh
   gradient norm :     0.0134876 Eh/α   predicted    -0.4251903E-03 (  77.88%)
   displ. norm   :     0.1007226 α      lambda       -0.5975555E-03
   maximum displ.:     0.0712419 α      in ANC's #10, #12, #2, ...

........................................................................
.............................. CYCLE    5 ..............................
........................................................................
   1    -21.7238855 -0.217239E+02  0.186E-01    2.86       0.0  T
   2    -21.7238892 -0.364487E-05  0.116E-01    2.86       1.0  T
   3    -21.7238782  0.109833E-04  0.359E-02    2.87       1.0  T
   4    -21.7238923 -0.141521E-04  0.673E-03    2.86       4.3  T
   5    -21.7238924 -0.448276E-07  0.345E-03    2.86       8.4  T
   6    -21.7238924 -0.222236E-07  0.120E-03    2.86      24.1  T
   7    -21.7238924 -0.477946E-08  0.354E-04    2.86      81.5  T
     SCC iter.                  ...        0 min,  0.002 sec
     gradient                   ...        0 min,  0.001 sec
 * total energy  :   -21.5155757 Eh     change       -0.4110431E-03 Eh
   gradient norm :     0.0105220 Eh/α   predicted    -0.3018109E-03 ( -26.57%)
   displ. norm   :     0.1650309 α      lambda       -0.4835677E-03
   maximum displ.:     0.1174598 α      in ANC's #10, #3, #2, ...

........................................................................
.............................. CYCLE    6 ..............................
........................................................................
   1    -21.7231598 -0.217232E+02  0.328E-01    2.87       0.0  T
   2    -21.7231742 -0.144091E-04  0.206E-01    2.87       1.0  T
   3    -21.7231537  0.205053E-04  0.553E-02    2.88       1.0  T
   4    -21.7231853 -0.315691E-04  0.137E-02    2.87       2.1  T
   5    -21.7231857 -0.360787E-06  0.622E-03    2.87       4.6  T
   6    -21.7231857 -0.537732E-07  0.167E-03    2.87      17.2  T
   7    -21.7231857 -0.141055E-07  0.102E-03    2.87      28.4  T
     SCC iter.                  ...        0 min,  0.002 sec
     gradient                   ...        0 min,  0.001 sec
 * total energy  :   -21.5158189 Eh     change       -0.2432213E-03 Eh
   gradient norm :     0.0164569 Eh/α   predicted    -0.2483671E-03 (   2.12%)
   displ. norm   :     0.1866664 α      lambda       -0.5402592E-03
   maximum displ.:     0.1146367 α      in ANC's #10, #3, #2, ...

........................................................................
.............................. CYCLE    7 ..............................
........................................................................
   1    -21.7213766 -0.217214E+02  0.355E-01    2.89       0.0  T
   2    -21.7214012 -0.245908E-04  0.220E-01    2.88       1.0  T
   3    -21.7213704  0.307828E-04  0.688E-02    2.89       1.0  T
   4    -21.7214138 -0.434335E-04  0.196E-02    2.88       1.5  T
   5    -21.7214155 -0.165637E-05  0.933E-03    2.88       3.1  T
   6    -21.7214156 -0.998888E-07  0.383E-03    2.88       7.5  T
   7    -21.7214157 -0.561153E-07  0.134E-03    2.88      21.5  T
   8    -21.7214157 -0.810883E-08  0.838E-04    2.88      34.5  T
     SCC iter.                  ...        0 min,  0.092 sec
     gradient                   ...        0 min,  0.001 sec
 * total energy  :   -21.5158168 Eh     change        0.2089042E-05 Eh
   gradient norm :     0.0274426 Eh/α   predicted    -0.2795428E-03 (*******%)
   displ. norm   :     0.0849258 α      lambda       -0.9070297E-03
   maximum displ.:     0.0582704 α      in ANC's #3, #10, #11, ...

........................................................................
.............................. CYCLE    8 ..............................
........................................................................
   1    -21.7256193 -0.217256E+02  0.181E-01    2.87       0.0  T
   2    -21.7256303 -0.109337E-04  0.114E-01    2.88       1.0  T
   3    -21.7256308 -0.540135E-06  0.263E-02    2.87       1.1  T
   4    -21.7256343 -0.348289E-05  0.148E-02    2.88       1.9  T
   5    -21.7256358 -0.145063E-05  0.486E-03    2.88       5.9  T
   6    -21.7256358 -0.289309E-07  0.222E-03    2.88      13.0  T
     SCC iter.                  ...        0 min,  0.001 sec
     gradient                   ...        0 min,  0.001 sec
 * total energy  :   -21.5162286 Eh     change       -0.4117876E-03 Eh
   gradient norm :     0.0065159 Eh/α   predicted    -0.4567876E-03 (  10.93%)
   displ. norm   :     0.1487914 α      lambda       -0.3495550E-03
   maximum displ.:     0.1096940 α      in ANC's #10, #4, #2, ...

........................................................................
.............................. CYCLE    9 ..............................
........................................................................
   1    -21.7242923 -0.217243E+02  0.251E-01    2.88       0.0  T
   2    -21.7242995 -0.726128E-05  0.155E-01    2.88       1.0  T
   3    -21.7242801  0.193846E-04  0.484E-02    2.88       1.0  T
   4    -21.7243050 -0.248243E-04  0.913E-03    2.88       3.2  T
   5    -21.7243052 -0.180052E-06  0.447E-03    2.88       6.5  T
   6    -21.7243052 -0.224574E-07  0.100E-03    2.88      28.8  T
   7    -21.7243052 -0.299053E-08  0.501E-04    2.88      57.7  T
     SCC iter.                  ...        0 min,  0.002 sec
     gradient                   ...        0 min,  0.091 sec
 * total energy  :   -21.5164269 Eh     change       -0.1983070E-03 Eh
   gradient norm :     0.0135269 Eh/α   predicted    -0.1786468E-03 (  -9.91%)
   displ. norm   :     0.1727279 α      lambda       -0.3833745E-03
   maximum displ.:     0.1073514 α      in ANC's #10, #2, #4, ...

........................................................................
.............................. CYCLE   10 ..............................
........................................................................
   1    -21.7239969 -0.217240E+02  0.263E-01    2.88       0.0  T
   2    -21.7240048 -0.787858E-05  0.162E-01    2.87       1.0  T
   3    -21.7239781  0.266897E-04  0.561E-02    2.89       1.0  T
   4    -21.7240105 -0.324417E-04  0.913E-03    2.88       3.2  T
   5    -21.7240108 -0.278665E-06  0.515E-03    2.88       5.6  T
   6    -21.7240108 -0.275532E-07  0.203E-03    2.88      14.2  T
   7    -21.7240108 -0.160862E-07  0.641E-04    2.88      45.0  T
     SCC iter.                  ...        0 min,  0.002 sec
     gradient                   ...        0 min,  0.001 sec
 * total energy  :   -21.5166894 Eh     change       -0.2625333E-03 Eh
   gradient norm :     0.0129395 Eh/α   predicted    -0.1974045E-03 ( -24.81%)
   displ. norm   :     0.1917787 α      lambda       -0.3521484E-03
   maximum displ.:     0.1070760 α      in ANC's #10, #2, #4, ...

........................................................................
.............................. CYCLE   11 ..............................
........................................................................
   1    -21.7245151 -0.217245E+02  0.255E-01    2.89       0.0  T
   2    -21.7245206 -0.553651E-05  0.156E-01    2.88       1.0  T
   3    -21.7245025  0.180611E-04  0.464E-02    2.89       1.0  T
   4    -21.7245245 -0.219773E-04  0.786E-03    2.88       3.7  T
   5    -21.7245247 -0.199289E-06  0.440E-03    2.88       6.6  T
   6    -21.7245248 -0.430750E-07  0.200E-03    2.88      14.5  T
   7    -21.7245248 -0.100903E-07  0.593E-04    2.88      48.6  T
     SCC iter.                  ...        0 min,  0.002 sec
     gradient                   ...        0 min,  0.001 sec
 * total energy  :   -21.5169179 Eh     change       -0.2285010E-03 Eh
   gradient norm :     0.0121853 Eh/α   predicted    -0.1825513E-03 ( -20.11%)
   displ. norm   :     0.1861430 α      lambda       -0.3907328E-03
   maximum displ.:     0.1057859 α      in ANC's #4, #2, #10, ...

........................................................................
.............................. CYCLE   12 ..............................
........................................................................
   1    -21.7271362 -0.217271E+02  0.218E-01    2.89       0.0  T
   2    -21.7271414 -0.520454E-05  0.133E-01    2.89       1.0  T
   3    -21.7271430 -0.155006E-05  0.144E-02    2.89       2.0  T
   4    -21.7271437 -0.720368E-06  0.818E-03    2.89       3.5  T
   5    -21.7271439 -0.206618E-06  0.391E-03    2.89       7.4  T
   6    -21.7271440 -0.851138E-07  0.177E-03    2.89      16.4  T
   7    -21.7271440 -0.903472E-08  0.514E-04    2.89      56.2  T
     SCC iter.                  ...        0 min,  0.092 sec
     gradient                   ...        0 min,  0.001 sec
 * total energy  :   -21.5171261 Eh     change       -0.2081488E-03 Eh
   gradient norm :     0.0045259 Eh/α   predicted    -0.2021348E-03 (  -2.89%)
   displ. norm   :     0.4147746 α      lambda       -0.4096483E-03
   maximum displ.:     0.2300077 α      in ANC's #10, #2, #4, ...

........................................................................
.............................. CYCLE   13 ..............................
........................................................................
   1    -21.7187709 -0.217188E+02  0.559E-01    2.89       0.0  T
   2    -21.7188019 -0.309992E-04  0.343E-01    2.88       1.0  T
   3    -21.7187461  0.557951E-04  0.835E-02    2.90       1.0  T
   4    -21.7188203 -0.741591E-04  0.185E-02    2.89       1.6  T
   5    -21.7188214 -0.112829E-05  0.858E-03    2.89       3.4  T
   6    -21.7188215 -0.654922E-07  0.315E-03    2.89       9.2  T
   7    -21.7188215 -0.336841E-07  0.135E-03    2.89      21.4  T
   8    -21.7188215 -0.668802E-08  0.678E-04    2.89      42.6  T
     SCC iter.                  ...        0 min,  0.002 sec
     gradient                   ...        0 min,  0.001 sec
 * total energy  :   -21.5165209 Eh     change        0.6051544E-03 Eh
   gradient norm :     0.0346564 Eh/α   predicted    -0.2400618E-03 (-139.67%)
   displ. norm   :     0.2118864 α      lambda       -0.1895185E-02
   maximum displ.:     0.1410044 α      in ANC's #10, #4, #2, ...

........................................................................
.............................. CYCLE   14 ..............................
........................................................................
   1    -21.7267772 -0.217268E+02  0.324E-01    2.89       0.0  T
   2    -21.7268042 -0.269454E-04  0.198E-01    2.89       1.0  T
   3    -21.7267917  0.125028E-04  0.509E-02    2.88       1.0  T
   4    -21.7268118 -0.200672E-04  0.211E-02    2.89       1.4  T
   5    -21.7268147 -0.297786E-05  0.690E-03    2.89       4.2  T
   6    -21.7268148 -0.558406E-07  0.258E-03    2.89      11.2  T
   7    -21.7268148 -0.156540E-07  0.130E-03    2.89      22.3  T
     SCC iter.                  ...        0 min,  0.092 sec
     gradient                   ...        0 min,  0.001 sec
 * total energy  :   -21.5172592 Eh     change       -0.7382601E-03 Eh
   gradient norm :     0.0050604 Eh/α   predicted    -0.9901338E-03 (  34.12%)
   displ. norm   :     0.0437184 α      lambda       -0.7051830E-04
   maximum displ.:     0.0199380 α      in ANC's #1, #7, #10, ...

........................................................................
.............................. CYCLE   15 ..............................
........................................................................
   1    -21.7276053 -0.217276E+02  0.514E-02    2.89       0.0  T
   2    -21.7276061 -0.817410E-06  0.312E-02    2.89       1.0  T
   3    -21.7276061 -0.529243E-08  0.606E-03    2.89       4.8  T
   4    -21.7276063 -0.175031E-06  0.282E-03    2.89      10.2  T
   5    -21.7276064 -0.427231E-07  0.157E-03    2.89      18.4  T
     SCC iter.                  ...        0 min,  0.001 sec
     gradient                   ...        0 min,  0.001 sec
 * total energy  :   -21.5172996 Eh     change       -0.4038306E-04 Eh
   gradient norm :     0.0033384 Eh/α   predicted    -0.3532598E-04 ( -12.52%)
   displ. norm   :     0.1406365 α      lambda       -0.7298181E-04
   maximum displ.:     0.0776553 α      in ANC's #4, #2, #6, ...

........................................................................
.............................. CYCLE   16 ..............................
........................................................................
   1    -21.7266880 -0.217267E+02  0.159E-01    2.89       0.0  T
   2    -21.7266898 -0.188225E-05  0.975E-02    2.89       1.0  T
   3    -21.7266856  0.429046E-05  0.227E-02    2.89       1.3  T
   4    -21.7266912 -0.563501E-05  0.454E-03    2.89       6.4  T
   5    -21.7266912 -0.421359E-07  0.250E-03    2.89      11.5  T
   6    -21.7266912 -0.507385E-08  0.384E-04    2.89      75.1  T
   7    -21.7266912 -0.224368E-09  0.202E-04    2.89     142.8  T
     SCC iter.                  ...        0 min,  0.002 sec
     gradient                   ...        0 min,  0.001 sec
 * total energy  :   -21.5173484 Eh     change       -0.4886601E-04 Eh
   gradient norm :     0.0041288 Eh/α   predicted    -0.3721363E-04 ( -23.85%)
   displ. norm   :     0.1533027 α      lambda       -0.5543108E-04
   maximum displ.:     0.0801169 α      in ANC's #4, #6, #2, ...

........................................................................
.............................. CYCLE   17 ..............................
........................................................................
   1    -21.7262880 -0.217263E+02  0.158E-01    2.89       0.0  T
   2    -21.7262895 -0.151518E-05  0.968E-02    2.89       1.0  T
   3    -21.7262890  0.549511E-06  0.132E-02    2.90       2.2  T
   4    -21.7262906 -0.163939E-05  0.451E-03    2.89       6.4  T
   5    -21.7262906 -0.237070E-07  0.107E-03    2.89      27.1  T
   6    -21.7262906 -0.130624E-08  0.318E-04    2.89      90.8  T
     SCC iter.                  ...        0 min,  0.002 sec
     gradient                   ...        0 min,  0.001 sec
 * total energy  :   -21.5173829 Eh     change       -0.3450627E-04 Eh
   gradient norm :     0.0052004 Eh/α   predicted    -0.2836708E-04 ( -17.79%)
   displ. norm   :     0.1180134 α      lambda       -0.5357224E-04
   maximum displ.:     0.0626339 α      in ANC's #4, #6, #1, ...

........................................................................
.............................. CYCLE   18 ..............................
........................................................................
   1    -21.7267889 -0.217268E+02  0.107E-01    2.89       0.0  T
   2    -21.7267898 -0.875962E-06  0.657E-02    2.89       1.0  T
   3    -21.7267903 -0.536517E-06  0.455E-03    2.89       6.3  T
   4    -21.7267903  0.559816E-08  0.217E-03    2.89      13.3  T
   5    -21.7267903 -0.158570E-07  0.111E-03    2.89      26.0  T
     SCC iter.                  ...        0 min,  0.001 sec
     gradient                   ...        0 min,  0.001 sec
 * total energy  :   -21.5174212 Eh     change       -0.3824614E-04 Eh
   gradient norm :     0.0023530 Eh/α   predicted    -0.2715836E-04 ( -28.99%)
   displ. norm   :     0.1742382 α      lambda       -0.4854191E-04
   maximum displ.:     0.0900410 α      in ANC's #1, #6, #4, ...

........................................................................
.............................. CYCLE   19 ..............................
........................................................................
   1    -21.7274331 -0.217274E+02  0.159E-01    2.90       0.0  T
   2    -21.7274356 -0.257866E-05  0.979E-02    2.90       1.0  T
   3    -21.7274362 -0.605130E-06  0.120E-02    2.90       2.4  T
   4    -21.7274373 -0.102895E-05  0.628E-03    2.90       4.6  T
   5    -21.7274373 -0.712639E-07  0.330E-03    2.90       8.8  T
   6    -21.7274374 -0.460046E-07  0.692E-04    2.90      41.7  T
   7    -21.7274374 -0.116011E-08  0.214E-04    2.90     134.7  T
     SCC iter.                  ...        0 min,  0.002 sec
     gradient                   ...        0 min,  0.091 sec
 * total energy  :   -21.5174539 Eh     change       -0.3268108E-04 Eh
   gradient norm :     0.0026754 Eh/α   predicted    -0.2500537E-04 ( -23.49%)
   displ. norm   :     0.2325016 α      lambda       -0.5422234E-04
   maximum displ.:     0.1442684 α      in ANC's #1, #4, #6, ...

........................................................................
.............................. CYCLE   20 ..............................
........................................................................
   1    -21.7273473 -0.217273E+02  0.212E-01    2.90       0.0  T
   2    -21.7273529 -0.556591E-05  0.132E-01    2.90       1.0  T
   3    -21.7273543 -0.142416E-05  0.184E-02    2.90       1.6  T
   4    -21.7273568 -0.244482E-05  0.937E-03    2.90       3.1  T
   5    -21.7273569 -0.176298E-06  0.288E-03    2.90      10.0  T
   6    -21.7273570 -0.293773E-07  0.795E-04    2.90      36.3  T
   7    -21.7273570 -0.271351E-08  0.258E-04    2.90     112.1  T
     SCC iter.                  ...        0 min,  0.002 sec
     gradient                   ...        0 min,  0.001 sec
 * total energy  :   -21.5174841 Eh     change       -0.3025169E-04 Eh
   gradient norm :     0.0040826 Eh/α   predicted    -0.2857550E-04 (  -5.54%)
   displ. norm   :     0.1354930 α      lambda       -0.4986472E-04
   maximum displ.:     0.1075502 α      in ANC's #1, #5, #7, ...
 * RMSD in coord.:     0.6181809 α      energy gain  -0.1178947E-01 Eh

generating ANC from model Hessian ...
Using Lindh-Hessian (1995)
 Shifting diagonal of input Hessian by   9.802569535073915E-003
 Lowest  eigenvalues of input Hessian
   -0.000000   -0.000000    0.000000    0.000000    0.000000    0.000000
    0.010000    0.010045    0.010115    0.010408    0.010655    0.011055
    0.021080    0.022774    0.038582    0.043467    0.052805    0.070632
 Highest eigenvalues
    1.258399    1.265709    1.366583    1.487919    1.961371    2.235636
 

........................................................................
.............................. CYCLE   21 ..............................
........................................................................
   1    -21.7283137 -0.217283E+02  0.123E-01    2.89       0.0  T
   2    -21.7283162 -0.249628E-05  0.770E-02    2.89       1.0  T
   3    -21.7283134  0.276553E-05  0.207E-02    2.89       1.4  T
   4    -21.7283179 -0.443431E-05  0.611E-03    2.89       4.7  T
   5    -21.7283180 -0.896864E-07  0.311E-03    2.89       9.3  T
   6    -21.7283180 -0.192897E-07  0.109E-03    2.89      26.5  T
   7    -21.7283180 -0.280182E-08  0.248E-04    2.89     116.5  T
   8    -21.7283180 -0.139956E-09  0.124E-04    2.89     232.6  T
     SCC iter.                  ...        0 min,  0.002 sec
     gradient                   ...        0 min,  0.093 sec
 * total energy  :   -21.5175151 Eh     change       -0.3102508E-04 Eh
   gradient norm :     0.0042553 Eh/α   predicted     0.0000000E+00 (-100.00%)
   displ. norm   :     0.0691605 α      lambda       -0.7278875E-04
   maximum displ.:     0.0458215 α      in ANC's #2, #3, #5, ...

........................................................................
.............................. CYCLE   22 ..............................
........................................................................
   1    -21.7276101 -0.217276E+02  0.200E-01    2.89       0.0  T
   2    -21.7276165 -0.640473E-05  0.130E-01    2.89       1.0  T
   3    -21.7276208 -0.431062E-05  0.773E-03    2.89       3.7  T
   4    -21.7276209 -0.172876E-06  0.494E-03    2.89       5.8  T
   5    -21.7276210 -0.548256E-07  0.241E-03    2.89      12.0  T
   6    -21.7276210 -0.369539E-07  0.439E-04    2.89      65.8  T
     SCC iter.                  ...        0 min,  0.001 sec
     gradient                   ...        0 min,  0.001 sec
 * total energy  :   -21.5175787 Eh     change       -0.6356120E-04 Eh
   gradient norm :     0.0015201 Eh/α   predicted    -0.3656717E-04 ( -42.47%)
   displ. norm   :     0.2771581 α      lambda       -0.1397824E-03
   maximum displ.:     0.1752330 α      in ANC's #2, #3, #5, ...

........................................................................
.............................. CYCLE   23 ..............................
........................................................................
   1    -21.7221802 -0.217222E+02  0.801E-01    2.89       0.0  T
   2    -21.7222822 -0.102051E-03  0.518E-01    2.89       1.0  T
   3    -21.7223456 -0.633876E-04  0.368E-02    2.89       1.0  T
   4    -21.7223528 -0.719838E-05  0.216E-02    2.89       1.3  T
   5    -21.7223546 -0.175449E-05  0.780E-03    2.89       3.7  T
   6    -21.7223548 -0.188138E-06  0.209E-03    2.89      13.8  T
   7    -21.7223548 -0.170794E-07  0.716E-04    2.89      40.3  T
   8    -21.7223548 -0.153398E-08  0.259E-04    2.89     111.3  T
     SCC iter.                  ...        0 min,  0.092 sec
     gradient                   ...        0 min,  0.001 sec
 * total energy  :   -21.5172207 Eh     change        0.3580081E-03 Eh
   gradient norm :     0.0292652 Eh/α   predicted    -0.7227688E-04 (-120.19%)
   displ. norm   :     0.1379579 α      lambda       -0.9007284E-03
   maximum displ.:     0.0802879 α      in ANC's #3, #2, #6, ...

........................................................................
.............................. CYCLE   24 ..............................
........................................................................
   1    -21.7261374 -0.217261E+02  0.438E-01    2.89       0.0  T
   2    -21.7261696 -0.322171E-04  0.284E-01    2.89       1.0  T
   3    -21.7261854 -0.157297E-04  0.275E-02    2.89       1.0  T
   4    -21.7261908 -0.544598E-05  0.138E-02    2.89       2.1  T
   5    -21.7261917 -0.885134E-06  0.433E-03    2.89       6.7  T
   6    -21.7261917 -0.257246E-07  0.190E-03    2.89      15.2  T
     SCC iter.                  ...        0 min,  0.001 sec
     gradient                   ...        0 min,  0.001 sec
 * total energy  :   -21.5176450 Eh     change       -0.4243504E-03 Eh
   gradient norm :     0.0078881 Eh/α   predicted    -0.4589340E-03 (   8.15%)
   displ. norm   :     0.0320386 α      lambda       -0.4745218E-04
   maximum displ.:     0.0206910 α      in ANC's #2, #5, #6, ...

........................................................................
.............................. CYCLE   25 ..............................
........................................................................
   1    -21.7267864 -0.217268E+02  0.384E-02    2.89       0.0  T
   2    -21.7267866 -0.230903E-06  0.239E-02    2.89       1.2  T
   3    -21.7267867 -0.109240E-06  0.259E-03    2.89      11.2  T
   4    -21.7267868 -0.529650E-08  0.178E-03    2.89      16.3  T
     SCC iter.                  ...        0 min,  0.001 sec
     gradient                   ...        0 min,  0.001 sec
 * total energy  :   -21.5176793 Eh     change       -0.3424365E-04 Eh
   gradient norm :     0.0048517 Eh/α   predicted    -0.2375122E-04 ( -30.64%)
   displ. norm   :     0.1091593 α      lambda       -0.9943833E-04
   maximum displ.:     0.0771898 α      in ANC's #2, #5, #6, ...

........................................................................
.............................. CYCLE   26 ..............................
........................................................................
   1    -21.7280655 -0.217281E+02  0.109E-01    2.89       0.0  T
   2    -21.7280672 -0.175782E-05  0.682E-02    2.89       1.0  T
   3    -21.7280682 -0.960274E-06  0.680E-03    2.89       4.2  T
   4    -21.7280682  0.211760E-08  0.470E-03    2.89       6.1  T
   5    -21.7280683 -0.116340E-06  0.158E-03    2.89      18.3  T
   6    -21.7280683 -0.878823E-08  0.717E-04    2.89      40.3  T
     SCC iter.                  ...        0 min,  0.091 sec
     gradient                   ...        0 min,  0.001 sec
 * total energy  :   -21.5177388 Eh     change       -0.5952041E-04 Eh
   gradient norm :     0.0031862 Eh/α   predicted    -0.5031335E-04 ( -15.47%)
   displ. norm   :     0.1768300 α      lambda       -0.9675007E-04
   maximum displ.:     0.1364235 α      in ANC's #2, #5, #4, ...

........................................................................
.............................. CYCLE   27 ..............................
........................................................................
   1    -21.7280720 -0.217281E+02  0.215E-01    2.89       0.0  T
   2    -21.7280796 -0.761536E-05  0.137E-01    2.89       1.0  T
   3    -21.7280806 -0.991953E-06  0.234E-02    2.89       1.2  T
   4    -21.7280853 -0.471064E-05  0.931E-03    2.89       3.1  T
   5    -21.7280854 -0.933603E-07  0.196E-03    2.89      14.7  T
   6    -21.7280854 -0.240237E-07  0.510E-04    2.89      56.6  T
   7    -21.7280854 -0.868496E-09  0.246E-04    2.89     117.2  T
     SCC iter.                  ...        0 min,  0.002 sec
     gradient                   ...        0 min,  0.001 sec
 * total energy  :   -21.5178338 Eh     change       -0.9496530E-04 Eh
   gradient norm :     0.0044564 Eh/α   predicted    -0.4988805E-04 ( -47.47%)
   displ. norm   :     0.9643961 α      lambda       -0.5517285E-03
   maximum displ.:     0.7530574 α      in ANC's #2, #5, #4, ...

........................................................................
.............................. CYCLE   28 ..............................
........................................................................
   1    -21.7109053 -0.217109E+02  0.120E+00    2.88       0.0  T
   2    -21.7111929 -0.287610E-03  0.766E-01    2.85       1.0  T
   3    -21.7108540  0.338922E-03  0.232E-01    2.89       1.0  T
   4    -21.7114201 -0.566129E-03  0.542E-02    2.85       1.0  T
   5    -21.7114230 -0.289321E-05  0.223E-02    2.85       1.3  T
   6    -21.7114233 -0.371885E-06  0.414E-03    2.85       7.0  T
   7    -21.7114234 -0.606470E-07  0.197E-03    2.85      14.7  T
   8    -21.7114234 -0.153714E-07  0.689E-04    2.85      41.9  T
     SCC iter.                  ...        0 min,  0.092 sec
     gradient                   ...        0 min,  0.001 sec
 * total energy  :   -21.5156748 Eh     change        0.2158966E-02 Eh
   gradient norm :     0.0600734 Eh/α   predicted    -0.5324459E-03 (-124.66%)
   displ. norm   :     0.3437125 α      lambda       -0.6804179E-02
   maximum displ.:     0.2589029 α      in ANC's #2, #5, #6, ...

........................................................................
.............................. CYCLE   29 ..............................
........................................................................
   1    -21.7264229 -0.217264E+02  0.887E-01    2.86       0.0  T
   2    -21.7265982 -0.175326E-03  0.572E-01    2.88       1.0  T
   3    -21.7264426  0.155612E-03  0.164E-01    2.85       1.0  T
   4    -21.7267170 -0.274339E-03  0.387E-02    2.88       1.0  T
   5    -21.7267207 -0.370788E-05  0.130E-02    2.88       2.2  T
   6    -21.7267208 -0.131844E-06  0.517E-03    2.87       5.6  T
   7    -21.7267208 -0.191301E-07  0.188E-03    2.88      15.4  T
     SCC iter.                  ...        0 min,  0.002 sec
     gradient                   ...        0 min,  0.001 sec
 * total energy  :   -21.5176977 Eh     change       -0.2022889E-02 Eh
   gradient norm :     0.0236547 Eh/α   predicted    -0.3804014E-02 (  88.05%)
   displ. norm   :     0.4361694 α      lambda       -0.1418646E-02
   maximum displ.:     0.2651000 α      in ANC's #5, #2, #6, ...

........................................................................
.............................. CYCLE   30 ..............................
........................................................................
   1    -21.7294923 -0.217295E+02  0.446E-01    2.90       0.0  T
   2    -21.7295294 -0.371058E-04  0.278E-01    2.91       1.0  T
   3    -21.7295290  0.386624E-06  0.438E-02    2.90       1.0  T
   4    -21.7295395 -0.105308E-04  0.257E-02    2.91       1.1  T
   5    -21.7295445 -0.501622E-05  0.930E-03    2.90       3.1  T
   6    -21.7295447 -0.125350E-06  0.386E-03    2.91       7.5  T
   7    -21.7295447 -0.318101E-07  0.159E-03    2.91      18.2  T
     SCC iter.                  ...        0 min,  0.002 sec
     gradient                   ...        0 min,  0.092 sec
 * total energy  :   -21.5176141 Eh     change        0.8359330E-04 Eh
   gradient norm :     0.0223048 Eh/α   predicted    -0.8442746E-03 (*******%)
   displ. norm   :     0.1545433 α      lambda       -0.7822319E-03
   maximum displ.:     0.0947763 α      in ANC's #5, #2, #3, ...

........................................................................
.............................. CYCLE   31 ..............................
........................................................................
   1    -21.7283460 -0.217283E+02  0.176E-01    2.89       0.0  T
   2    -21.7283543 -0.828054E-05  0.109E-01    2.89       1.0  T
   3    -21.7283541  0.167808E-06  0.203E-02    2.89       1.4  T
   4    -21.7283561 -0.197940E-05  0.118E-02    2.89       2.4  T
   5    -21.7283573 -0.118478E-05  0.437E-03    2.89       6.6  T
   6    -21.7283573 -0.390301E-07  0.232E-03    2.89      12.4  T
     SCC iter.                  ...        0 min,  0.001 sec
     gradient                   ...        0 min,  0.001 sec
 * total energy  :   -21.5180619 Eh     change       -0.4477791E-03 Eh
   gradient norm :     0.0044467 Eh/α   predicted    -0.4004560E-03 ( -10.57%)
   displ. norm   :     0.1426360 α      lambda       -0.1016295E-03
   maximum displ.:     0.0949889 α      in ANC's #2, #5, #6, ...

........................................................................
.............................. CYCLE   32 ..............................
........................................................................
   1    -21.7271448 -0.217271E+02  0.135E-01    2.89       0.0  T
   2    -21.7271475 -0.275686E-05  0.840E-02    2.88       1.0  T
   3    -21.7271475 -0.188708E-07  0.137E-02    2.89       2.1  T
   4    -21.7271489 -0.139432E-05  0.671E-03    2.88       4.3  T
   5    -21.7271491 -0.215781E-06  0.306E-03    2.88       9.4  T
   6    -21.7271491 -0.102374E-07  0.609E-04    2.88      47.4  T
   7    -21.7271492 -0.558213E-09  0.251E-04    2.88     115.1  T
     SCC iter.                  ...        0 min,  0.002 sec
     gradient                   ...        0 min,  0.001 sec
 * total energy  :   -21.5181227 Eh     change       -0.6086437E-04 Eh
   gradient norm :     0.0066126 Eh/α   predicted    -0.5184956E-04 ( -14.81%)
   displ. norm   :     0.1646116 α      lambda       -0.9162265E-04
   maximum displ.:     0.1181753 α      in ANC's #2, #5, #1, ...

........................................................................
.............................. CYCLE   33 ..............................
........................................................................
   1    -21.7258406 -0.217258E+02  0.156E-01    2.89       0.0  T
   2    -21.7258446 -0.396681E-05  0.979E-02    2.88       1.0  T
   3    -21.7258434  0.113913E-05  0.214E-02    2.89       1.4  T
   4    -21.7258475 -0.406951E-05  0.783E-03    2.88       3.7  T
   5    -21.7258476 -0.889453E-07  0.322E-03    2.88       9.0  T
   6    -21.7258476 -0.262855E-07  0.667E-04    2.88      43.3  T
   7    -21.7258476 -0.313970E-08  0.229E-04    2.88     126.0  T
     SCC iter.                  ...        0 min,  0.002 sec
     gradient                   ...        0 min,  0.001 sec
 * total energy  :   -21.5181989 Eh     change       -0.7616631E-04 Eh
   gradient norm :     0.0085367 Eh/α   predicted    -0.4705156E-04 ( -38.23%)
   displ. norm   :     0.4084210 α      lambda       -0.2661421E-03
   maximum displ.:     0.2870481 α      in ANC's #2, #1, #5, ...

........................................................................
.............................. CYCLE   34 ..............................
........................................................................
   1    -21.7219669 -0.217220E+02  0.400E-01    2.89       0.0  T
   2    -21.7219947 -0.277681E-04  0.251E-01    2.88       1.0  T
   3    -21.7219917  0.301711E-05  0.529E-02    2.89       1.0  T
   4    -21.7220148 -0.231455E-04  0.208E-02    2.88       1.4  T
   5    -21.7220154 -0.555640E-06  0.925E-03    2.88       3.1  T
   6    -21.7220157 -0.352460E-06  0.171E-03    2.88      16.9  T
   7    -21.7220158 -0.158665E-07  0.650E-04    2.88      44.4  T
     SCC iter.                  ...        0 min,  0.002 sec
     gradient                   ...        0 min,  0.001 sec
 * total energy  :   -21.5182904 Eh     change       -0.9150034E-04 Eh
   gradient norm :     0.0200439 Eh/α   predicted    -0.1552770E-03 (  69.70%)
   displ. norm   :     0.0872976 α      lambda       -0.2662545E-03
   maximum displ.:     0.0630722 α      in ANC's #2, #5, #6, ...

........................................................................
.............................. CYCLE   35 ..............................
........................................................................
   1    -21.7252826 -0.217253E+02  0.948E-02    2.89       0.0  T
   2    -21.7252855 -0.292265E-05  0.603E-02    2.89       1.0  T
   3    -21.7252795  0.606953E-05  0.282E-02    2.89       1.0  T
   4    -21.7252874 -0.789782E-05  0.588E-03    2.89       4.9  T
   5    -21.7252875 -0.118388E-06  0.287E-03    2.89      10.1  T
   6    -21.7252875 -0.336806E-08  0.631E-04    2.89      45.8  T
     SCC iter.                  ...        0 min,  0.091 sec
     gradient                   ...        0 min,  0.001 sec
 * total energy  :   -21.5184677 Eh     change       -0.1772423E-03 Eh
   gradient norm :     0.0101592 Eh/α   predicted    -0.1341424E-03 ( -24.32%)
   displ. norm   :     0.2554206 α      lambda       -0.3274831E-03
   maximum displ.:     0.1644495 α      in ANC's #1, #2, #4, ...

........................................................................
.............................. CYCLE   36 ..............................
........................................................................
   1    -21.7271242 -0.217271E+02  0.224E-01    2.90       0.0  T
   2    -21.7271286 -0.445317E-05  0.137E-01    2.90       1.0  T
   3    -21.7271244  0.419959E-05  0.268E-02    2.90       1.1  T
   4    -21.7271318 -0.737799E-05  0.914E-03    2.90       3.2  T
   5    -21.7271320 -0.169276E-06  0.547E-03    2.90       5.3  T
   6    -21.7271321 -0.823257E-07  0.112E-03    2.90      25.9  T
   7    -21.7271321 -0.243244E-08  0.308E-04    2.90      93.6  T
     SCC iter.                  ...        0 min,  0.002 sec
     gradient                   ...        0 min,  0.001 sec
 * total energy  :   -21.5187393 Eh     change       -0.2716790E-03 Eh
   gradient norm :     0.0060161 Eh/α   predicted    -0.1744238E-03 ( -35.80%)
   displ. norm   :     0.6971436 α      lambda       -0.6555850E-03
   maximum displ.:     0.4146057 α      in ANC's #1, #2, #4, ...

........................................................................
.............................. CYCLE   37 ..............................
........................................................................
   1    -21.7245168 -0.217245E+02  0.612E-01    2.90       0.0  T
   2    -21.7245615 -0.447239E-04  0.378E-01    2.90       1.0  T
   3    -21.7245721 -0.105392E-04  0.527E-02    2.90       1.0  T
   4    -21.7245912 -0.191265E-04  0.275E-02    2.90       1.0  T
   5    -21.7245920 -0.849360E-06  0.173E-02    2.90       1.7  T
   6    -21.7245935 -0.145089E-05  0.267E-03    2.90      10.8  T
   7    -21.7245935 -0.283151E-07  0.878E-04    2.90      32.9  T
     SCC iter.                  ...        0 min,  0.002 sec
     gradient                   ...        0 min,  0.091 sec
 * total energy  :   -21.5193448 Eh     change       -0.6054830E-03 Eh
   gradient norm :     0.0166760 Eh/α   predicted    -0.4871329E-03 ( -19.55%)
   displ. norm   :     0.7221013 α      lambda       -0.8046509E-03
   maximum displ.:     0.4352165 α      in ANC's #2, #1, #4, ...

........................................................................
.............................. CYCLE   38 ..............................
........................................................................
   1    -21.7185526 -0.217186E+02  0.634E-01    2.90       0.0  T
   2    -21.7186047 -0.520704E-04  0.392E-01    2.89       1.0  T
   3    -21.7185647  0.399858E-04  0.870E-02    2.90       1.0  T
   4    -21.7186389 -0.741952E-04  0.317E-02    2.90       1.0  T
   5    -21.7186420 -0.311775E-05  0.192E-02    2.90       1.5  T
   6    -21.7186429 -0.880993E-06  0.297E-03    2.90       9.7  T
   7    -21.7186429 -0.350393E-07  0.953E-04    2.90      30.3  T
     SCC iter.                  ...        0 min,  0.002 sec
     gradient                   ...        0 min,  0.001 sec
 * total energy  :   -21.5196076 Eh     change       -0.2627937E-03 Eh
   gradient norm :     0.0328337 Eh/α   predicted    -0.6121329E-03 ( 132.93%)
   displ. norm   :     0.1841253 α      lambda       -0.1492488E-02
   maximum displ.:     0.1490747 α      in ANC's #5, #6, #15, ...

........................................................................
.............................. CYCLE   39 ..............................
........................................................................
   1    -21.7302692 -0.217303E+02  0.201E-01    2.91       0.0  T
   2    -21.7302919 -0.226648E-04  0.125E-01    2.93       1.0  T
   3    -21.7302523  0.395847E-04  0.757E-02    2.92       1.0  T
   4    -21.7303027 -0.504056E-04  0.167E-02    2.93       1.7  T
   5    -21.7303039 -0.117191E-05  0.686E-03    2.92       4.2  T
   6    -21.7303039 -0.707315E-07  0.328E-03    2.93       8.8  T
   7    -21.7303040 -0.265201E-07  0.131E-03    2.92      22.0  T
     SCC iter.                  ...        0 min,  0.002 sec
     gradient                   ...        0 min,  0.292 sec
 * total energy  :   -21.5201003 Eh     change       -0.4927159E-03 Eh
   gradient norm :     0.0208927 Eh/α   predicted    -0.7715466E-03 (  56.59%)
   displ. norm   :     0.2518880 α      lambda       -0.1336508E-02
   maximum displ.:     0.1394347 α      in ANC's #4, #3, #1, ...

........................................................................
.............................. CYCLE   40 ..............................
........................................................................
   1    -21.7284996 -0.217285E+02  0.296E-01    2.91       0.0  T
   2    -21.7285255 -0.259448E-04  0.180E-01    2.89       1.0  T
   3    -21.7285156  0.991868E-05  0.466E-02    2.90       1.0  T
   4    -21.7285292 -0.135607E-04  0.208E-02    2.89       1.4  T
   5    -21.7285327 -0.351713E-05  0.787E-03    2.89       3.7  T
   6    -21.7285328 -0.900315E-07  0.353E-03    2.90       8.2  T
   7    -21.7285328 -0.403510E-07  0.143E-03    2.90      20.2  T
     SCC iter.                  ...        0 min,  0.004 sec
     gradient                   ...        0 min,  0.002 sec
 * total energy  :   -21.5206772 Eh     change       -0.5768782E-03 Eh
   gradient norm :     0.0171198 Eh/α   predicted    -0.7106538E-03 (  23.19%)
   displ. norm   :     0.4218610 α      lambda       -0.8344645E-03
   maximum displ.:     0.2460728 α      in ANC's #2, #1, #4, ...

........................................................................
.............................. CYCLE   41 ..............................
........................................................................
   1    -21.7238933 -0.217239E+02  0.404E-01    2.91       0.0  T
   2    -21.7239185 -0.251276E-04  0.248E-01    2.91       1.0  T
   3    -21.7239109  0.753797E-05  0.501E-02    2.91       1.0  T
   4    -21.7239326 -0.216535E-04  0.215E-02    2.91       1.3  T
   5    -21.7239336 -0.105263E-05  0.132E-02    2.91       2.2  T
   6    -21.7239343 -0.622324E-06  0.340E-03    2.91       8.5  T
   7    -21.7239343 -0.136688E-07  0.583E-04    2.91      49.5  T
   8    -21.7239343 -0.513595E-09  0.230E-04    2.91     125.3  T
     SCC iter.                  ...        0 min,  0.004 sec
     gradient                   ...        0 min,  0.001 sec
 * total energy  :   -21.5209008 Eh     change       -0.2235744E-03 Eh
   gradient norm :     0.0260307 Eh/α   predicted    -0.4914832E-03 ( 119.83%)
   displ. norm   :     0.1151522 α      lambda       -0.7476872E-03
   maximum displ.:     0.0704139 α      in ANC's #4, #3, #1, ...

........................................................................
.............................. CYCLE   42 ..............................
........................................................................
   1    -21.7276732 -0.217277E+02  0.176E-01    2.90       0.0  T
   2    -21.7276825 -0.930063E-05  0.109E-01    2.90       1.0  T
   3    -21.7276833 -0.778166E-06  0.229E-02    2.89       1.3  T
   4    -21.7276859 -0.260083E-05  0.980E-03    2.90       2.9  T
   5    -21.7276861 -0.150616E-06  0.547E-03    2.90       5.3  T
   6    -21.7276862 -0.179044E-06  0.226E-03    2.90      12.8  T
     SCC iter.                  ...        0 min,  0.002 sec
     gradient                   ...        0 min,  0.091 sec
 * total energy  :   -21.5211502 Eh     change       -0.2493859E-03 Eh
   gradient norm :     0.0154989 Eh/α   predicted    -0.3788018E-03 (  51.89%)
   displ. norm   :     0.2408381 α      lambda       -0.7245354E-03
   maximum displ.:     0.1667057 α      in ANC's #1, #2, #6, ...
 * RMSD in coord.:     0.9580783 α      energy gain  -0.3666051E-02 Eh

generating ANC from model Hessian ...
Using Lindh-Hessian (1995)
 Shifting diagonal of input Hessian by   1.009645300629142E-002
 Lowest  eigenvalues of input Hessian
    0.010000   -0.000000   -0.000000   -0.000000    0.000000    0.000000
    0.000000    0.010423    0.010711    0.011317    0.011379    0.012348
    0.021981    0.023621    0.039149    0.044381    0.053532    0.074765
 Highest eigenvalues
    1.249264    1.281463    1.365918    1.494499    1.977154    2.281842
 

........................................................................
.............................. CYCLE   43 ..............................
........................................................................
   1    -21.7353815 -0.217354E+02  0.214E-01    2.94       0.0  T
   2    -21.7354066 -0.250645E-04  0.130E-01    2.95       1.0  T
   3    -21.7354031  0.348622E-05  0.363E-02    2.94       1.0  T
   4    -21.7354081 -0.504373E-05  0.185E-02    2.95       1.6  T
   5    -21.7354112 -0.305876E-05  0.606E-03    2.94       4.8  T
   6    -21.7354113 -0.837424E-07  0.305E-03    2.94       9.5  T
   7    -21.7354113 -0.169250E-07  0.115E-03    2.94      25.1  T
   8    -21.7354113 -0.240389E-08  0.230E-04    2.94     125.6  T
   9    -21.7354113 -0.101014E-09  0.971E-05    2.94     297.4  T
     SCC iter.                  ...        0 min,  0.002 sec
     gradient                   ...        0 min,  0.001 sec
 * total energy  :   -21.5210109 Eh     change        0.1392144E-03 Eh
   gradient norm :     0.0252902 Eh/α   predicted     0.0000000E+00 (-100.00%)
   displ. norm   :     0.2313640 α      lambda       -0.1179376E-02
   maximum displ.:     0.1633992 α      in ANC's #1, #6, #3, ...

........................................................................
.............................. CYCLE   44 ..............................
........................................................................
   1    -21.7293099 -0.217293E+02  0.541E-01    2.93       0.0  T
   2    -21.7293690 -0.590845E-04  0.349E-01    2.92       1.0  T
   3    -21.7292687  0.100266E-03  0.118E-01    2.93       1.0  T
   4    -21.7294166 -0.147930E-03  0.229E-02    2.92       1.3  T
   5    -21.7294169 -0.284472E-06  0.102E-02    2.92       2.8  T
   6    -21.7294170 -0.132497E-06  0.268E-03    2.92      10.8  T
   7    -21.7294171 -0.344539E-07  0.699E-04    2.92      41.3  T
     SCC iter.                  ...        0 min,  0.092 sec
     gradient                   ...        0 min,  0.001 sec
 * total energy  :   -21.5218599 Eh     change       -0.8489608E-03 Eh
   gradient norm :     0.0109407 Eh/α   predicted    -0.6212545E-03 ( -26.82%)
   displ. norm   :     0.2321534 α      lambda       -0.5355184E-03
   maximum displ.:     0.1659664 α      in ANC's #1, #3, #5, ...

........................................................................
.............................. CYCLE   45 ..............................
........................................................................
   1    -21.7245675 -0.217246E+02  0.371E-01    2.91       0.0  T
   2    -21.7245924 -0.249313E-04  0.235E-01    2.91       1.0  T
   3    -21.7245696  0.228226E-04  0.658E-02    2.92       1.0  T
   4    -21.7246117 -0.421673E-04  0.189E-02    2.91       1.5  T
   5    -21.7246121 -0.335231E-06  0.591E-03    2.91       4.9  T
   6    -21.7246121 -0.240587E-07  0.793E-04    2.91      36.4  T
   7    -21.7246121 -0.123829E-08  0.304E-04    2.91      94.8  T
     SCC iter.                  ...        0 min,  0.002 sec
     gradient                   ...        0 min,  0.001 sec
 * total energy  :   -21.5221038 Eh     change       -0.2438945E-03 Eh
   gradient norm :     0.0244963 Eh/α   predicted    -0.2821878E-03 (  15.70%)
   displ. norm   :     0.1899287 α      lambda       -0.6473588E-03
   maximum displ.:     0.1107953 α      in ANC's #3, #6, #1, ...

........................................................................
.............................. CYCLE   46 ..............................
........................................................................
   1    -21.7249993 -0.217250E+02  0.306E-01    2.87       0.0  T
   2    -21.7250121 -0.128607E-04  0.191E-01    2.86       1.0  T
   3    -21.7250148 -0.267138E-05  0.243E-02    2.85       1.2  T
   4    -21.7250178 -0.305009E-05  0.130E-02    2.85       2.2  T
   5    -21.7250188 -0.950474E-06  0.506E-03    2.85       5.7  T
   6    -21.7250189 -0.824057E-07  0.194E-03    2.85      14.9  T
     SCC iter.                  ...        0 min,  0.001 sec
     gradient                   ...        0 min,  0.092 sec
 * total energy  :   -21.5223235 Eh     change       -0.2196916E-03 Eh
   gradient norm :     0.0220600 Eh/α   predicted    -0.3353570E-03 (  52.65%)
   displ. norm   :     0.0880176 α      lambda       -0.5099862E-03
   maximum displ.:     0.0600055 α      in ANC's #3, #6, #8, ...

........................................................................
.............................. CYCLE   47 ..............................
........................................................................
   1    -21.7281276 -0.217281E+02  0.133E-01    2.89       0.0  T
   2    -21.7281334 -0.578325E-05  0.837E-02    2.88       1.0  T
   3    -21.7281339 -0.476396E-06  0.169E-02    2.88       1.7  T
   4    -21.7281355 -0.158209E-05  0.672E-03    2.88       4.3  T
   5    -21.7281355 -0.831586E-07  0.420E-03    2.88       6.9  T
   6    -21.7281356 -0.569759E-07  0.209E-03    2.88      13.8  T
     SCC iter.                  ...        0 min,  0.002 sec
     gradient                   ...        0 min,  0.001 sec
 * total energy  :   -21.5226834 Eh     change       -0.3599328E-03 Eh
   gradient norm :     0.0094019 Eh/α   predicted    -0.2569668E-03 ( -28.61%)
   displ. norm   :     0.2601361 α      lambda       -0.5416831E-03
   maximum displ.:     0.1991320 α      in ANC's #3, #1, #6, ...

........................................................................
.............................. CYCLE   48 ..............................
........................................................................
   1    -21.7278585 -0.217279E+02  0.394E-01    2.88       0.0  T
   2    -21.7278853 -0.268441E-04  0.249E-01    2.87       1.0  T
   3    -21.7278925 -0.711947E-05  0.410E-02    2.85       1.0  T
   4    -21.7279031 -0.106160E-04  0.204E-02    2.85       1.4  T
   5    -21.7279039 -0.833191E-06  0.756E-03    2.85       3.8  T
   6    -21.7279041 -0.188432E-06  0.163E-03    2.85      17.7  T
   7    -21.7279041 -0.193246E-07  0.543E-04    2.85      53.1  T
     SCC iter.                  ...        0 min,  0.002 sec
     gradient                   ...        0 min,  0.001 sec
 * total energy  :   -21.5229986 Eh     change       -0.3151340E-03 Eh
   gradient norm :     0.0160203 Eh/α   predicted    -0.2891686E-03 (  -8.24%)
   displ. norm   :     0.1904182 α      lambda       -0.4534378E-03
   maximum displ.:     0.1492415 α      in ANC's #3, #2, #4, ...

........................................................................
.............................. CYCLE   49 ..............................
........................................................................
   1    -21.7315798 -0.217316E+02  0.183E-01    2.90       0.0  T
   2    -21.7315879 -0.809196E-05  0.113E-01    2.89       1.0  T
   3    -21.7315886 -0.746278E-06  0.212E-02    2.88       1.4  T
   4    -21.7315908 -0.219991E-05  0.122E-02    2.88       2.4  T
   5    -21.7315916 -0.819034E-06  0.578E-03    2.89       5.0  T
   6    -21.7315917 -0.559776E-07  0.138E-03    2.89      21.0  T
   7    -21.7315917 -0.333404E-08  0.514E-04    2.89      56.2  T
     SCC iter.                  ...        0 min,  0.002 sec
     gradient                   ...        0 min,  0.001 sec
 * total energy  :   -21.5232804 Eh     change       -0.2818284E-03 Eh
   gradient norm :     0.0121284 Eh/α   predicted    -0.2349392E-03 ( -16.64%)
   displ. norm   :     0.4514145 α      lambda       -0.7155086E-03
   maximum displ.:     0.3467357 α      in ANC's #3, #2, #4, ...

........................................................................
.............................. CYCLE   50 ..............................
........................................................................
   1    -21.7270147 -0.217270E+02  0.528E-01    2.77       0.0  T
   2    -21.7270553 -0.406035E-04  0.326E-01    2.76       1.0  T
   3    -21.7269969  0.583901E-04  0.931E-02    2.73       1.0  T
   4    -21.7270837 -0.868025E-04  0.268E-02    2.73       1.1  T
   5    -21.7270849 -0.119171E-05  0.142E-02    2.74       2.0  T
   6    -21.7270852 -0.300741E-06  0.413E-03    2.74       7.0  T
   7    -21.7270852 -0.594398E-07  0.116E-03    2.74      24.9  T
   8    -21.7270853 -0.259658E-08  0.347E-04    2.74      83.3  T
     SCC iter.                  ...        0 min,  0.002 sec
     gradient                   ...        0 min,  0.001 sec
 * total energy  :   -21.5236223 Eh     change       -0.3419405E-03 Eh
   gradient norm :     0.0168944 Eh/α   predicted    -0.4306529E-03 (  25.94%)
   displ. norm   :     0.1257009 α      lambda       -0.3637131E-03
   maximum displ.:     0.0935076 α      in ANC's #2, #5, #6, ...

........................................................................
.............................. CYCLE   51 ..............................
........................................................................
   1    -21.7300690 -0.217301E+02  0.109E-01    2.75       0.0  T
   2    -21.7300748 -0.578704E-05  0.667E-02    2.76       1.0  T
   3    -21.7300691  0.570586E-05  0.301E-02    2.76       1.0  T
   4    -21.7300759 -0.676997E-05  0.935E-03    2.76       3.1  T
   5    -21.7300766 -0.701130E-06  0.315E-03    2.76       9.2  T
   6    -21.7300766 -0.547743E-08  0.858E-04    2.76      33.6  T
   7    -21.7300766 -0.437566E-09  0.288E-04    2.76     100.1  T
     SCC iter.                  ...        0 min,  0.002 sec
     gradient                   ...        0 min,  0.001 sec
 * total energy  :   -21.5238726 Eh     change       -0.2503131E-03 Eh
   gradient norm :     0.0065755 Eh/α   predicted    -0.1847310E-03 ( -26.20%)
   displ. norm   :     0.3823760 α      lambda       -0.4453875E-03
   maximum displ.:     0.2432432 α      in ANC's #2, #3, #6, ...

........................................................................
.............................. CYCLE   52 ..............................
........................................................................
   1    -21.7279682 -0.217280E+02  0.406E-01    2.78       0.0  T
   2    -21.7279940 -0.257275E-04  0.252E-01    2.78       1.0  T
   3    -21.7280045 -0.104827E-04  0.322E-02    2.79       1.0  T
   4    -21.7280073 -0.280964E-05  0.212E-02    2.79       1.4  T
   5    -21.7280092 -0.188903E-05  0.102E-02    2.78       2.8  T
   6    -21.7280094 -0.275893E-06  0.253E-03    2.78      11.4  T
   7    -21.7280095 -0.230201E-07  0.977E-04    2.78      29.5  T
     SCC iter.                  ...        0 min,  0.002 sec
     gradient                   ...        0 min,  0.001 sec
 * total energy  :   -21.5240029 Eh     change       -0.1302173E-03 Eh
   gradient norm :     0.0196887 Eh/α   predicted    -0.2552539E-03 (  96.02%)
   displ. norm   :     0.2434839 α      lambda       -0.6553524E-03
   maximum displ.:     0.1612268 α      in ANC's #2, #4, #5, ...

........................................................................
.............................. CYCLE   53 ..............................
........................................................................
   1    -21.7305389 -0.217305E+02  0.193E-01    2.80       0.0  T
   2    -21.7305509 -0.119915E-04  0.120E-01    2.80       1.0  T
   3    -21.7305512 -0.297889E-06  0.290E-02    2.80       1.0  T
   4    -21.7305559 -0.469268E-05  0.151E-02    2.80       1.9  T
   5    -21.7305571 -0.125103E-05  0.565E-03    2.80       5.1  T
   6    -21.7305572 -0.227724E-07  0.185E-03    2.80      15.6  T
   7    -21.7305572 -0.151443E-07  0.695E-04    2.80      41.6  T
     SCC iter.                  ...        0 min,  0.092 sec
     gradient                   ...        0 min,  0.001 sec
 * total energy  :   -21.5243134 Eh     change       -0.3105149E-03 Eh
   gradient norm :     0.0098175 Eh/α   predicted    -0.3471026E-03 (  11.78%)
   displ. norm   :     0.3146181 α      lambda       -0.3730970E-03
   maximum displ.:     0.1888099 α      in ANC's #2, #3, #4, ...

........................................................................
.............................. CYCLE   54 ..............................
........................................................................
   1    -21.7256958 -0.217257E+02  0.317E-01    2.72       0.0  T
   2    -21.7257049 -0.908541E-05  0.194E-01    2.71       1.0  T
   3    -21.7256885  0.163323E-04  0.487E-02    2.70       1.0  T
   4    -21.7257125 -0.239182E-04  0.138E-02    2.70       2.1  T
   5    -21.7257126 -0.116873E-06  0.664E-03    2.70       4.4  T
   6    -21.7257127 -0.152343E-06  0.143E-03    2.70      20.1  T
   7    -21.7257127 -0.467585E-08  0.528E-04    2.70      54.6  T
     SCC iter.                  ...        0 min,  0.002 sec
     gradient                   ...        0 min,  0.001 sec
 * total energy  :   -21.5243946 Eh     change       -0.8121191E-04 Eh
   gradient norm :     0.0146544 Eh/α   predicted    -0.2050122E-03 ( 152.44%)
   displ. norm   :     0.1201198 α      lambda       -0.5496566E-03
   maximum displ.:     0.0518540 α      in ANC's #2, #5, #3, ...

........................................................................
.............................. CYCLE   55 ..............................
........................................................................
   1    -21.7315830 -0.217316E+02  0.130E-01    2.72       0.0  T
   2    -21.7315894 -0.637166E-05  0.804E-02    2.72       1.0  T
   3    -21.7315823  0.707183E-05  0.360E-02    2.73       1.0  T
   4    -21.7315924 -0.100303E-04  0.101E-02    2.73       2.9  T
   5    -21.7315928 -0.437773E-06  0.460E-03    2.73       6.3  T
   6    -21.7315929 -0.635678E-07  0.238E-03    2.73      12.1  T
   7    -21.7315929 -0.166270E-07  0.734E-04    2.73      39.3  T
     SCC iter.                  ...        0 min,  0.002 sec
     gradient                   ...        0 min,  0.091 sec
 * total energy  :   -21.5245126 Eh     change       -0.1180172E-03 Eh
   gradient norm :     0.0163811 Eh/α   predicted    -0.2787927E-03 ( 136.23%)
   displ. norm   :     0.1910266 α      lambda       -0.6854356E-03
   maximum displ.:     0.1029944 α      in ANC's #2, #4, #3, ...

........................................................................
.............................. CYCLE   56 ..............................
........................................................................
   1    -21.7314791 -0.217315E+02  0.211E-01    2.74       0.0  T
   2    -21.7314874 -0.832424E-05  0.131E-01    2.74       1.0  T
   3    -21.7314869  0.468621E-06  0.240E-02    2.74       1.2  T
   4    -21.7314910 -0.409265E-05  0.116E-02    2.73       2.5  T
   5    -21.7314915 -0.440861E-06  0.643E-03    2.73       4.5  T
   6    -21.7314916 -0.150386E-06  0.218E-03    2.73      13.2  T
   7    -21.7314916 -0.944001E-08  0.639E-04    2.73      45.1  T
     SCC iter.                  ...        0 min,  0.002 sec
     gradient                   ...        0 min,  0.001 sec
 * total energy  :   -21.5246274 Eh     change       -0.1147992E-03 Eh
   gradient norm :     0.0171349 Eh/α   predicted    -0.3552230E-03 ( 209.43%)
   displ. norm   :     0.0970670 α      lambda       -0.5074049E-03
   maximum displ.:     0.0726628 α      in ANC's #4, #7, #3, ...

........................................................................
.............................. CYCLE   57 ..............................
........................................................................
   1    -21.7313703 -0.217314E+02  0.867E-02    2.72       0.0  T
   2    -21.7313734 -0.309955E-05  0.520E-02    2.71       1.0  T
   3    -21.7313711  0.232125E-05  0.220E-02    2.70       1.3  T
   4    -21.7313745 -0.343770E-05  0.660E-03    2.70       4.4  T
   5    -21.7313746 -0.146332E-06  0.324E-03    2.70       8.9  T
   6    -21.7313747 -0.577954E-07  0.126E-03    2.70      22.9  T
   7    -21.7313747 -0.211288E-08  0.399E-04    2.70      72.3  T
     SCC iter.                  ...        0 min,  0.092 sec
     gradient                   ...        0 min,  0.002 sec
 * total energy  :   -21.5248609 Eh     change       -0.2334496E-03 Eh
   gradient norm :     0.0078669 Eh/α   predicted    -0.2560952E-03 (   9.70%)
   displ. norm   :     0.2901382 α      lambda       -0.2804043E-03
   maximum displ.:     0.1902486 α      in ANC's #2, #4, #3, ...

........................................................................
.............................. CYCLE   58 ..............................
........................................................................
   1    -21.7269610 -0.217270E+02  0.290E-01    2.65       0.0  T
   2    -21.7269740 -0.129818E-04  0.178E-01    2.66       1.0  T
   3    -21.7269315  0.424940E-04  0.731E-02    2.67       1.0  T
   4    -21.7269838 -0.523571E-04  0.144E-02    2.67       2.0  T
   5    -21.7269843 -0.433307E-06  0.722E-03    2.66       4.0  T
   6    -21.7269843 -0.294771E-07  0.175E-03    2.66      16.5  T
   7    -21.7269843 -0.897901E-08  0.790E-04    2.66      36.5  T
     SCC iter.                  ...        0 min,  0.004 sec
     gradient                   ...        0 min,  0.092 sec
 * total energy  :   -21.5249133 Eh     change       -0.5248434E-04 Eh
   gradient norm :     0.0164424 Eh/α   predicted    -0.1520028E-03 ( 189.62%)
   displ. norm   :     0.0653093 α      lambda       -0.3492641E-03
   maximum displ.:     0.0326277 α      in ANC's #3, #7, #1, ...

........................................................................
.............................. CYCLE   59 ..............................
........................................................................
   1    -21.7328091 -0.217328E+02  0.775E-02    2.69       0.0  T
   2    -21.7328155 -0.635764E-05  0.466E-02    2.68       1.0  T
   3    -21.7328128  0.268614E-05  0.246E-02    2.68       1.2  T
   4    -21.7328163 -0.354819E-05  0.915E-03    2.68       3.2  T
   5    -21.7328169 -0.573803E-06  0.275E-03    2.68      10.5  T
   6    -21.7328169 -0.264154E-07  0.149E-03    2.68      19.4  T
     SCC iter.                  ...        0 min,  0.003 sec
     gradient                   ...        0 min,  0.001 sec
 * total energy  :   -21.5250259 Eh     change       -0.1125214E-03 Eh
   gradient norm :     0.0099525 Eh/α   predicted    -0.1753783E-03 (  55.86%)
   displ. norm   :     0.2394897 α      lambda       -0.4598389E-03
   maximum displ.:     0.1214925 α      in ANC's #4, #2, #3, ...

........................................................................
.............................. CYCLE   60 ..............................
........................................................................
   1    -21.7317101 -0.217317E+02  0.214E-01    2.67       0.0  T
   2    -21.7317173 -0.711771E-05  0.130E-01    2.67       1.0  T
   3    -21.7317204 -0.316314E-05  0.132E-02    2.66       2.2  T
   4    -21.7317205 -0.672852E-07  0.767E-03    2.66       3.8  T
   5    -21.7317206 -0.918214E-07  0.488E-03    2.66       5.9  T
   6    -21.7317207 -0.107039E-06  0.117E-03    2.66      24.7  T
   7    -21.7317207 -0.605729E-08  0.462E-04    2.66      62.4  T
     SCC iter.                  ...        0 min,  0.094 sec
     gradient                   ...        0 min,  0.001 sec
 * total energy  :   -21.5251464 Eh     change       -0.1204910E-03 Eh
   gradient norm :     0.0140604 Eh/α   predicted    -0.2431077E-03 ( 101.76%)
   displ. norm   :     0.1923668 α      lambda       -0.3763132E-03
   maximum displ.:     0.1316503 α      in ANC's #4, #2, #6, ...

........................................................................
.............................. CYCLE   61 ..............................
........................................................................
   1    -21.7316616 -0.217317E+02  0.260E-01    2.71       0.0  T
   2    -21.7316730 -0.114266E-04  0.164E-01    2.71       1.0  T
   3    -21.7316798 -0.672137E-05  0.138E-02    2.72       2.1  T
   4    -21.7316800 -0.202347E-06  0.728E-03    2.72       4.0  T
   5    -21.7316800 -0.318322E-07  0.325E-03    2.71       8.9  T
   6    -21.7316800 -0.218505E-07  0.116E-03    2.71      24.9  T
   7    -21.7316800 -0.545144E-08  0.521E-04    2.71      55.4  T
     SCC iter.                  ...        0 min,  0.094 sec
     gradient                   ...        0 min,  0.002 sec
 * total energy  :   -21.5253006 Eh     change       -0.1542962E-03 Eh
   gradient norm :     0.0119294 Eh/α   predicted    -0.1951196E-03 (  26.46%)
   displ. norm   :     0.2251468 α      lambda       -0.3579044E-03
   maximum displ.:     0.1253712 α      in ANC's #2, #3, #4, ...

........................................................................
.............................. CYCLE   62 ..............................
........................................................................
   1    -21.7282348 -0.217282E+02  0.211E-01    2.59       0.0  T
   2    -21.7282421 -0.720715E-05  0.127E-01    2.59       1.0  T
   3    -21.7282210  0.210530E-04  0.517E-02    2.60       1.0  T
   4    -21.7282459 -0.249375E-04  0.106E-02    2.60       2.7  T
   5    -21.7282464 -0.476669E-06  0.515E-03    2.60       5.6  T
   6    -21.7282464 -0.206188E-07  0.965E-04    2.59      29.9  T
   7    -21.7282464 -0.155530E-08  0.258E-04    2.59     112.0  T
     SCC iter.                  ...        0 min,  0.004 sec
     gradient                   ...        0 min,  0.092 sec
 * total energy  :   -21.5253798 Eh     change       -0.7917178E-04 Eh
   gradient norm :     0.0155694 Eh/α   predicted    -0.1880238E-03 ( 137.49%)
[...]
   5    -21.7332637 -0.135787E-06  0.311E-03    2.71       9.3  T
   6    -21.7332637 -0.359163E-08  0.959E-04    2.71      30.1  T
   7    -21.7332637 -0.147407E-08  0.339E-04    2.71      85.2  T
     SCC iter.                  ...        0 min,  0.093 sec
     gradient                   ...        0 min,  0.001 sec
 * total energy  :   -21.5263293 Eh     change       -0.6045483E-04 Eh
   gradient norm :     0.0016314 Eh/α   predicted    -0.7874911E-04 (  30.26%)
   displ. norm   :     0.0831956 α      lambda       -0.1258385E-04
   maximum displ.:     0.0696558 α      in ANC's #3, #2, #6, ...

........................................................................
.............................. CYCLE   76 ..............................
........................................................................
   1    -21.7332911 -0.217333E+02  0.105E-01    2.71       0.0  T
   2    -21.7332924 -0.127604E-05  0.666E-02    2.71       1.0  T
   3    -21.7332928 -0.443801E-06  0.849E-03    2.71       3.4  T
   4    -21.7332933 -0.440994E-06  0.423E-03    2.71       6.8  T
   5    -21.7332933 -0.335465E-07  0.619E-04    2.71      46.7  T
   6    -21.7332933 -0.398636E-09  0.112E-04    2.71     256.8  T
     SCC iter.                  ...        0 min,  0.001 sec
     gradient                   ...        0 min,  0.001 sec
 * total energy  :   -21.5263443 Eh     change       -0.1505589E-04 Eh
   gradient norm :     0.0007348 Eh/α   predicted    -0.6312134E-05 ( -58.08%)
   displ. norm   :     0.2053065 α      lambda       -0.2111550E-04
   maximum displ.:     0.1768486 α      in ANC's #3, #6, #2, ...

........................................................................
.............................. CYCLE   77 ..............................
........................................................................
   1    -21.7324183 -0.217324E+02  0.286E-01    2.72       0.0  T
   2    -21.7324281 -0.982264E-05  0.182E-01    2.72       1.0  T
   3    -21.7324301 -0.193460E-05  0.263E-02    2.72       1.1  T
   4    -21.7324353 -0.524240E-05  0.104E-02    2.72       2.8  T
   5    -21.7324354 -0.119559E-06  0.119E-03    2.72      24.2  T
   6    -21.7324354 -0.358009E-08  0.399E-04    2.72      72.3  T
   7    -21.7324354 -0.328118E-09  0.207E-04    2.72     139.2  T
     SCC iter.                  ...        0 min,  0.092 sec
     gradient                   ...        0 min,  0.001 sec
 * total energy  :   -21.5263501 Eh     change       -0.5770899E-05 Eh
   gradient norm :     0.0040269 Eh/α   predicted    -0.1075576E-04 (  86.38%)
   displ. norm   :     0.0335530 α      lambda       -0.1910152E-04
   maximum displ.:     0.0289275 α      in ANC's #3, #6, #4, ...

........................................................................
.............................. CYCLE   78 ..............................
........................................................................
   1    -21.7332250 -0.217332E+02  0.637E-02    2.71       0.0  T
   2    -21.7332255 -0.528201E-06  0.409E-02    2.71       1.0  T
   3    -21.7332247  0.865957E-06  0.116E-02    2.71       2.5  T
   4    -21.7332260 -0.128435E-05  0.188E-03    2.71      15.4  T
   5    -21.7332260 -0.370035E-08  0.649E-04    2.71      44.5  T
     SCC iter.                  ...        0 min,  0.001 sec
     gradient                   ...        0 min,  0.001 sec
 * total energy  :   -21.5263615 Eh     change       -0.1140667E-04 Eh
   gradient norm :     0.0011663 Eh/α   predicted    -0.9562157E-05 ( -16.17%)
   displ. norm   :     0.0336320 α      lambda       -0.4309888E-05
   maximum displ.:     0.0242776 α      in ANC's #3, #2, #1, ...

........................................................................
.............................. CYCLE   79 ..............................
........................................................................
   1    -21.7335252 -0.217335E+02  0.321E-02    2.70       0.0  T
   2    -21.7335253 -0.127612E-06  0.199E-02    2.70       1.4  T
   3    -21.7335254 -0.478540E-07  0.281E-03    2.70      10.3  T
   4    -21.7335254 -0.402346E-07  0.160E-03    2.70      18.1  T
   5    -21.7335254 -0.594500E-08  0.316E-04    2.70      91.4  T
   6    -21.7335254 -0.299295E-09  0.142E-04    2.70     203.5  T
     SCC iter.                  ...        0 min,  0.001 sec
     gradient                   ...        0 min,  0.001 sec
 * total energy  :   -21.5263658 Eh     change       -0.4293789E-05 Eh
   gradient norm :     0.0006146 Eh/α   predicted    -0.2156839E-05 ( -49.77%)
   displ. norm   :     0.0622325 α      lambda       -0.4443064E-05
   maximum displ.:     0.0510307 α      in ANC's #3, #1, #2, ...

   *** GEOMETRY OPTIMIZATION CONVERGED AFTER 79 ITERATIONS ***

------------------------------------------------------------------------
 total energy gain   :        -0.0206711 Eh      -12.9713 kcal/mol
 total RMSD          :         2.1125641 a0        1.1179 Å
 total power (kW/mol):        -0.6869881 (step)  -12.0611 (real)
------------------------------------------------------------------------

 ANCopt (total)                0 d,  0 h,  0 min,  4.500 sec
 optimizer setup                ...        0 min,  0.090 sec (  2.005%)
 model hessian                  ...        0 min,  0.099 sec (  2.200%)
 ANC generation                 ...        0 min,  0.002 sec (  0.035%)
 coordinate transformation      ...        0 min,  0.003 sec (  0.071%)
 single point calculation       ...        0 min,  4.089 sec ( 90.882%)
 optimization log               ...        0 min,  0.006 sec (  0.123%)
 hessian update                 ...        0 min,  0.187 sec (  4.166%)
 rational function              ...        0 min,  0.007 sec (  0.161%)

================
 final structure:
================
12
 xtb: 6.2.3 (830e466)
C         1.30148195743023    0.68890575375758   -2.88856030194749
C         1.12440523713000   -0.44959802605392   -2.22151113266226
C         0.92557136617809   -0.48881506681287   -0.77262599190230
O         0.42380876264762    3.26137147370158   -0.13914197960309
O         1.21682387420455    3.58378977902513   -1.27573081118488
O         0.82934792198039    0.46997734067691   -0.04352246844326
H         1.24276062095081    4.54713709793450   -1.23455349816791
H         1.30772755389860    1.64146659330755   -2.38272803725697
H         1.45115602761998    0.70427755433274   -3.95503834527559
H         0.86480967169768   -1.51033395686304   -0.35383131795007
H         1.12782512531260   -1.40688738881108   -2.72422662271901
H         0.57327188095187    2.29831884580497   -0.04432949288714
 
 Bond Distances (Angstroems)
 ---------------------------
C1-C2=1.3314         C1-H8=1.0786         C1-H9=1.0770         C2-C1=1.3314         C2-C3=1.4630         C2-H11=1.0813        
C3-C2=1.4630         C3-O6=1.2084         C3-H10=1.1057        O4-O5=1.4229         O4-H12=0.9792        O5-O4=1.4229         
O5-H7=0.9646         O6-C3=1.2084         H7-O5=0.9646         H8-C1=1.0786         H9-C1=1.0770         H10-C3=1.1057        
H11-C2=1.0813        H12-O4=0.9792        
 C  H  Rav=1.0856 sigma=0.0117  Rmin=1.0770  Rmax=1.1057     4
 C  C  Rav=1.3972 sigma=0.0658  Rmin=1.3314  Rmax=1.4630     2
 O  H  Rav=0.9719 sigma=0.0073  Rmin=0.9646  Rmax=0.9792     2
 O  C  Rav=1.2084 sigma=0.0000  Rmin=1.2084  Rmax=1.2084     1
 O  O  Rav=1.4229 sigma=0.0000  Rmin=1.4229  Rmax=1.4229     1
 
 selected bond angles (degree)
 --------------------
H8-C1-C2=121.40                H9-C1-C2=121.79                H9-C1-H8=116.81                C3-C2-C1=122.49                
H11-C2-C1=121.58               H11-C2-C3=115.92               O6-C3-C2=125.95                H10-C3-C2=114.04               
H10-C3-O6=120.01               H12-O4-O5=102.42               H7-O5-O4=101.96                
 
 selected dihedral angles (degree)
 ---------------------------------
C3-C2-C1-H8=  0.12            C3-C2-C1-H9=179.73            H11-C2-C1-H8=180.64           H11-C2-C1-H9=  0.26           
O6-C3-C2-C1=  4.11            O6-C3-C2-H11=183.61           H10-C3-C2-C1=184.14           H10-C3-C2-H11=  3.65          
H7-O5-O4-H12=193.38           
 
 CMA Distance (Angstroems)
 ---------------------------
R(CMA):  3.4393
           -------------------------------------------------
          |                Final Singlepoint                |
           -------------------------------------------------

          ...................................................
          :                      SETUP                      :
          :.................................................:
          :  # basis functions                  30          :
          :  # atomic orbitals                  30          :
          :  # shells                           18          :
          :  # electrons                        36          :
          :  max. iterations                   100          :
          :  Hamiltonian                  GFN2-xTB          :
          :  restarted?                      false          :
          :  GBSA solvation                  false          :
          :  PC potential                    false          :
          :  electronic temp.          300.0000000     K    :
          :  accuracy                    1.0000000          :
          :  -> integral cutoff          0.2500000E+02      :
          :  -> integral neglect         0.1000000E-07      :
          :  -> SCF convergence          0.1000000E-05 Eh   :
          :  -> wf. convergence          0.1000000E-03 e    :
          :  Broyden damping             0.4000000          :
          ...................................................

 iter      E             dE          RMSdq      gap      omega  full diag
   1    -21.7335254 -0.217335E+02  0.355E-05    2.70       0.0  T
   2    -21.7335254 -0.191847E-11  0.231E-05    2.70    1249.9  T
   3    -21.7335254 -0.113332E-11  0.111E-05    2.70    2593.0  T

   *** convergence criteria satisfied after 3 iterations ***

         #    Occupation            Energy/Eh            Energy/eV
      -------------------------------------------------------------
         1        2.0000           -0.7269915             -19.7824
       ...           ...                  ...                  ...
        12        2.0000           -0.5280485             -14.3689
        13        2.0000           -0.5080048             -13.8235
        14        2.0000           -0.4926336             -13.4052
        15        2.0000           -0.4633066             -12.6072
        16        2.0000           -0.4504779             -12.2581
        17        2.0000           -0.4167292             -11.3398
        18        2.0000           -0.4085820             -11.1181 (HOMO)
        19                         -0.3092624              -8.4155 (LUMO)
        20                         -0.1906294              -5.1873
        21                         -0.1314051              -3.5757
        22                          0.0842676               2.2930
        23                          0.1008688               2.7448
       ...                                ...                  ...
        30                          0.6620044              18.0141
      -------------------------------------------------------------
                  HL-Gap            0.0993196 Eh            2.7026 eV
             Fermi-level           -0.3589222 Eh           -9.7668 eV

 SCC (total)                   0 d,  0 h,  0 min,  0.004 sec
 SCC setup                      ...        0 min,  0.000 sec (  5.562%)
 Dispersion                     ...        0 min,  0.000 sec (  1.101%)
 integral evaluation            ...        0 min,  0.000 sec ( 12.535%)
 zeroth order Hamiltonian       ...        0 min,  0.000 sec (  1.862%)
 iterations                     ...        0 min,  0.001 sec ( 25.240%)
 molecular gradient             ...        0 min,  0.002 sec ( 43.410%)
 printout                       ...        0 min,  0.000 sec (  4.947%)

         :::::::::::::::::::::::::::::::::::::::::::::::::::::
         ::                     SUMMARY                     ::
         :::::::::::::::::::::::::::::::::::::::::::::::::::::
         :: total energy             -21.526365783594 Eh    ::
         :: gradient norm              0.000614982549 Eh/a0 ::
         :: HOMO-LUMO gap              2.702623796083 eV    ::
         ::.................................................::
         :: SCC energy               -21.733525408928 Eh    ::
         :: -> isotropic ES            0.053659750089 Eh    ::
         :: -> anisotropic ES         -0.011822659308 Eh    ::
         :: -> anisotropic XC         -0.000802022886 Eh    ::
         :: -> dispersion             -0.005464059185 Eh    ::
         :: repulsion energy           0.207150020962 Eh    ::
         :: add. restraining           0.000000000000 Eh    ::
         :::::::::::::::::::::::::::::::::::::::::::::::::::::

           -------------------------------------------------
          |                Property Printout                |
           -------------------------------------------------

    * Orbital Energies and Occupations

         #    Occupation            Energy/Eh            Energy/eV
      -------------------------------------------------------------
         1        2.0000           -0.7269915             -19.7824
       ...           ...                  ...                  ...
         6        2.0000           -0.5971518             -16.2493
         7        2.0000           -0.5857530             -15.9392
         8        2.0000           -0.5739673             -15.6184
         9        2.0000           -0.5695323             -15.4978
        10        2.0000           -0.5496507             -14.9568
        11        2.0000           -0.5289185             -14.3926
        12        2.0000           -0.5280485             -14.3689
        13        2.0000           -0.5080048             -13.8235
        14        2.0000           -0.4926336             -13.4052
        15        2.0000           -0.4633066             -12.6072
        16        2.0000           -0.4504779             -12.2581
        17        2.0000           -0.4167292             -11.3398
        18        2.0000           -0.4085820             -11.1181 (HOMO)
        19                         -0.3092624              -8.4155 (LUMO)
        20                         -0.1906294              -5.1873
        21                         -0.1314051              -3.5757
        22                          0.0842676               2.2930
        23                          0.1008688               2.7448
        24                          0.1393477               3.7918
        25                          0.1719497               4.6790
        26                          0.2107731               5.7354
        27                          0.2132183               5.8020
        28                          0.4219612              11.4821
        29                          0.4862813              13.2324
        30                          0.6620044              18.0141
      -------------------------------------------------------------
                  HL-Gap            0.0993196 Eh            2.7026 eV
             Fermi-level           -0.3589222 Eh           -9.7668 eV

     #   Z        covCN         q      C6AA      α(0)
     1   6 C      2.841    -0.052    29.273     8.867
     2   6 C      2.886    -0.050    29.245     8.866
     3   6 C      2.765     0.215    23.454     7.931
     4   8 O      1.733    -0.346    19.803     6.009
     5   8 O      1.734    -0.340    19.693     5.992
     6   8 O      0.856    -0.341    20.529     6.075
     7   1 H      0.805     0.315     0.678     1.293
     8   1 H      0.926     0.109     1.705     2.042
     9   1 H      0.926     0.065     2.139     2.287
    10   1 H      0.922     0.023     2.689     2.564
    11   1 H      0.925     0.052     2.300     2.372
    12   1 H      0.803     0.349     0.590     1.207

 Mol. C6AA /au·bohr⁶  :       1329.144164
 Mol. C8AA /au·bohr⁸  :      28905.600980
 Mol. α(0) /au        :         55.504512


Wiberg/Mayer (AO) data.
largest (>0.10) Wiberg bond orders for each atom
          total WBO             WBO to atom ...
     1  C   3.966        C    2 1.882    H    9 0.976    H    8 0.958
     2  C   3.990        C    1 1.882    C    3 1.080    H   11 0.967
     3  C   3.920        O    6 1.844    C    2 1.080    H   10 0.937
     4  O   1.860        O    5 1.003    H   12 0.838
     5  O   1.908        O    4 1.003    H    7 0.895
     6  O   2.099        C    3 1.844
     7  H   0.901        O    5 0.895
     8  H   0.988        C    1 0.958
     9  H   0.996        C    1 0.976
    10  H   0.999        C    3 0.937
    11  H   0.997        C    2 0.967
    12  H   0.878        O    4 0.838

molecular dipole:
                 x           y           z       tot (Debye)
 q only:        0.264      -0.512      -0.906
   full:        0.325      -0.683      -0.996       3.178
molecular quadrupole (traceless):
                xx          xy          yy          xz          yz          zz
 q only:       -2.943       1.169      -0.286      -3.456      -1.877       3.229
  q+dip:       -5.119       1.500       2.627      -3.096      -2.079       2.492
   full:       -3.332       1.457       1.283      -3.384      -2.164       2.049

           -------------------------------------------------
          |                Geometry Summary                 |
           -------------------------------------------------

      molecular mass/u    :       90.0780670
   center of mass at/Å    :        0.9590726       1.3362287      -1.1630868
  moments of inertia/u·Å² :        0.9800310E+02   0.2778715E+03   0.3704403E+03
rotational constants/cm⁻¹ :        0.1720112E+00   0.6066701E-01   0.4550701E-01

 * 8 selected distances

     #   Z        #   Z                                     value/Å
     1   6 C      2   6 C                                 1.3313533
     4   8 O      5   8 O                                 1.4229057 (max)
     3   6 C      6   8 O                                 1.2083600
     5   8 O      7   1 H                                 0.9645757 (min)
     1   6 C      8   1 H                                 1.0785534
     1   6 C      9   1 H                                 1.0770395
     2   6 C     11   1 H                                 1.0812666
     4   8 O     12   1 H                                 0.9791828

 * 5 distinct bonds (by element types)

   Z      Z             #   av. dist./Å        max./Å        min./Å
   1 H    6 C           3     1.0789532     1.0812666     1.0770395
   6 C    6 C           1     1.3313533     1.3313533     1.3313533
   1 H    8 O           2     0.9718793     0.9791828     0.9645757
   6 C    8 O           1     1.2083600     1.2083600     1.2083600
   8 O    8 O           1     1.4229057     1.4229057     1.4229057


optimized geometry written to: xtbopt.xyz


           -------------------------------------------------
          | TOTAL ENERGY              -21.526365783594 Eh   |
          | GRADIENT NORM               0.000614982549 Eh/α |
          | HOMO-LUMO GAP               2.702623796083 eV   |
           -------------------------------------------------

------------------------------------------------------------------------
 * finished run on 2020/12/23 at 21:43:39.661     
------------------------------------------------------------------------
 total:
 * wall-time:     0 d,  0 h,  0 min,  4.958 sec
 *  cpu-time:     0 d,  0 h,  0 min, 20.071 sec
 * ratio c/w:     4.048 speedup
 SCF:
 * wall-time:     0 d,  0 h,  0 min,  0.007 sec
 *  cpu-time:     0 d,  0 h,  0 min,  0.206 sec
 * ratio c/w:    30.769 speedup
 ANC optimizer:
 * wall-time:     0 d,  0 h,  0 min,  4.597 sec
 *  cpu-time:     0 d,  0 h,  0 min, 18.292 sec
 * ratio c/w:     3.979 speedup

