12
 energy: -21.521314421506 gnorm: 0.133083443901 xtb: 6.2.3 (830e466)
C         1.42590000000000    1.20590000000000   -2.82530000000000
C         0.16713000000000    0.28950000000000   -0.00980000000000
C         1.33253000000000   -0.29806000000000    0.03237000000000
O         0.46786000000000    2.21811000000000   -2.62300000000000
O         0.89951000000000    2.97314000000000   -1.62907000000000
O         2.40525000000000   -0.82701000000000    0.05348000000000
H         1.17232000000000    3.82361000000000   -2.05817000000000
H         2.31732000000000    1.28483000000000   -2.15776000000000
H         1.78524000000000    1.24621000000000   -3.87131000000000
H         0.95028000000000    0.21990000000000   -2.64756000000000
H        -0.59563000000000   -0.09219000000000   -0.67998000000000
H         0.06130000000000    1.29567000000000    0.38030000000000
12
 energy: -21.532825585424 gnorm: 0.039164262612 xtb: 6.2.3 (830e466)
C         1.43742734596548    1.18176132706879   -2.85656183072105
C         0.19984849350555    0.31540018624701   -0.05578471056224
C         1.33788461180871   -0.28650887875912    0.02445438707898
O         0.48188677516847    2.19690552171916   -2.62641842885970
O         0.88411343099185    3.02427123381219   -1.60197123470685
O         2.36773491629747   -0.83309679147685    0.08291277232098
H         1.17690949817700    3.85173545730259   -2.03510837113504
H         2.29400571747082    1.28757263465589   -2.17948733272843
H         1.79123511833023    1.23742095946170   -3.89345436183245
H         0.97638957585637    0.20405154875813   -2.67876006975494
H        -0.61083920685383   -0.11682397717200   -0.62767325747786
H         0.05241372328188    1.27692077838252    0.41205243837859
12
 energy: -21.533728185722 gnorm: 0.018697868164 xtb: 6.2.3 (830e466)
C         1.45621273589066    1.17553970279746   -2.88767968385146
C         0.17165247275655    0.27542616034380    0.02569933104513
C         1.31362792275531   -0.30976454731975    0.05438093183775
O         0.49363312415222    2.18321544131455   -2.63750871777721
O         0.88144074127988    3.04520305574457   -1.59227198886248
O         2.35572461375246   -0.81511494267285    0.08436729427497
H         1.16568062356704    3.86450508432607   -2.02470483492665
H         2.29725634392408    1.28662881228978   -2.20803074748478
H         1.79892235160271    1.25764489130250   -3.92136227752755
H         0.99909618693006    0.20101226309442   -2.72381386687215
H        -0.60944111677268   -0.09544300165790   -0.59603638824735
H         0.06520400016172    1.27075708043735    0.39116094839177
12
 energy: -21.534737514426 gnorm: 0.007795188322 xtb: 6.2.3 (830e466)
C         1.46887837845239    1.18144323854894   -2.90789948907602
C         0.18305911274153    0.29995871198761    0.00427684158900
C         1.32105915342718   -0.29636945535272    0.06568338655312
O         0.49750658949658    2.17938459174342   -2.64556861677849
O         0.88645159775830    3.04011756203700   -1.59158005922760
O         2.34456695575218   -0.85023513216805    0.10827381834424
H         1.15263244804571    3.86448212390271   -2.02062782675967
H         2.31054599612551    1.28625147244306   -2.22846766025237
H         1.80689706319377    1.28438826446337   -3.94157078857265
H         1.01329833663506    0.20307450098528   -2.75970530495594
H        -0.64225308440556   -0.12792930228510   -0.53629209012591
H         0.04636745277734    1.27504342369450    0.41767778926229
12
 energy: -21.534841743236 gnorm: 0.011597548514 xtb: 6.2.3 (830e466)
C         1.47693692029365    1.18947387761417   -2.92815191586678
C         0.17822170533701    0.29953527619196    0.01029750561020
C         1.30537980037402   -0.32074443488446    0.06528116569111
O         0.49912520531640    2.17763731279821   -2.64856902838966
O         0.89886039025025    3.02744140053510   -1.59107929880582
O         2.34672239454426   -0.84041392377732    0.14360048975521
H         1.13965965228544    3.86247879165701   -2.01827745907418
H         2.32237722856374    1.28592191761567   -2.24917651475434
H         1.81374789233236    1.31105559353050   -3.96173851885801
H         1.02569663117161    0.20500838526621   -2.79405746716102
H        -0.67179823649486   -0.13544262929403   -0.49396795968309
H         0.05408041602610    1.27765843274699    0.43003900153638
12
 energy: -21.535199377995 gnorm: 0.007037637021 xtb: 6.2.3 (830e466)
C         1.48544428317945    1.19754053926169   -2.95012951278097
C         0.16807574438843    0.29513377102424    0.03869457641056
C         1.30330132078564   -0.30915057605645    0.09591014072369
O         0.50072513599919    2.17348927671426   -2.64769252596332
O         0.91596219642480    3.01133625484379   -1.58862964876027
O         2.33005404630578   -0.85983224075630    0.14944057500173
H         1.12135087947720    3.86004498797926   -2.01525153052562
H         2.33551088548945    1.28496058800757   -2.27240268567152
H         1.82015590087720    1.34020435539092   -3.98344357455768
H         1.04071245570498    0.20593298842333   -2.83174108346691
H        -0.67483567368973   -0.14890361248676   -0.45958935446808
H         0.04255282505758    1.28885366765447    0.42903462405838
12
 energy: -21.535382987448 gnorm: 0.006376505192 xtb: 6.2.3 (830e466)
C         1.49537295923729    1.20328185417257   -2.97190041932631
C         0.15842525401163    0.28982345206916    0.06349775771892
C         1.29517929983294   -0.31027218011789    0.11462887073751
O         0.50698333139707    2.16806410511507   -2.64830980111912
O         0.92979545225401    3.00100532035446   -1.58558631315343
O         2.31909227881483   -0.86440493801890    0.16192953939267
H         1.10305241548699    3.85928011917451   -2.00771971840131
H         2.34356507792953    1.28266237832026   -2.29233357600510
H         1.82876354912406    1.36589244875265   -4.00201039506435
H         1.05449056560216    0.20884469452782   -2.87229816149592
H        -0.69036074204277   -0.16239223288937   -0.41461089070266
H         0.04465055835223    1.29782497853968    0.41891310741912
12
 energy: -21.535598238158 gnorm: 0.007066206150 xtb: 6.2.3 (830e466)
C         1.50939811921433    1.21177351679984   -3.00293790806697
C         0.14619584187330    0.28534558626968    0.09351979957706
C         1.28246280710660   -0.31546829945394    0.13670008926785
O         0.51655772248587    2.15901433973062   -2.64850731229918
O         0.94889031432250    2.98611061729596   -1.58246697247138
O         2.30579743173529   -0.86845243753510    0.18515537166748
H         1.07468126231951    3.85696128874480   -1.99491749912488
H         2.35338769750794    1.27474651701442   -2.31781488956428
H         1.84494773288149    1.40740185226901   -4.02611630221346
H         1.07205565527060    0.21378859948264   -2.93696506332832
H        -0.71900386220819   -0.18408093679627   -0.33931777660788
H         0.05363927749073    1.31246935617840    0.39786846316396
12
 energy: -21.535830078522 gnorm: 0.006926325980 xtb: 6.2.3 (830e466)
C         1.52580742491863    1.22340434276886   -3.04258402691365
C         0.13204158611239    0.28106141934370    0.12992167234672
C         1.26658448742553   -0.32410598894206    0.16494736834811
O         0.52619917135660    2.14512238162556   -2.64786724450089
O         0.97051016886269    2.96810903520117   -1.58191884759566
O         2.29095528307856   -0.87434923910125    0.22058375155642
H         1.03854886073226    3.85109906802003   -1.97961519849076
H         2.36292595045105    1.25720887609979   -2.34686610462924
H         1.86992055653926    1.46712302655703   -4.05363109641350
H         1.09043221641344    0.22190232111481   -3.02806707158289
H        -0.75188464345655   -0.20532603575268   -0.24095243123032
H         0.06696893756609    1.32836079306511    0.37024922910562
12
 energy: -21.536093892304 gnorm: 0.005266531190 xtb: 6.2.3 (830e466)
C         1.54121465720240    1.23603147838551   -3.08054954990992
C         0.12074176439396    0.27848393036899    0.16330191362036
C         1.25261105426324   -0.33270924494970    0.19260095551640
O         0.53286518219694    2.12686371748406   -2.64473693033237
O         0.99067091975418    2.95407565126202   -1.58740715157257
O         2.27732143752588   -0.88151330768825    0.25702262286925
H         1.00284347109724    3.84297185034392   -1.97021112662939
H         2.36808143768532    1.23032510990817   -2.37039859943899
H         1.90093076206908    1.53302292638927   -4.07323019964530
H         1.10378986581320    0.23547506475224   -3.12744306962596
H        -0.78136718156188   -0.22028216656522   -0.13830709202434
H         0.07930662956038    1.33686499030906    0.34355822717277
12
 energy: -21.536398951966 gnorm: 0.015294085806 xtb: 6.2.3 (830e466)
C         1.56351503416708    1.25489339320486   -3.12920806600003
C         0.10550035094169    0.27382164364702    0.20987381640034
C         1.23303553047870   -0.34751227736826    0.23313083842514
O         0.53866359187923    2.09227465411118   -2.62508877432420
O         1.03254172780505    2.93988853052407   -1.60066773912083
O         2.25597613830241   -0.89997218633592    0.30576879947918
H         0.93821757652251    3.83874395570134   -1.97130032415918
H         2.37643596670538    1.18171530284619   -2.40154908422782
H         1.94681123299704    1.63501496761679   -4.08989330843797
H         1.12211564715642    0.26091055167080   -3.27121962933725
H        -0.82034967192766   -0.23976672828523    0.01284434950824
H         0.09654687497206    1.34959819266726    0.29150912179428
12
 energy: -21.537063735101 gnorm: 0.016427181248 xtb: 6.2.3 (830e466)
C         1.57188141719238    1.26990145215687   -3.14587989621075
C         0.10281212767488    0.26785373461947    0.23256975544793
C         1.22536282501192   -0.36501121101759    0.25635407540834
O         0.53292774324454    2.05340387561798   -2.59574137478041
O         1.05960979532946    2.95465294550714   -1.63363164721266
O         2.24809081142264   -0.91868127713781    0.33616868694095
H         0.89580628640079    3.83515574887786   -2.00180173867443
H         2.36556063009084    1.12071869792583   -2.40185295639206
H         1.98991353490359    1.71523495490759   -4.06181073774508
H         1.11497674612029    0.30175608403173   -3.37688361724750
H        -0.82585853300952   -0.23033113125125    0.11498685175551
H         0.10792661561811    1.33495612576231    0.24172259871004
12
 energy: -21.536549750452 gnorm: 0.040086471256 xtb: 6.2.3 (830e466)
C         1.57971806286876    1.28472375105097   -3.13681932573789
C         0.10773858217261    0.26073611160830    0.23775680656940
C         1.22528071062347   -0.37941062182907    0.26481355184555
O         0.53306816510984    2.02045298268155   -2.56312334467895
O         1.07558788076340    2.99399175429314   -1.67152253190876
O         2.23905091700265   -0.94961614951171    0.33129221706667
H         0.86773611569534    3.83935942894762   -2.04323530947882
H         2.35181470603905    1.06558276179369   -2.38578049605436
H         2.03419141460688    1.78385751635184   -4.00035019619771
H         1.10330325555404    0.35451144221913   -3.44845837375993
H        -0.85709673791939   -0.27567048009319    0.26618425035484
H         0.12861692748324    1.34109150248787    0.11344275197977
12
 energy: -21.537734180632 gnorm: 0.023667002496 xtb: 6.2.3 (830e466)
C         1.58020363508391    1.27304555318077   -3.12763236123486
C         0.10964738612680    0.26256941076194    0.23047808661963
C         1.22490301438237   -0.37973952463775    0.26591315337464
O         0.54620721253173    2.01574497852619   -2.54181910215217
O         1.10545170798164    3.00273635029371   -1.67153532500221
O         2.23548337523304   -0.95598288069239    0.33093600308183
H         0.82913025567108    3.86449728098125   -2.05821659472164
H         2.36183978725383    1.05431713669158   -2.40010438387193
H         2.01626078683706    1.77802635330649   -3.99214904244628
H         1.10532628823509    0.34795388960833   -3.43622524125873
H        -0.83966966170739   -0.25174870467555    0.23144615594696
H         0.11422621237072    1.32819015665557    0.13310865166456
12
 energy: -21.536870018440 gnorm: 0.041876279825 xtb: 6.2.3 (830e466)
C         1.56234215212995    1.25820958732693   -3.12075064396838
C         0.11683253076079    0.26328385616107    0.23712654291922
C         1.23703087825705   -0.36872864626344    0.27669471577560
O         0.54579746376103    2.03272434767952   -2.55083487328902
O         1.06998927068742    2.99510937490990   -1.65493789227838
O         2.25121703658715   -0.93767672876840    0.33755026969809
H         0.86054959806912    3.84574364205548   -2.04100883896007
H         2.33672642923658    1.03034025423799   -2.38046167861557
H         2.01380386524418    1.78276448645781   -3.98778492478997
H         1.07894122009084    0.32245901197138   -3.45381420291788
H        -0.79713375395078   -0.22606957628049    0.16283917779146
H         0.11291330912656    1.34145039051238    0.13958234863471
12
 energy: -21.538067514151 gnorm: 0.017090441540 xtb: 6.2.3 (830e466)
C         1.56875025396752    1.26195812398550   -3.11151927119682
C         0.12381535631922    0.27345465382166    0.20933046269825
C         1.23827183812782   -0.36663748811715    0.25978534742778
O         0.54222215108121    2.02184347614407   -2.52998315373932
O         1.08133894326450    3.00924730478770   -1.66138155535487
O         2.24781350719420   -0.94336947241308    0.32243222918036
H         0.85392156225243    3.85067764262111   -2.06223041796175
H         2.34549577987413    1.02800447198385   -2.38128730962585
H         2.01258735817503    1.77603893384181   -3.97226214397480
H         1.08901353888314    0.33883823255875   -3.43291685853267
H        -0.81840512113325   -0.24002932303355    0.19209270303333
H         0.10418483199393    1.32958344381947    0.13213996804618
12
 energy: -21.535133161092 gnorm: 0.058349025051 xtb: 6.2.3 (830e466)
C         1.59046813852545    1.28510161749544   -3.14278341212672
C         0.10927820612343    0.26026111310295    0.24663705372473
C         1.21723910106031   -0.39593207892985    0.29218013417447
O         0.54157602434877    1.97339106671852   -2.47462575320740
O         1.14308752775735    3.01806955537528   -1.68387972581519
O         2.22881551495471   -0.96948909821163    0.36729736198379
H         0.77058769506374    3.85647818680724   -2.09337131015311
H         2.35258929804343    0.96578663041408   -2.40141184493411
H         2.05423872466676    1.87438939060733   -3.95913238023966
H         1.09988383779629    0.38892817356798   -3.55949765374848
H        -0.85228151449830   -0.25898766881988    0.34860418721368
H         0.13352744615792    1.34161311187271    0.02418334312777
12
 energy: -21.538486577563 gnorm: 0.008522742683 xtb: 6.2.3 (830e466)
C         1.57800354349923    1.27263608334787   -3.11982094657641
C         0.11976796168321    0.26178436135331    0.22968243593731
C         1.23044118221289   -0.38665705900812    0.27948626365956
O         0.55069150905819    2.00470444486620   -2.51042036221093
O         1.09864525432923    3.02276200869238   -1.68155843442216
O         2.23963719855236   -0.96546194576872    0.34128192212307
H         0.81286115017228    3.85679599274312   -2.08314058223048
H         2.34600536779333    0.99341308486560   -2.39475436083659
H         2.03461034825082    1.81793384857217   -3.94839504960434
H         1.08580914067693    0.37736612139646   -3.48754367804151
H        -0.82597972565569   -0.24503842097463    0.26824857982735
H         0.11851706942708    1.32937147991452    0.07113421237493
12
 energy: -21.536845356803 gnorm: 0.044156014439 xtb: 6.2.3 (830e466)
C         1.58071942906593    1.26589145210007   -3.13483980442568
C         0.12632342492846    0.27768620321091    0.23299768239414
C         1.23394187512096   -0.37213956447540    0.28909207251163
O         0.55355847252767    1.99130135110501   -2.51012719227389
O         1.09233289406495    3.01543435562951   -1.68542688501136
O         2.23894602152029   -0.95593655372472    0.35081317343144
H         0.80839521267987    3.83851086042537   -2.08801628309440
H         2.33229784721431    0.95045856470665   -2.39228771324307
H         2.06603928686491    1.87212699623840   -3.94546849242745
H         1.08048451479288    0.36851407023419   -3.57105978450408
H        -0.82731588242719   -0.22370585495926    0.29994083473532
H         0.10328690364685    1.31146811950942    0.11858239190719
12
 energy: -21.538644278501 gnorm: 0.004150047231 xtb: 6.2.3 (830e466)
C         1.58008099450440    1.27073840647159   -3.12126284834507
C         0.12046292289411    0.26383315415611    0.23156005627869
C         1.23050656414818   -0.38440672304844    0.28228910232579
O         0.55140914148310    1.99674578088418   -2.49772013515232
O         1.10009654257607    3.02573489290539   -1.68341725263804
O         2.23952424061230   -0.96259439105111    0.34100474212704
H         0.80616970158853    3.84972860134756   -2.09414955501619
H         2.34284534449997    0.97250584783918   -2.39743579186180
H         2.04413050824195    1.83767136969715   -3.93825067097313
H         1.08555870721776    0.38248258415104   -3.51334961517422
H        -0.82521831573865   -0.23618759052228    0.28224127763902
H         0.11344364797216    1.32335806716977    0.07269069079002
12
 energy: -21.538705452354 gnorm: 0.006866061257 xtb: 6.2.3 (830e466)
C         1.57934168853629    1.26900506445027   -3.10995272498061
C         0.12449482191711    0.26231550961073    0.22635862690527
C         1.23357831459755   -0.38758006825467    0.27739915181073
O         0.55691874548571    1.99636206782086   -2.49131292900239
O         1.10159729488988    3.03761546602475   -1.69136112369076
O         2.24272366186933   -0.96608465293965    0.33257833488268
H         0.79447816040479    3.85658456385151   -2.10686290004843
H         2.33611645860218    0.95423012650972   -2.38440541202351
H         2.05229860972894    1.83867555740861   -3.91482081005228
H         1.07183857264721    0.39434861975320   -3.51675838795660
H        -0.82346534913895   -0.23715381407389    0.29416232896873
H         0.11908902045982    1.32129155983872    0.04917584518695
12
 energy: -21.538773251177 gnorm: 0.003783972690 xtb: 6.2.3 (830e466)
C         1.57918506405288    1.26854915834826   -3.10675343113899
C         0.12524904207207    0.25913559872643    0.21035801981969
C         1.23380938912860   -0.39080641336763    0.27299329454030
O         0.55289872621556    1.99966936301688   -2.49115581488457
O         1.09421950788078    3.04038194579964   -1.68980725244878
O         2.24583033265866   -0.96429926116330    0.33129875550391
H         0.79497348228516    3.85664911039793   -2.11513591970570
H         2.32623407506949    0.94283354900651   -2.37824461471088
H         2.06426812845452    1.84109730705879   -3.90443944594261
H         1.07244305563814    0.40020053926621   -3.52489206809391
H        -0.82204387746313   -0.23282436387243    0.31601923198179
H         0.12194307400714    1.31902346678286    0.04395924507952
12
 energy: -21.538862836908 gnorm: 0.007614538562 xtb: 6.2.3 (830e466)
C         1.57909278977760    1.26718243027602   -3.09688821083545
C         0.12918146517313    0.25986806728561    0.23156189625899
C         1.23737084899444   -0.39258719911287    0.27122657591324
O         0.54206107450761    2.00833339162605   -2.48988595637634
O         1.07364675643786    3.04938207011672   -1.68692083671206
O         2.24995699378658   -0.96794686091591    0.30773421492506
H         0.79719838573471    3.85738795518990   -2.14186850049799
H         2.29888039849929    0.91149828321505   -2.35941649357498
H         2.09721327775837    1.84934706453391   -3.87322976173851
H         1.07351940047271    0.41723501041811   -3.54766967345105
H        -0.81475125899509   -0.22638846093904    0.35080379248594
H         0.12563986785263    1.30629824830659   -0.00124704639705
12
 energy: -21.538946562288 gnorm: 0.005766626607 xtb: 6.2.3 (830e466)
C         1.57965267602782    1.26680778516819   -3.09417208765418
C         0.13113444189105    0.25876899174586    0.22618953262206
C         1.24217563940973   -0.38921993252601    0.25878165302901
O         0.53975461629130    2.00789405354951   -2.49465416921394
O         1.06662394584319    3.04938360076198   -1.68908134064593
O         2.24852622410745   -0.97364123348311    0.30890425443714
H         0.80157856114114    3.85842307065489   -2.14998668729254
H         2.28993805227457    0.90555476402087   -2.34867797992286
H         2.10605553123404    1.85454804594285   -3.85873333927449
H         1.07184318712855    0.42370416142331   -3.55751497211562
H        -0.81173543887056   -0.22693348634163    0.37624113688110
H         0.12346256352157    1.30432017908343   -0.01309600084993
12
 energy: -21.538900399518 gnorm: 0.011134665965 xtb: 6.2.3 (830e466)
C         1.58127997968445    1.26670338250772   -3.08897063427612
C         0.13115305080145    0.25010622688399    0.20850571794013
C         1.23648675835054   -0.40514058769014    0.26636392377194
O         0.53663012494405    2.00349719121168   -2.50672445975169
O         1.05355977009532    3.04800345221638   -1.69698276595796
O         2.25957501606212   -0.96192881382430    0.28860727373545
H         0.81356029250731    3.86159046766409   -2.16626120937019
H         2.27357427600197    0.89779183376765   -2.32552911443507
H         2.12094656863159    1.86603723167541   -3.82725938539930
H         1.06829895971810    0.43688037956316   -3.57676829149508
H        -0.81744743233283   -0.21923660945735    0.42828980751113
H         0.13139263553577    1.29530584548185   -0.03907086227342
12
 energy: -21.539081034626 gnorm: 0.003303931054 xtb: 6.2.3 (830e466)
C         1.57981754741093    1.26745379163937   -3.08805034932314
C         0.13293753104710    0.25387983116016    0.22488835373351
C         1.24218030145899   -0.39691508512249    0.25834225046506
O         0.53334098531550    2.00663568785522   -2.50579186225809
O         1.04997307270154    3.05031039723101   -1.69561226421329
O         2.25515426577954   -0.97082718821515    0.29033432194022
H         0.81308390841440    3.86207783784625   -2.16876708077420
H         2.26843910619496    0.89110479816601   -2.32697643563865
H         2.12721178070871    1.86386415935365   -3.82618820186081
H         1.07059244066985    0.43847674531271   -3.57748004880249
H        -0.80958652072527   -0.22123515240125    0.42021460685909
H         0.12586558102360    1.29478417717465   -0.04071329012740
12
 energy: -21.539134129114 gnorm: 0.003701686671 xtb: 6.2.3 (830e466)
C         1.57933394057938    1.26836087179516   -3.08377023227461
C         0.13471317143679    0.25271647421408    0.22960382262645
C         1.24476749156509   -0.39737150304436    0.25249848511242
O         0.52763026665265    2.00926470621635   -2.51176458541650
O         1.03719690075559    3.05291917167088   -1.69751030314608
O         2.25684610840180   -0.97366397537427    0.27941418582044
H         0.81840100886953    3.86426176828271   -2.18099990891699
H         2.25248056940561    0.87771090249097   -2.31574208445339
H         2.14520318151157    1.86737348397403   -3.80707916523524
H         1.07299486469611    0.44780702761700   -3.58980155288423
H        -0.80466962930066   -0.21791877965741    0.44736401859877
H         0.12411212542637    1.28814985181496   -0.05801267983120
12
 energy: -21.539234091310 gnorm: 0.003847073230 xtb: 6.2.3 (830e466)
C         1.57817032965552    1.27036874135886   -3.07544857337967
C         0.13806264932072    0.24979464719707    0.23805975007245
C         1.24835478601318   -0.40036458413957    0.24266986746237
O         0.51611860035529    2.01449101488751   -2.53003621697932
O         1.00866592496486    3.05666206577305   -1.70349415357406
O         2.26181347074374   -0.97585820212009    0.25147542049615
H         0.83106682467289    3.86870442815570   -2.20331860574608
H         2.21617777612403    0.85034051885519   -2.29179323347402
H         2.18407350158619    1.87259884648798   -3.76411307046680
H         1.08078257391607    0.46771367688770   -3.61754007425644
H        -0.79330382991239   -0.20797141673020    0.50605391656451
H         0.11902739255972    1.27313026338690   -0.08831502671923
12
 energy: -21.539305291704 gnorm: 0.004466771681 xtb: 6.2.3 (830e466)
C         1.57821139300197    1.27156055499519   -3.06877498871254
C         0.14081572144988    0.24778490654013    0.24329269683893
C         1.25048556768309   -0.40310270969931    0.23315697539779
O         0.50697145186263    2.01973193774897   -2.55116654710162
O         0.98170283813362    3.05720458872414   -1.70813527814035
O         2.26566452920317   -0.97588493123640    0.22298831718068
H         0.84203752690522    3.87040524673734   -2.21749298117948
H         2.18177833254328    0.82681316409530   -2.27077453774232
H         2.21939786024927    1.87591761723917   -3.72341595932394
H         1.09164010810240    0.48574233635472   -3.64501461588006
H        -0.78160751176834   -0.19585026083927    0.56769692123635
H         0.11191218263362    1.25928754934011   -0.11816000257358
12
 energy: -21.539368610389 gnorm: 0.004304426532 xtb: 6.2.3 (830e466)
C         1.57842585071683    1.27157294383340   -3.06605093952665
C         0.14313499116655    0.24902525883307    0.24924058956767
C         1.25140734557696   -0.40330207083357    0.22608429223207
O         0.50028855029579    2.02458880997231   -2.57733478452000
O         0.95735821470479    3.05136941656143   -1.71060470022063
O         2.26807568495166   -0.97277453392890    0.19614166119369
H         0.85201773362278    3.86819699463744   -2.21773417561980
H         2.15039685723246    0.81006380278191   -2.25696619872809
H         2.24703249867754    1.87374598210489   -3.69016428825772
H         1.10646385948534    0.49867542495999   -3.66877151343962
H        -0.76681805561771   -0.18118565463254    0.61149470459846
H         0.10122646918680    1.24963362571063   -0.13113464727949
12
 energy: -21.539338063687 gnorm: 0.011154056549 xtb: 6.2.3 (830e466)
C         1.58041001034664    1.27172579606379   -3.06028910922942
C         0.14785309604471    0.24999497770410    0.25910327739828
C         1.25509081942121   -0.40327282696623    0.21024281355471
O         0.48566418172217    2.03449165226546   -2.62234083521349
O         0.90869727049973    3.03967255047428   -1.71014296204800
O         2.27173305196164   -0.97075071194169    0.15093087368399
H         0.87513597368060    3.86353459999214   -2.22670322460444
H         2.09160644727999    0.77675388461797   -2.22546163911378
H         2.30165621195181    1.87883600577002   -3.62603967012910
H         1.12938088527778    0.52615112842774   -3.71788354019519
H        -0.74134354411236   -0.15777729137395    0.71440597764797
H         0.08312559592582    1.23025023496644   -0.18162196175159
12
 energy: -21.539431086830 gnorm: 0.003643287551 xtb: 6.2.3 (830e466)
C         1.58131043554956    1.27041352480270   -3.06718738370396
C         0.14494152064358    0.25255405638727    0.25422485467933
C         1.25279950904401   -0.39990539103968    0.21776932679733
O         0.49595504362290    2.02903476256070   -2.60095055831610
O         0.93646686172801    3.03933109694680   -1.70714128638572
O         2.26681543182783   -0.97141700325138    0.17721593726686
H         0.86040771886005    3.86109653173827   -2.21024692309057
H         2.12483765657501    0.79809784502657   -2.24656004012999
H         2.26905568775007    1.87648392064147   -3.66444727401209
H         1.11998625121118    0.50907006138360   -3.69210949341052
H        -0.75277150325064   -0.16876691522580    0.66136882125392
H         0.08920538643819    1.24361751002956   -0.15773598094857
12
 energy: -21.539452465694 gnorm: 0.002940556161 xtb: 6.2.3 (830e466)
C         1.58205348470648    1.26954955653576   -3.06956314006864
C         0.14594542796444    0.25537603919097    0.25636481610764
C         1.25365990618201   -0.39706990216907    0.21539697577426
O         0.49201805286173    2.03059632471293   -2.61403120237764
O         0.92480112093082    3.03055976805595   -1.70444442823269
O         2.26791095252091   -0.96859880763274    0.16903878980644
H         0.86560129158154    3.85721500529664   -2.20607919420705
H         2.11234830226057    0.79142001596107   -2.24176827254622
H         2.28111021475397    1.87714162956028   -3.65542571180643
H         1.12484470187463    0.51262319314949   -3.70408643195870
H        -0.74666323241092   -0.16347573690965    0.67059480610278
H         0.08537977677358    1.24427291424846   -0.15179700659383
12
 energy: -21.539495128330 gnorm: 0.003815072419 xtb: 6.2.3 (830e466)
C         1.58629344259819    1.26838527707842   -3.07439243201646
C         0.14645106481763    0.26181937242707    0.26222587119643
C         1.25378609999587   -0.39065349918240    0.20667170325838
O         0.48743949992833    2.03305927420325   -2.64139137463692
O         0.90202185160108    3.01199380561435   -1.69969881285989
O         2.26691546546346   -0.96400289409815    0.14582046588055
H         0.87151017851821    3.84723165145929   -2.18928601967578
H         2.08684746474213    0.77785912773036   -2.23461292182495
H         2.30727041021059    1.87880945890948   -3.63225511688207
H         1.14176797267767    0.52212245583320   -3.73088321184585
H        -0.73257508508560   -0.14841054148309    0.72009315346634
H         0.07128163453221    1.24139651150830   -0.16809130405985
12
 energy: -21.539522045566 gnorm: 0.004629710617 xtb: 6.2.3 (830e466)
C         1.59043287484462    1.26760839123677   -3.08097841252200
C         0.14593747786311    0.26905235899330    0.26841581899007