      -----------------------------------------------------------      
     |                   =====================                   |     
     |                           x T B                           |     
     |                   =====================                   |     
     |                         S. Grimme                         |     
     |          Mulliken Center for Theoretical Chemistry        |     
     |                    University of Bonn                     |     
      -----------------------------------------------------------      

   * xtb version 6.2.3 (830e466) compiled by 'ehlert@majestix' on 2020-03-16

   xtb is free software: you can redistribute it and/or modify it under
   the terms of the GNU Lesser General Public License as published by
   the Free Software Foundation, either version 3 of the License, or
   (at your option) any later version.
   
   xtb is distributed in the hope that it will be useful,
   but WITHOUT ANY WARRANTY; without even the implied warranty of
   MERCHANTABILITY or FITNESS FOR A PARTICULAR PURPOSE.  See the
   GNU Lesser General Public License for more details.
   
   Cite this work as:
   * S. Grimme, C. Bannwarth, P. Shushkov, J. Chem. Theory Comput., 2017,
     13, 1989-2009. DOI: 10.1021/acs.jctc.7b00118
   * C. Bannwarth, S. Ehlert and S. Grimme., J. Chem. Theory Comput., 2019,
     15, 1652-1671. DOI: 10.1021/acs.jctc.8b01176
   * P. Pracht, E. Caldeweyher, S. Ehlert, S. Grimme, ChemRxiv, 2019, preprint.
     DOI: 10.26434/chemrxiv.8326202.v1
   
   for DFT-D4:
   * E. Caldeweyher, C. Bannwarth and S. Grimme, J. Chem. Phys., 2017,
     147, 034112. DOI: 10.1063/1.4993215
   * E. Caldeweyher, S. Ehlert, A. Hansen, H. Neugebauer, S. Spicher,
     C. Bannwarth and S. Grimme, J. Chem. Phys., 2019, 150, 154122.
     DOI: 10.1063/1.5090222
   
   for sTDA-xTB:
   * S. Grimme and C. Bannwarth, J. Chem. Phys., 2016, 145, 054103.
     DOI: 10.1063/1.4959605
   
   in the mass-spec context:
   * V. Asgeirsson, C. Bauer and S. Grimme, Chem. Sci., 2017, 8, 4879.
     DOI: 10.1039/c7sc00601b
   
   for metadynamics refer to:
   * S. Grimme, J. Chem. Theory Comput., 2019, 155, 2847-2862
     DOI: 10.1021/acs.jctc.9b00143
   
   with help from (in alphabetical order)
   C. Bannwarth, F. Bohle, G. Brandenburg, E. Caldeweyher, M. Checinski,
   S. Dohm, S. Ehlert, S. Ehrlich, F. März, H. Neugebauer, J. Pisarek,
   P. Pracht, P. Shushkov, and S. Spicher.
   
 * started run on 2020/12/23 at 21:39:48.716     

           -------------------------------------------------
          |                Calculation Setup                |
           -------------------------------------------------

          program call               : xtb -c 0 -u 0 -a 1.0 --iterations 100 --opt normal --namespace product_0 /scratch/bell/zhao922/YARP/paper-example/potential_product/test/reaction_channel/pp_0/pp_10_0.xyz
          hostname                   : bell-fe05.rcac.purdue.edu
          calculation namespace      : product_0
          coordinate file            : /scratch/bell/zhao922/YARP/paper-example/potential_product/test/reaction_channel/pp_0/pp_10_0.xyz
          omp threads                :                    32
          number of atoms            :                    12
          number of electrons        :                    36
          charge                     :                     0
          spin                       :                   0.0
          first test random number   :      0.60753077344974

           ------------------------------------------------- 
          |                 G F N 2 - x T B                 |
          | Geometry, Frequencies, Noncovalent interactions |
          |            JCTC 2019 parametrisation            |
           ------------------------------------------------- 
             k(s)              :                1.8500
             k(p)              :                2.2300
             k(d)              :                2.2300
             k(f)              :                2.0000
             kEN (H0ij)        :               -2.0000
             D4 a1             :                0.5200
             D4 a2             :                5.0000
             D4 s6             :                1.0000
             D4 s8             :                2.7000
             D4 s9             :                5.0000
             alphaj            :                2.0000

  Z AO/shell   Hii/eV     exponent
  1     Wed Apr 25 08:07:45 CEST 2018   EN: 2.200 GM2: 0.406  GM3: 0.0800  RAES: 1.40
     1s    -10.707211    1.230000
  6     Wed Apr 25 08:07:45 CEST 2018   EN: 2.550 GM2: 0.538  GM3: 0.1500  RAES: 3.00
     2s    -13.970922    2.096432
     2p    -10.063292    1.800000
  8     Wed Apr 25 08:07:45 CEST 2018   EN: 3.440 GM2: 0.452  GM3:-0.0517  RAES: 1.80
     2s    -20.229985    2.439742
     2p    -15.503117    2.137023

           ------------------------------------------------- 
          |        Self-Consistent Charge Iterations        |
           ------------------------------------------------- 

          ...................................................
          :                      SETUP                      :
          :.................................................:
          :  # basis functions                  30          :
          :  # atomic orbitals                  30          :
          :  # shells                           18          :
          :  # electrons                        36          :
          :  max. iterations                   100          :
          :  Hamiltonian                  GFN2-xTB          :
          :  restarted?                      false          :
          :  GBSA solvation                  false          :
          :  PC potential                    false          :
          :  electronic temp.          300.0000000     K    :
          :  accuracy                    1.0000000          :
          :  -> integral cutoff          0.2500000E+02      :
          :  -> integral neglect         0.1000000E-07      :
          :  -> SCF convergence          0.1000000E-05 Eh   :
          :  -> wf. convergence          0.1000000E-03 e    :
          :  Broyden damping             0.4000000          :
          ...................................................

 iter      E             dE          RMSdq      gap      omega  full diag
   1    -21.7004923 -0.217005E+02  0.465E+00    5.07       0.0  T
   2    -21.7386668 -0.381746E-01  0.253E+00    4.29       1.0  T
   3    -21.7405732 -0.190633E-02  0.145E+00    4.75       1.0  T
   4    -21.7439102 -0.333704E-02  0.180E-01    4.46       1.0  T
   5    -21.7441173 -0.207073E-03  0.784E-02    4.52       1.0  T
   6    -21.7441250 -0.768064E-05  0.187E-02    4.52       1.5  T
   7    -21.7441253 -0.359631E-06  0.840E-03    4.51       3.4  T
   8    -21.7441255 -0.141713E-06  0.268E-03    4.52      10.8  T
   9    -21.7441255 -0.207548E-07  0.148E-03    4.52      19.4  T
  10    -21.7441255 -0.902354E-08  0.470E-04    4.52      61.4  T
  11    -21.7441255 -0.559623E-09  0.150E-04    4.52     192.6  T

   *** convergence criteria satisfied after 11 iterations ***

         #    Occupation            Energy/Eh            Energy/eV
      -------------------------------------------------------------
         1        2.0000           -0.7870665             -21.4172
       ...           ...                  ...                  ...
        12        2.0000           -0.5185942             -14.1117
        13        2.0000           -0.4972838             -13.5318
        14        2.0000           -0.4869702             -13.2511
        15        2.0000           -0.4737427             -12.8912
        16        2.0000           -0.4635774             -12.6146
        17        2.0000           -0.4552763             -12.3887
        18        2.0000           -0.4181733             -11.3791 (HOMO)
        19                         -0.2522437              -6.8639 (LUMO)
        20                         -0.0676432              -1.8407
        21                          0.0553856               1.5071
        22                          0.0670115               1.8235
        23                          0.1056462               2.8748
       ...                                ...                  ...
        30                          0.5504841              14.9794
      -------------------------------------------------------------
                  HL-Gap            0.1659296 Eh            4.5152 eV
             Fermi-level           -0.3352085 Eh           -9.1215 eV

 SCC (total)                   0 d,  0 h,  0 min,  0.104 sec
 SCC setup                      ...        0 min,  0.000 sec (  0.110%)
 Dispersion                     ...        0 min,  0.000 sec (  0.043%)
 integral evaluation            ...        0 min,  0.097 sec ( 93.760%)
 zeroth order Hamiltonian       ...        0 min,  0.000 sec (  0.116%)
 iterations                     ...        0 min,  0.005 sec (  4.440%)
 molecular gradient             ...        0 min,  0.001 sec (  1.173%)
 printout                       ...        0 min,  0.000 sec (  0.200%)

         :::::::::::::::::::::::::::::::::::::::::::::::::::::
         ::                     SUMMARY                     ::
         :::::::::::::::::::::::::::::::::::::::::::::::::::::
         :: total energy             -21.582266828578 Eh    ::
         :: gradient norm              0.160022676044 Eh/a0 ::
         :: HOMO-LUMO gap              4.515173664278 eV    ::
         ::.................................................::
         :: SCC energy               -21.744125495674 Eh    ::
         :: -> isotropic ES            0.048999673220 Eh    ::
         :: -> anisotropic ES          0.002123993268 Eh    ::
         :: -> anisotropic XC         -0.009977000054 Eh    ::
         :: -> dispersion             -0.005911725389 Eh    ::
         :: repulsion energy           0.161850722929 Eh    ::
         :: add. restraining           0.000000000000 Eh    ::
         :::::::::::::::::::::::::::::::::::::::::::::::::::::

      ----------------------------------------------------------- 
     |                   =====================                   |
     |                        A N C O P T                        |
     |                   =====================                   |
     |               Approximate Normal Coordinate               |
     |                Rational Function Optimizer                |
      ----------------------------------------------------------- 

          ...................................................
          :                      SETUP                      :
          :.................................................:
          :   optimization level            normal          :
          :   max. optcycles                   200          :
          :   ANC micro-cycles                  20          :
          :   degrees of freedom                30          :
          :.................................................:
          :   RF solver                   davidson          :
          :   write xtbopt.log                true          :
          :   linear?                        false          :
          :   energy convergence         0.5000000E-05 Eh   :
          :   grad. convergence          0.1000000E-02 Eh/α :
          :   maximium RF displ.         1.0000000          :
          :   Hlow (freq-cutoff)         0.1000000E-01      :
          :   Hmax (freq-cutoff)         5.0000000          :
          :   S6 in model hess.         20.0000000          :
          ...................................................

generating ANC from model Hessian ...
Using Lindh-Hessian (1995)
 Shifting diagonal of input Hessian by   6.390827991988915E-003
 Lowest  eigenvalues of input Hessian
   -0.000000   -0.000000   -0.000000   -0.000000    0.000000    0.000000
    0.010000    0.013082    0.018168    0.020095    0.040352    0.046642
    0.053088    0.057380    0.061260    0.067147    0.083858    0.103877
 Highest eigenvalues
    1.110324    1.171926    1.207096    1.588594    1.836525    2.250067
 

........................................................................
.............................. CYCLE    1 ..............................
........................................................................
   1    -21.7441255 -0.217441E+02  0.678E-05    4.52       0.0  T
   2    -21.7441255 -0.241762E-10  0.284E-05    4.52    1017.8  T
   3    -21.7441255 -0.660449E-11  0.150E-05    4.52    1923.8  T
     SCC iter.                  ...        0 min,  0.001 sec
     gradient                   ...        0 min,  0.001 sec
 * total energy  :   -21.5822668 Eh     change       -0.1369919E-07 Eh
   gradient norm :     0.1600236 Eh/α   predicted     0.0000000E+00 (-100.00%)
   displ. norm   :     0.2003067 α      lambda       -0.1899536E-01
   maximum displ.:     0.0855905 α      in ANC's #6, #28, #5, ...

........................................................................
.............................. CYCLE    2 ..............................
........................................................................
   1    -21.7705905 -0.217706E+02  0.396E-01    4.76       0.0  T
   2    -21.7709826 -0.392179E-03  0.247E-01    4.75       1.0  T
   3    -21.7709980 -0.153638E-04  0.111E-01    4.75       1.0  T
   4    -21.7710010 -0.301032E-05  0.143E-02    4.75       2.0  T
   5    -21.7710015 -0.445425E-06  0.734E-03    4.75       3.9  T
   6    -21.7710015 -0.669702E-07  0.319E-03    4.75       9.0  T
   7    -21.7710015 -0.184356E-07  0.116E-03    4.75      24.8  T
     SCC iter.                  ...        0 min,  0.002 sec
     gradient                   ...        0 min,  0.001 sec
 * total energy  :   -21.5950370 Eh     change       -0.1277012E-01 Eh
   gradient norm :     0.0590314 Eh/α   predicted    -0.9878753E-02 ( -22.64%)
   displ. norm   :     0.1916584 α      lambda       -0.4798109E-02
   maximum displ.:     0.1136149 α      in ANC's #5, #6, #4, ...

........................................................................
.............................. CYCLE    3 ..............................
........................................................................
   1    -21.7805044 -0.217805E+02  0.367E-01    4.86       0.0  T
   2    -21.7806383 -0.133971E-03  0.236E-01    4.86       1.0  T
   3    -21.7806516 -0.132455E-04  0.643E-02    4.86       1.0  T
   4    -21.7806550 -0.342195E-05  0.151E-02    4.86       1.9  T
   5    -21.7806558 -0.836583E-06  0.811E-03    4.86       3.6  T
   6    -21.7806560 -0.116621E-06  0.343E-03    4.86       8.4  T
   7    -21.7806560 -0.313374E-07  0.141E-03    4.86      20.5  T
     SCC iter.                  ...        0 min,  0.002 sec
     gradient                   ...        0 min,  0.001 sec
 * total energy  :   -21.5978593 Eh     change       -0.2822378E-02 Eh
   gradient norm :     0.0142122 Eh/α   predicted    -0.2487176E-02 ( -11.88%)
   displ. norm   :     0.0770917 α      lambda       -0.4391608E-03
   maximum displ.:     0.0576210 α      in ANC's #5, #6, #8, ...

........................................................................
.............................. CYCLE    4 ..............................
........................................................................
   1    -21.7805046 -0.217805E+02  0.147E-01    4.86       0.0  T
   2    -21.7805135 -0.885947E-05  0.929E-02    4.86       1.0  T
   3    -21.7805145 -0.100422E-05  0.148E-02    4.86       1.9  T
   4    -21.7805152 -0.720842E-06  0.530E-03    4.86       5.4  T
   5    -21.7805153 -0.112697E-06  0.264E-03    4.86      10.9  T
   6    -21.7805153 -0.758465E-08  0.683E-04    4.86      42.3  T
     SCC iter.                  ...        0 min,  0.091 sec
     gradient                   ...        0 min,  0.001 sec
 * total energy  :   -21.5981436 Eh     change       -0.2842642E-03 Eh
   gradient norm :     0.0076135 Eh/α   predicted    -0.2208862E-03 ( -22.30%)
   displ. norm   :     0.0873070 α      lambda       -0.2232470E-03
   maximum displ.:     0.0564023 α      in ANC's #5, #8, #1, ...

........................................................................
.............................. CYCLE    5 ..............................
........................................................................
   1    -21.7799031 -0.217799E+02  0.160E-01    4.86       0.0  T
   2    -21.7799073 -0.419067E-05  0.980E-02    4.86       1.0  T
   3    -21.7799082 -0.872083E-06  0.768E-03    4.86       3.8  T
   4    -21.7799083 -0.101857E-06  0.353E-03    4.86       8.2  T
   5    -21.7799083 -0.129942E-07  0.186E-03    4.86      15.5  T
   6    -21.7799083 -0.431377E-08  0.449E-04    4.86      64.3  T
     SCC iter.                  ...        0 min,  0.001 sec
     gradient                   ...        0 min,  0.002 sec
 * total energy  :   -21.5983087 Eh     change       -0.1650619E-03 Eh
   gradient norm :     0.0090844 Eh/α   predicted    -0.1124734E-03 ( -31.86%)
   displ. norm   :     0.1529384 α      lambda       -0.3367112E-03
   maximum displ.:     0.0822854 α      in ANC's #8, #5, #2, ...

........................................................................
.............................. CYCLE    6 ..............................
........................................................................
   1    -21.7796221 -0.217796E+02  0.267E-01    4.86       0.0  T
   2    -21.7796309 -0.887777E-05  0.163E-01    4.86       1.0  T
   3    -21.7796332 -0.227518E-05  0.106E-02    4.86       2.7  T
   4    -21.7796334 -0.147610E-06  0.527E-03    4.86       5.5  T
   5    -21.7796334 -0.290737E-07  0.247E-03    4.86      11.7  T
   6    -21.7796334 -0.121453E-07  0.831E-04    4.86      34.7  T
     SCC iter.                  ...        0 min,  0.001 sec
     gradient                   ...        0 min,  0.001 sec
 * total energy  :   -21.5985370 Eh     change       -0.2283443E-03 Eh
   gradient norm :     0.0109201 Eh/α   predicted    -0.1722917E-03 ( -24.55%)
   displ. norm   :     0.1623949 α      lambda       -0.2637325E-03
   maximum displ.:     0.0776025 α      in ANC's #8, #2, #1, ...

........................................................................
.............................. CYCLE    7 ..............................
........................................................................
   1    -21.7791223 -0.217791E+02  0.270E-01    4.87       0.0  T
   2    -21.7791263 -0.397517E-05  0.164E-01    4.87       1.0  T
   3    -21.7791269 -0.565011E-06  0.116E-02    4.88       2.5  T
   4    -21.7791278 -0.922416E-06  0.439E-03    4.87       6.6  T
   5    -21.7791278 -0.303692E-07  0.224E-03    4.87      12.9  T
   6    -21.7791278 -0.411665E-08  0.531E-04    4.87      54.3  T
     SCC iter.                  ...        0 min,  0.001 sec
     gradient                   ...        0 min,  0.001 sec
 * total energy  :   -21.5987070 Eh     change       -0.1699570E-03 Eh
   gradient norm :     0.0154083 Eh/α   predicted    -0.1353426E-03 ( -20.37%)
   displ. norm   :     0.1828543 α      lambda       -0.5077815E-03
   maximum displ.:     0.1058095 α      in ANC's #8, #2, #1, ...

........................................................................
.............................. CYCLE    8 ..............................
........................................................................
   1    -21.7814523 -0.217815E+02  0.317E-01    4.88       0.0  T
   2    -21.7814615 -0.919226E-05  0.195E-01    4.87       1.0  T
   3    -21.7814653 -0.382947E-05  0.176E-02    4.88       1.6  T
   4    -21.7814668 -0.146679E-05  0.933E-03    4.88       3.1  T
   5    -21.7814670 -0.161394E-06  0.427E-03    4.88       6.8  T
   6    -21.7814670 -0.430241E-07  0.129E-03    4.88      22.3  T
   7    -21.7814670 -0.641362E-08  0.665E-04    4.88      43.4  T
     SCC iter.                  ...        0 min,  0.002 sec
     gradient                   ...        0 min,  0.001 sec
 * total energy  :   -21.5988995 Eh     change       -0.1925526E-03 Eh
   gradient norm :     0.0106423 Eh/α   predicted    -0.2623786E-03 (  36.26%)
   displ. norm   :     0.1679743 α      lambda       -0.3385104E-03
   maximum displ.:     0.0766065 α      in ANC's #2, #3, #8, ...

........................................................................
.............................. CYCLE    9 ..............................
........................................................................
   1    -21.7799130 -0.217799E+02  0.285E-01    4.89       0.0  T
   2    -21.7799235 -0.104921E-04  0.173E-01    4.89       1.0  T
   3    -21.7799255 -0.197350E-05  0.192E-02    4.90       1.5  T
   4    -21.7799273 -0.187416E-05  0.813E-03    4.89       3.5  T
   5    -21.7799275 -0.134191E-06  0.395E-03    4.89       7.3  T
   6    -21.7799275 -0.237687E-07  0.945E-04    4.89      30.5  T
   7    -21.7799275 -0.282484E-08  0.513E-04    4.89      56.3  T
     SCC iter.                  ...        0 min,  0.002 sec
     gradient                   ...        0 min,  0.001 sec
 * total energy  :   -21.5989742 Eh     change       -0.7468215E-04 Eh
   gradient norm :     0.0186582 Eh/α   predicted    -0.1740305E-03 ( 133.03%)
   displ. norm   :     0.1237530 α      lambda       -0.3665435E-03
   maximum displ.:     0.0703563 α      in ANC's #8, #1, #2, ...

........................................................................
.............................. CYCLE   10 ..............................
........................................................................
   1    -21.7824069 -0.217824E+02  0.203E-01    4.91       0.0  T
   2    -21.7824143 -0.743533E-05  0.124E-01    4.91       1.0  T
   3    -21.7824154 -0.101776E-05  0.130E-02    4.91       2.2  T
   4    -21.7824157 -0.384375E-06  0.444E-03    4.91       6.5  T
   5    -21.7824158 -0.706212E-07  0.245E-03    4.91      11.8  T
   6    -21.7824158 -0.843689E-08  0.754E-04    4.91      38.3  T
     SCC iter.                  ...        0 min,  0.001 sec
     gradient                   ...        0 min,  0.001 sec
 * total energy  :   -21.5991452 Eh     change       -0.1709518E-03 Eh
   gradient norm :     0.0072013 Eh/α   predicted    -0.1860762E-03 (   8.85%)
   displ. norm   :     0.0464535 α      lambda       -0.9823230E-04
   maximum displ.:     0.0232655 α      in ANC's #3, #5, #27, ...

........................................................................
.............................. CYCLE   11 ..............................
........................................................................
   1    -21.7821305 -0.217821E+02  0.898E-02    4.90       0.0  T
   2    -21.7821324 -0.192802E-05  0.552E-02    4.90       1.0  T
   3    -21.7821328 -0.363507E-06  0.759E-03    4.90       3.8  T
   4    -21.7821329 -0.168016E-06  0.287E-03    4.90      10.1  T
   5    -21.7821329 -0.176859E-07  0.168E-03    4.90      17.2  T
     SCC iter.                  ...        0 min,  0.001 sec
     gradient                   ...        0 min,  0.091 sec
 * total energy  :   -21.5992317 Eh     change       -0.8657543E-04 Eh
   gradient norm :     0.0049209 Eh/α   predicted    -0.4922055E-04 ( -43.15%)
   displ. norm   :     0.2306754 α      lambda       -0.3606339E-03
   maximum displ.:     0.1026469 α      in ANC's #3, #8, #27, ...

........................................................................
.............................. CYCLE   12 ..............................
........................................................................
   1    -21.7796812 -0.217797E+02  0.413E-01    4.89       0.0  T
   2    -21.7797039 -0.227017E-04  0.255E-01    4.89       1.0  T
   3    -21.7797112 -0.731757E-05  0.260E-02    4.89       1.1  T
   4    -21.7797139 -0.274963E-05  0.125E-02    4.89       2.3  T
   5    -21.7797141 -0.176367E-06  0.639E-03    4.89       4.5  T
   6    -21.7797142 -0.609043E-07  0.123E-03    4.89      23.5  T
   7    -21.7797142 -0.405161E-08  0.722E-04    4.89      40.0  T
     SCC iter.                  ...        0 min,  0.002 sec
     gradient                   ...        0 min,  0.001 sec
 * total energy  :   -21.5993432 Eh     change       -0.1114253E-03 Eh
   gradient norm :     0.0172839 Eh/α   predicted    -0.1899124E-03 (  70.44%)
   displ. norm   :     0.0735768 α      lambda       -0.3104645E-03
   maximum displ.:     0.0356954 α      in ANC's #2, #3, #1, ...

........................................................................
.............................. CYCLE   13 ..............................
........................................................................
   1    -21.7817192 -0.217817E+02  0.120E-01    4.89       0.0  T
   2    -21.7817250 -0.573678E-05  0.717E-02    4.89       1.0  T
   3    -21.7817262 -0.119217E-05  0.122E-02    4.89       2.4  T
   4    -21.7817264 -0.245119E-06  0.491E-03    4.89       5.9  T
   5    -21.7817265 -0.789857E-07  0.269E-03    4.89      10.7  T
   6    -21.7817265 -0.159063E-07  0.790E-04    4.89      36.5  T
     SCC iter.                  ...        0 min,  0.001 sec
     gradient                   ...        0 min,  0.001 sec
 * total energy  :   -21.5994634 Eh     change       -0.1202396E-03 Eh
   gradient norm :     0.0061172 Eh/α   predicted    -0.1560735E-03 (  29.80%)
   displ. norm   :     0.0638757 α      lambda       -0.8238194E-04
   maximum displ.:     0.0311724 α      in ANC's #27, #3, #8, ...

........................................................................
.............................. CYCLE   14 ..............................
........................................................................
   1    -21.7817338 -0.217817E+02  0.119E-01    4.90       0.0  T
   2    -21.7817354 -0.164511E-05  0.744E-02    4.89       1.0  T
   3    -21.7817362 -0.784017E-06  0.721E-03    4.90       4.0  T
   4    -21.7817365 -0.235037E-06  0.372E-03    4.89       7.8  T
   5    -21.7817365 -0.779348E-08  0.107E-03    4.89      26.9  T
   6    -21.7817365 -0.226083E-08  0.245E-04    4.89     118.0  T
     SCC iter.                  ...        0 min,  0.091 sec
     gradient                   ...        0 min,  0.001 sec
 * total energy  :   -21.5995388 Eh     change       -0.7543746E-04 Eh
   gradient norm :     0.0061289 Eh/α   predicted    -0.4135876E-04 ( -45.17%)
   displ. norm   :     0.3126891 α      lambda       -0.3585716E-03
   maximum displ.:     0.1569207 α      in ANC's #27, #3, #8, ...

........................................................................
.............................. CYCLE   15 ..............................
........................................................................
   1    -21.7783097 -0.217783E+02  0.567E-01    4.90       0.0  T
   2    -21.7783502 -0.405171E-04  0.355E-01    4.90       1.0  T
   3    -21.7783743 -0.240356E-04  0.279E-02    4.90       1.0  T
   4    -21.7783748 -0.578351E-06  0.152E-02    4.90       1.9  T
   5    -21.7783750 -0.161407E-06  0.592E-03    4.90       4.9  T
   6    -21.7783751 -0.106087E-06  0.148E-03    4.90      19.5  T
   7    -21.7783751 -0.707757E-08  0.880E-04    4.90      32.8  T
     SCC iter.                  ...        0 min,  0.002 sec
     gradient                   ...        0 min,  0.001 sec
 * total energy  :   -21.5992681 Eh     change        0.2707539E-03 Eh
   gradient norm :     0.0276069 Eh/α   predicted    -0.1968111E-03 (-172.69%)
   displ. norm   :     0.2085173 α      lambda       -0.1285137E-02
   maximum displ.:     0.1014083 α      in ANC's #27, #8, #3, ...

........................................................................
.............................. CYCLE   16 ..............................
........................................................................
   1    -21.7827028 -0.217827E+02  0.373E-01    4.91       0.0  T
   2    -21.7827312 -0.283895E-04  0.231E-01    4.91       1.0  T
   3    -21.7827420 -0.107408E-04  0.244E-02    4.91       1.2  T
   4    -21.7827427 -0.789875E-06  0.111E-02    4.91       2.6  T
   5    -21.7827429 -0.142016E-06  0.571E-03    4.91       5.1  T
   6    -21.7827430 -0.627072E-07  0.163E-03    4.91      17.7  T
     SCC iter.                  ...        0 min,  0.001 sec
     gradient                   ...        0 min,  0.091 sec
 * total energy  :   -21.5996678 Eh     change       -0.3997648E-03 Eh
   gradient norm :     0.0035485 Eh/α   predicted    -0.6705102E-03 (  67.73%)
   displ. norm   :     0.0496568 α      lambda       -0.5131061E-04
   maximum displ.:     0.0242555 α      in ANC's #27, #3, #1, ...

........................................................................
.............................. CYCLE   17 ..............................
........................................................................
   1    -21.7825776 -0.217826E+02  0.937E-02    4.91       0.0  T
   2    -21.7825787 -0.115433E-05  0.592E-02    4.91       1.0  T
   3    -21.7825794 -0.630007E-06  0.475E-03    4.91       6.1  T
   4    -21.7825794 -0.642125E-07  0.267E-03    4.91      10.8  T
   5    -21.7825794 -0.689047E-08  0.112E-03    4.91      25.8  T
   6    -21.7825794 -0.139560E-08  0.119E-04    4.91     242.3  T
   7    -21.7825794 -0.169109E-10  0.557E-05    4.91     517.9  T
     SCC iter.                  ...        0 min,  0.002 sec
     gradient                   ...        0 min,  0.001 sec
 * total energy  :   -21.5997149 Eh     change       -0.4710233E-04 Eh
   gradient norm :     0.0026164 Eh/α   predicted    -0.2571687E-04 ( -45.40%)
   displ. norm   :     0.2714850 α      lambda       -0.2293312E-03
   maximum displ.:     0.1320982 α      in ANC's #27, #1, #3, ...

........................................................................
.............................. CYCLE   18 ..............................
........................................................................
   1    -21.7799430 -0.217799E+02  0.513E-01    4.89       0.0  T
   2    -21.7799791 -0.361600E-04  0.325E-01    4.90       1.0  T
   3    -21.7799982 -0.190996E-04  0.276E-02    4.89       1.0  T
   4    -21.7800006 -0.238763E-05  0.150E-02    4.90       1.9  T
   5    -21.7800009 -0.282275E-06  0.672E-03    4.90       4.3  T
   6    -21.7800009 -0.444418E-07  0.947E-04    4.90      30.5  T
   7    -21.7800010 -0.211932E-08  0.522E-04    4.90      55.3  T
     SCC iter.                  ...        0 min,  0.002 sec
     gradient                   ...        0 min,  0.001 sec
 * total energy  :   -21.5996677 Eh     change        0.4728450E-04 Eh
   gradient norm :     0.0170583 Eh/α   predicted    -0.1231133E-03 (-360.37%)
   displ. norm   :     0.1549374 α      lambda       -0.4292229E-03
   maximum displ.:     0.0782202 α      in ANC's #27, #3, #1, ...

........................................................................
.............................. CYCLE   19 ..............................
........................................................................
   1    -21.7825347 -0.217825E+02  0.299E-01    4.91       0.0  T
   2    -21.7825511 -0.164171E-04  0.189E-01    4.91       1.0  T
   3    -21.7825583 -0.718260E-05  0.177E-02    4.91       1.6  T
   4    -21.7825589 -0.559821E-06  0.894E-03    4.90       3.2  T
   5    -21.7825590 -0.148853E-06  0.463E-03    4.91       6.2  T
   6    -21.7825590 -0.269645E-07  0.955E-04    4.91      30.2  T
   7    -21.7825590 -0.222479E-08  0.422E-04    4.91      68.5  T
     SCC iter.                  ...        0 min,  0.002 sec
     gradient                   ...        0 min,  0.001 sec
 * total energy  :   -21.5997982 Eh     change       -0.1305059E-03 Eh
   gradient norm :     0.0014212 Eh/α   predicted    -0.2197628E-03 (  68.39%)
   displ. norm   :     0.0792039 α      lambda       -0.2928245E-04
   maximum displ.:     0.0491074 α      in ANC's #1, #27, #3, ...

........................................................................
.............................. CYCLE   20 ..............................
........................................................................
   1    -21.7823397 -0.217823E+02  0.145E-01    4.90       0.0  T
   2    -21.7823421 -0.246428E-05  0.916E-02    4.90       1.0  T
   3    -21.7823437 -0.155276E-05  0.659E-03    4.90       4.4  T
   4    -21.7823438 -0.107185E-06  0.384E-03    4.90       7.5  T
   5    -21.7823438 -0.131594E-07  0.115E-03    4.90      25.1  T
   6    -21.7823438 -0.183333E-08  0.171E-04    4.90     168.7  T
   7    -21.7823438 -0.373070E-10  0.795E-05    4.90     363.2  T
     SCC iter.                  ...        0 min,  0.002 sec
     gradient                   ...        0 min,  0.001 sec
 * total energy  :   -21.5998345 Eh     change       -0.3629660E-04 Eh
   gradient norm :     0.0023045 Eh/α   predicted    -0.1468345E-04 ( -59.55%)
   displ. norm   :     0.1244341 α      lambda       -0.5008721E-04
   maximum displ.:     0.0854598 α      in ANC's #1, #27, #8, ...
 * RMSD in coord.:     0.3918624 α      energy gain  -0.1756764E-01 Eh

generating ANC from model Hessian ...
Using Lindh-Hessian (1995)
 Shifting diagonal of input Hessian by   6.560879614407371E-003
 Lowest  eigenvalues of input Hessian
   -0.000000   -0.000000   -0.000000   -0.000000    0.000000    0.000000
    0.010000    0.014526    0.019347    0.023120    0.025317    0.046230
    0.056636    0.058899    0.067634    0.074132    0.093314    0.104127
 Highest eigenvalues
    1.195692    1.215637    1.224573    1.316617    1.751625    2.304961
 

........................................................................
.............................. CYCLE   21 ..............................
........................................................................
   1    -21.7819090 -0.217819E+02  0.212E-01    4.90       0.0  T
   2    -21.7819138 -0.473982E-05  0.134E-01    4.90       1.0  T
   3    -21.7819168 -0.303842E-05  0.929E-03    4.90       3.1  T
   4    -21.7819170 -0.185203E-06  0.548E-03    4.90       5.3  T
   5    -21.7819170 -0.279670E-07  0.141E-03    4.90      20.5  T
   6    -21.7819170 -0.286233E-08  0.236E-04    4.90     122.1  T
   7    -21.7819170 -0.644569E-10  0.110E-04    4.90     262.7  T
     SCC iter.                  ...        0 min,  0.002 sec
     gradient                   ...        0 min,  0.001 sec
 * total energy  :   -21.5998674 Eh     change       -0.3289124E-04 Eh
   gradient norm :     0.0045025 Eh/α   predicted     0.0000000E+00 (-100.00%)
   displ. norm   :     0.0211358 α      lambda       -0.2450682E-04
   maximum displ.:     0.0175958 α      in ANC's #1, #4, #7, ...

........................................................................
.............................. CYCLE   22 ..............................
........................................................................
   1    -21.7825869 -0.217826E+02  0.208E-02    4.90       0.0  T
   2    -21.7825872 -0.353878E-06  0.121E-02    4.90       2.4  T
   3    -21.7825872 -0.714400E-08  0.434E-03    4.90       6.7  T
   4    -21.7825873 -0.450280E-07  0.110E-03    4.90      26.3  T
   5    -21.7825873 -0.441150E-08  0.509E-04    4.90      56.7  T
     SCC iter.                  ...        0 min,  0.001 sec
     gradient                   ...        0 min,  0.001 sec
 * total energy  :   -21.5998852 Eh     change       -0.1784475E-04 Eh
   gradient norm :     0.0016869 Eh/α   predicted    -0.1225917E-04 ( -31.30%)
   displ. norm   :     0.0562662 α      lambda       -0.1753840E-04
   maximum displ.:     0.0459075 α      in ANC's #1, #3, #5, ...

........................................................................
.............................. CYCLE   23 ..............................
........................................................................
   1    -21.7833008 -0.217833E+02  0.627E-02    4.91       0.0  T
   2    -21.7833020 -0.125604E-05  0.379E-02    4.90       1.0  T
   3    -21.7833020  0.124285E-07  0.787E-03    4.91       3.7  T
   4    -21.7833022 -0.233545E-06  0.202E-03    4.91      14.3  T
   5    -21.7833023 -0.170207E-07  0.103E-03    4.91      28.0  T
   6    -21.7833023 -0.937710E-09  0.192E-04    4.91     150.0  T
   7    -21.7833023 -0.813145E-10  0.701E-05    4.91     411.7  T
     SCC iter.                  ...        0 min,  0.092 sec
     gradient                   ...        0 min,  0.001 sec
 * total energy  :   -21.5998988 Eh     change       -0.1356028E-04 Eh
   gradient norm :     0.0027284 Eh/α   predicted    -0.8782785E-05 ( -35.23%)
   displ. norm   :     0.0365570 α      lambda       -0.1143010E-04
   maximum displ.:     0.0314196 α      in ANC's #1, #5, #7, ...

........................................................................
.............................. CYCLE   24 ..............................
........................................................................
   1    -21.7832538 -0.217833E+02  0.376E-02    4.90       0.0  T
   2    -21.7832539 -0.108397E-06  0.229E-02    4.90       1.3  T
   3    -21.7832539 -0.232939E-07  0.148E-03    4.90      19.4  T
   4    -21.7832539 -0.813061E-08  0.651E-04    4.90      44.4  T
   5    -21.7832539 -0.827320E-09  0.363E-04    4.90      79.6  T
     SCC iter.                  ...        0 min,  0.001 sec
     gradient                   ...        0 min,  0.001 sec
 * total energy  :   -21.5999092 Eh     change       -0.1048302E-04 Eh
   gradient norm :     0.0027172 Eh/α   predicted    -0.5721406E-05 ( -45.42%)
   displ. norm   :     0.0853110 α      lambda       -0.2955066E-04
   maximum displ.:     0.0678742 α      in ANC's #1, #5, #3, ...

........................................................................
.............................. CYCLE   25 ..............................
........................................................................
   1    -21.7827967 -0.217828E+02  0.101E-01    4.90       0.0  T
   2    -21.7827975 -0.719778E-06  0.619E-02    4.90       1.0  T
   3    -21.7827978 -0.352471E-06  0.340E-03    4.90       8.5  T
   4    -21.7827978 -0.950563E-08  0.192E-03    4.90      15.0  T
   5    -21.7827978 -0.103557E-08  0.598E-04    4.90      48.3  T
   6    -21.7827978 -0.108789E-08  0.179E-04    4.90     161.5  T
     SCC iter.                  ...        0 min,  0.093 sec
     gradient                   ...        0 min,  0.002 sec
 * total energy  :   -21.5999356 Eh     change       -0.2637262E-04 Eh
   gradient norm :     0.0015519 Eh/α   predicted    -0.1488218E-04 ( -43.57%)
   displ. norm   :     0.2966305 α      lambda       -0.5487286E-04
   maximum displ.:     0.2398269 α      in ANC's #1, #5, #3, ...

........................................................................
.............................. CYCLE   26 ..............................
........................................................................
   1    -21.7807426 -0.217807E+02  0.351E-01    4.87       0.0  T
   2    -21.7807509 -0.828771E-05  0.217E-01    4.87       1.0  T
   3    -21.7807550 -0.404988E-05  0.134E-02    4.87       2.2  T
   4    -21.7807554 -0.464173E-06  0.762E-03    4.87       3.8  T
   5    -21.7807555 -0.696901E-07  0.323E-03    4.87       8.9  T
   6    -21.7807555 -0.111655E-07  0.594E-04    4.87      48.6  T
   7    -21.7807555 -0.626670E-09  0.216E-04    4.87     133.6  T
     SCC iter.                  ...        0 min,  0.003 sec
     gradient                   ...        0 min,  0.092 sec
 * total energy  :   -21.5999710 Eh     change       -0.3538260E-04 Eh
   gradient norm :     0.0073369 Eh/α   predicted    -0.2850565E-04 ( -19.44%)
   displ. norm   :     0.0267430 α      lambda       -0.3497222E-04
   maximum displ.:     0.0240441 α      in ANC's #1, #5, #2, ...

........................................................................
.............................. CYCLE   27 ..............................
........................................................................
   1    -21.7815218 -0.217815E+02  0.281E-02    4.88       0.0  T
   2    -21.7815220 -0.225467E-06  0.173E-02    4.88       1.7  T
   3    -21.7815221 -0.422219E-07  0.281E-03    4.88      10.3  T
   4    -21.7815221 -0.289459E-07  0.122E-03    4.88      23.7  T
     SCC iter.                  ...        0 min,  0.002 sec
     gradient                   ...        0 min,  0.002 sec
 * total energy  :   -21.6000013 Eh     change       -0.3025810E-04 Eh
   gradient norm :     0.0049287 Eh/α   predicted    -0.1749954E-04 ( -42.17%)
   displ. norm   :     0.0743158 α      lambda       -0.6653804E-04
   maximum displ.:     0.0695193 α      in ANC's #1, #2, #5, ...

........................................................................
.............................. CYCLE   28 ..............................
........................................................................
   1    -21.7830829 -0.217831E+02  0.634E-02    4.90       0.0  T
   2    -21.7830836 -0.705315E-06  0.382E-02    4.90       1.0  T
   3    -21.7830836 -0.472842E-07  0.484E-03    4.90       6.0  T
   4    -21.7830838 -0.121718E-06  0.185E-03    4.90      15.6  T
   5    -21.7830838 -0.703583E-08  0.983E-04    4.90      29.4  T
     SCC iter.                  ...        0 min,  0.093 sec
     gradient                   ...        0 min,  0.002 sec
 * total energy  :   -21.6000494 Eh     change       -0.4812775E-04 Eh
   gradient norm :     0.0009759 Eh/α   predicted    -0.3345281E-04 ( -30.49%)
   displ. norm   :     0.1394079 α      lambda       -0.3780489E-04
   maximum displ.:     0.1331918 α      in ANC's #1, #2, #3, ...

........................................................................
.............................. CYCLE   29 ..............................
........................................................................
   1    -21.7839534 -0.217840E+02  0.123E-01    4.90       0.0  T
   2    -21.7839542 -0.832569E-06  0.746E-02    4.90       1.0  T
   3    -21.7839546 -0.373725E-06  0.391E-03    4.90       7.4  T
   4    -21.7839546 -0.130074E-07  0.213E-03    4.90      13.5  T
   5    -21.7839546 -0.231053E-08  0.670E-04    4.90      43.1  T
   6    -21.7839546 -0.120962E-08  0.229E-04    4.90     125.8  T
     SCC iter.                  ...        0 min,  0.003 sec
     gradient                   ...        0 min,  0.092 sec
 * total energy  :   -21.6000978 Eh     change       -0.4838975E-04 Eh
   gradient norm :     0.0034363 Eh/α   predicted    -0.1906455E-04 ( -60.60%)
   displ. norm   :     0.0889695 α      lambda       -0.3430433E-04
   maximum displ.:     0.0833636 α      in ANC's #1, #3, #2, ...

........................................................................
.............................. CYCLE   30 ..............................
........................................................................
   1    -21.7838757 -0.217839E+02  0.839E-02    4.90       0.0  T
   2    -21.7838761 -0.361406E-06  0.514E-02    4.90       1.0  T
   3    -21.7838763 -0.140777E-06  0.339E-03    4.90       8.5  T
   4    -21.7838763 -0.539256E-07  0.180E-03    4.90      16.0  T
   5    -21.7838763 -0.348865E-08  0.728E-04    4.90      39.6  T
   6    -21.7838763 -0.568818E-09  0.116E-04    4.90     249.8  T
     SCC iter.                  ...        0 min,  0.003 sec
     gradient                   ...        0 min,  0.002 sec
 * total energy  :   -21.6001321 Eh     change       -0.3433528E-04 Eh
   gradient norm :     0.0035720 Eh/α   predicted    -0.1728774E-04 ( -49.65%)
   displ. norm   :     0.1088674 α      lambda       -0.4685924E-04
   maximum displ.:     0.1000473 α      in ANC's #1, #3, #2, ...

........................................................................
.............................. CYCLE   31 ..............................
........................................................................
   1    -21.7834248 -0.217834E+02  0.107E-01    4.89       0.0  T
   2    -21.7834255 -0.719752E-06  0.661E-02    4.90       1.0  T
   3    -21.7834258 -0.206512E-06  0.521E-03    4.89       5.5  T
   4    -21.7834259 -0.160788E-06  0.245E-03    4.90      11.8  T
   5    -21.7834259 -0.562275E-08  0.105E-03    4.90      27.5  T
   6    -21.7834259 -0.885940E-09  0.150E-04    4.90     192.6  T
   7    -21.7834259 -0.398330E-10  0.685E-05    4.90     421.3  T
     SCC iter.                  ...        0 min,  0.094 sec
     gradient                   ...        0 min,  0.002 sec
 * total energy  :   -21.6001773 Eh     change       -0.4520894E-04 Eh
   gradient norm :     0.0027593 Eh/α   predicted    -0.2370724E-04 ( -47.56%)
   displ. norm   :     0.1178633 α      lambda       -0.4793055E-04
   maximum displ.:     0.1073256 α      in ANC's #1, #3, #2, ...

........................................................................
.............................. CYCLE   32 ..............................
........................................................................
   1    -21.7828011 -0.217828E+02  0.117E-01    4.89       0.0  T
   2    -21.7828020 -0.914667E-06  0.720E-02    4.89       1.0  T
   3    -21.7828023 -0.226000E-06  0.599E-03    4.89       4.8  T
   4    -21.7828025 -0.221444E-06  0.270E-03    4.89      10.7  T
   5    -21.7828025 -0.701246E-08  0.120E-03    4.89      24.0  T
   6    -21.7828025 -0.107372E-08  0.173E-04    4.89     167.3  T
   7    -21.7828025 -0.597176E-10  0.746E-05    4.89     386.9  T
     SCC iter.                  ...        0 min,  0.004 sec
     gradient                   ...        0 min,  0.091 sec
 * total energy  :   -21.6002214 Eh     change       -0.4405528E-04 Eh
   gradient norm :     0.0024786 Eh/α   predicted    -0.2429874E-04 ( -44.84%)
   displ. norm   :     0.1081932 α      lambda       -0.3762488E-04
   maximum displ.:     0.0984206 α      in ANC's #1, #2, #3, ...

........................................................................
.............................. CYCLE   33 ..............................
........................................................................
   1    -21.7822712 -0.217823E+02  0.105E-01    4.88       0.0  T
   2    -21.7822719 -0.699204E-06  0.646E-02    4.88       1.0  T
   3    -21.7822721 -0.180514E-06  0.520E-03    4.88       5.6  T
   4    -21.7822722 -0.162799E-06  0.240E-03    4.88      12.1  T
   5    -21.7822722 -0.555002E-08  0.105E-03    4.88      27.4  T
   6    -21.7822722 -0.854193E-09  0.159E-04    4.88     181.7  T
   7    -21.7822722 -0.517950E-10  0.677E-05    4.88     426.1  T
     SCC iter.                  ...        0 min,  0.004 sec
     gradient                   ...        0 min,  0.002 sec
 * total energy  :   -21.6002552 Eh     change       -0.3381930E-04 Eh
   gradient norm :     0.0032687 Eh/α   predicted    -0.1903385E-04 ( -43.72%)
   displ. norm   :     0.0907868 α      lambda       -0.2792711E-04
   maximum displ.:     0.0830771 α      in ANC's #1, #2, #3, ...

........................................................................
.............................. CYCLE   34 ..............................
........................................................................
   1    -21.7819719 -0.217820E+02  0.852E-02    4.88       0.0  T
   2    -21.7819723 -0.386327E-06  0.523E-02    4.88       1.0  T
   3    -21.7819724 -0.126056E-06  0.373E-03    4.88       7.7  T
   4    -21.7819725 -0.739761E-07  0.186E-03    4.88      15.5  T
   5    -21.7819725 -0.332960E-08  0.767E-04    4.88      37.6  T
   6    -21.7819725 -0.528690E-09  0.127E-04    4.88     226.6  T
     SCC iter.                  ...        0 min,  0.003 sec
     gradient                   ...        0 min,  0.002 sec
 * total energy  :   -21.6002807 Eh     change       -0.2545691E-04 Eh
   gradient norm :     0.0040144 Eh/α   predicted    -0.1407952E-04 ( -44.69%)
   displ. norm   :     0.0901110 α      lambda       -0.2735525E-04
   maximum displ.:     0.0834286 α      in ANC's #1, #2, #3, ...

........................................................................
.............................. CYCLE   35 ..............................
........................................................................
   1    -21.7818464 -0.217818E+02  0.820E-02    4.87       0.0  T
   2    -21.7818467 -0.281105E-06  0.502E-02    4.88       1.0  T
   3    -21.7818468 -0.125191E-06  0.301E-03    4.87       9.6  T
   4    -21.7818469 -0.356008E-07  0.167E-03    4.88      17.2  T
   5    -21.7818469 -0.266392E-08  0.585E-04    4.88      49.3  T
     SCC iter.                  ...        0 min,  0.093 sec
     gradient                   ...        0 min,  0.003 sec
 * total energy  :   -21.6003058 Eh     change       -0.2519676E-04 Eh
   gradient norm :     0.0044837 Eh/α   predicted    -0.1378956E-04 ( -45.27%)
   displ. norm   :     0.1231204 α      lambda       -0.3759674E-04
   maximum displ.:     0.1155735 α      in ANC's #1, #2, #3, ...

........................................................................
.............................. CYCLE   36 ..............................
........................................................................
   1    -21.7817902 -0.217818E+02  0.110E-01    4.87       0.0  T
   2    -21.7817906 -0.426157E-06  0.671E-02    4.87       1.0  T
   3    -21.7817909 -0.227425E-06  0.353E-03    4.87       8.2  T
   4    -21.7817909 -0.339400E-07  0.209E-03    4.87      13.8  T
   5    -21.7817909 -0.414881E-08  0.610E-04    4.87      47.3  T
     SCC iter.                  ...        0 min,  0.001 sec
     gradient                   ...        0 min,  0.001 sec
 * total energy  :   -21.6003395 Eh     change       -0.3362070E-04 Eh
   gradient norm :     0.0048556 Eh/α   predicted    -0.1908725E-04 ( -43.23%)
   displ. norm   :     0.2341499 α      lambda       -0.6442971E-04
   maximum displ.:     0.2219254 α      in ANC's #1, #2, #3, ...

........................................................................
.............................. CYCLE   37 ..............................
........................................................................
   1    -21.7814689 -0.217815E+02  0.209E-01    4.87       0.0  T
   2    -21.7814704 -0.150320E-05  0.128E-01    4.87       1.0  T
   3    -21.7814712 -0.802707E-06  0.660E-03    4.87       4.4  T
   4    -21.7814713 -0.123066E-06  0.391E-03    4.87       7.4  T
   5    -21.7814713 -0.134497E-07  0.111E-03    4.87      25.9  T
   6    -21.7814713 -0.306041E-08  0.317E-04    4.87      91.0  T
     SCC iter.                  ...        0 min,  0.001 sec
     gradient                   ...        0 min,  0.090 sec
 * total energy  :   -21.6003857 Eh     change       -0.4626344E-04 Eh
   gradient norm :     0.0058929 Eh/α   predicted    -0.3398204E-04 ( -26.55%)
   displ. norm   :     0.1555375 α      lambda       -0.3203810E-04
   maximum displ.:     0.1490902 α      in ANC's #1, #3, #7, ...

........................................................................
.............................. CYCLE   38 ..............................
........................................................................
   1    -21.7814163 -0.217814E+02  0.139E-01    4.87       0.0  T
   2    -21.7814168 -0.563144E-06  0.843E-02    4.87       1.0  T
   3    -21.7814172 -0.332824E-06  0.385E-03    4.87       7.5  T
   4    -21.7814172 -0.262592E-07  0.233E-03    4.87      12.4  T
   5    -21.7814172 -0.444365E-08  0.583E-04    4.87      49.5  T
     SCC iter.                  ...        0 min,  0.002 sec
     gradient                   ...        0 min,  0.001 sec
 * total energy  :   -21.6004073 Eh     change       -0.2158622E-04 Eh
   gradient norm :     0.0063096 Eh/α   predicted    -0.1640623E-04 ( -24.00%)
   displ. norm   :     0.0850303 α      lambda       -0.3411900E-04
   maximum displ.:     0.0803075 α      in ANC's #1, #2, #13, ...

........................................................................
.............................. CYCLE   39 ..............................
........................................................................
   1    -21.7821251 -0.217821E+02  0.746E-02    4.88       0.0  T
   2    -21.7821252 -0.180522E-06  0.450E-02    4.87       1.0  T
   3    -21.7821253 -0.434847E-07  0.259E-03    4.88      11.2  T
   4    -21.7821253 -0.400321E-07  0.121E-03    4.87      23.9  T
     SCC iter.                  ...        0 min,  0.001 sec
     gradient                   ...        0 min,  0.001 sec
 * total energy  :   -21.6004352 Eh     change       -0.2784332E-04 Eh
   gradient norm :     0.0051152 Eh/α   predicted    -0.1718386E-04 ( -38.28%)
   displ. norm   :     0.1178636 α      lambda       -0.5983261E-04
   maximum displ.:     0.0963363 α      in ANC's #1, #2, #5, ...

........................................................................
.............................. CYCLE   40 ..............................
........................................................................
   1    -21.7834951 -0.217835E+02  0.104E-01    4.89       0.0  T
   2    -21.7834960 -0.896614E-06  0.628E-02    4.89       1.0  T
   3    -21.7834960  0.643694E-07  0.674E-03    4.89       4.3  T
   4    -21.7834963 -0.334357E-06  0.226E-03    4.89      12.8  T
   5    -21.7834963 -0.655394E-08  0.127E-03    4.89      22.8  T
     SCC iter.                  ...        0 min,  0.003 sec
     gradient                   ...        0 min,  0.002 sec
 * total energy  :   -21.6004755 Eh     change       -0.4036381E-04 Eh
   gradient norm :     0.0032124 Eh/α   predicted    -0.3033208E-04 ( -24.85%)
   displ. norm   :     0.1124625 α      lambda       -0.2593589E-04
   maximum displ.:     0.0930477 α      in ANC's #1, #2, #3, ...

........................................................................
.............................. CYCLE   41 ..............................
........................................................................
   1    -21.7836862 -0.217837E+02  0.101E-01    4.89       0.0  T
   2    -21.7836868 -0.619430E-06  0.611E-02    4.89       1.0  T
   3    -21.7836869 -0.687564E-07  0.495E-03    4.89       5.8  T
   4    -21.7836870 -0.156505E-06  0.206E-03    4.89      14.0  T
   5    -21.7836870 -0.578741E-08  0.112E-03    4.89      25.8  T
   6    -21.7836870 -0.104964E-08  0.145E-04    4.89     199.6  T
   7    -21.7836870 -0.280558E-10  0.578E-05    4.89     499.1  T
     SCC iter.                  ...        0 min,  0.094 sec
     gradient                   ...        0 min,  0.001 sec
 * total energy  :   -21.6004941 Eh     change       -0.1861037E-04 Eh
   gradient norm :     0.0025683 Eh/α   predicted    -0.1313096E-04 ( -29.44%)
   displ. norm   :     0.0703506 α      lambda       -0.1516480E-04
   maximum displ.:     0.0544845 α      in ANC's #2, #1, #4, ...

........................................................................
.............................. CYCLE   42 ..............................
........................................................................
   1    -21.7838519 -0.217839E+02  0.618E-02    4.89       0.0  T
   2    -21.7838523 -0.394077E-06  0.374E-02    4.89       1.0  T
   3    -21.7838523 -0.327514E-07  0.414E-03    4.89       7.0  T
   4    -21.7838524 -0.102281E-06  0.173E-03    4.89      16.7  T
   5    -21.7838524 -0.383607E-08  0.914E-04    4.89      31.6  T
   6    -21.7838524 -0.533642E-09  0.861E-05    4.89     335.2  T
     SCC iter.                  ...        0 min,  0.004 sec
     gradient                   ...        0 min,  0.091 sec
 * total energy  :   -21.6005036 Eh     change       -0.9446019E-05 Eh
   gradient norm :     0.0023794 Eh/α   predicted    -0.7618212E-05 ( -19.35%)
   displ. norm   :     0.0209730 α      lambda       -0.4147400E-05
   maximum displ.:     0.0181804 α      in ANC's #2, #1, #4, ...
 * RMSD in coord.:     0.6011721 α      energy gain  -0.6691165E-03 Eh

generating ANC from model Hessian ...
Using Lindh-Hessian (1995)
 Shifting diagonal of input Hessian by   6.241957474953395E-003
 Lowest  eigenvalues of input Hessian
   -0.000000   -0.000000    0.000000    0.000000    0.000000    0.000000
    0.010000    0.014124    0.019099    0.023856    0.026808    0.045835
    0.055527    0.058953    0.069069    0.074235    0.093897    0.100205
 Highest eigenvalues
    1.199045    1.212046    1.231980    1.332513    1.751179    2.315856
 

........................................................................
.............................. CYCLE   43 ..............................
........................................................................
   1    -21.7837305 -0.217837E+02  0.183E-02    4.89       0.0  T
   2    -21.7837305 -0.259323E-07  0.112E-02    4.89       2.6  T
   3    -21.7837305 -0.149154E-07  0.972E-04    4.89      29.7  T
   4    -21.7837305 -0.185549E-08  0.584E-04    4.89      49.4  T
     SCC iter.                  ...        0 min,  0.001 sec
     gradient                   ...        0 min,  0.001 sec
 * total energy  :   -21.6005067 Eh     change       -0.3144797E-05 Eh
   gradient norm :     0.0018428 Eh/α   predicted     0.0000000E+00 (-100.00%)
   displ. norm   :     0.0189114 α      lambda       -0.7527395E-05
   maximum displ.:     0.0143241 α      in ANC's #5, #2, #4, ...

........................................................................
.............................. CYCLE   44 ..............................
........................................................................
   1    -21.7835594 -0.217836E+02  0.325E-02    4.89       0.0  T
   2    -21.7835595 -0.154823E-06  0.202E-02    4.89       1.4  T
   3    -21.7835596 -0.652876E-07  0.167E-03    4.89      17.3  T
   4    -21.7835596 -0.380058E-08  0.847E-04    4.89      34.1  T
   5    -21.7835596 -0.704894E-09  0.399E-04    4.89      72.3  T
     SCC iter.                  ...        0 min,  0.001 sec
     gradient                   ...        0 min,  0.001 sec
 * total energy  :   -21.6005129 Eh     change       -0.6199741E-05 Eh
   gradient norm :     0.0006756 Eh/α   predicted    -0.3763127E-05 ( -39.30%)
   displ. norm   :     0.0312334 α      lambda       -0.5727474E-05
   maximum displ.:     0.0203232 α      in ANC's #5, #4, #2, ...

........................................................................
.............................. CYCLE   45 ..............................
........................................................................
   1    -21.7834026 -0.217834E+02  0.539E-02    4.89       0.0  T
   2    -21.7834030 -0.382747E-06  0.337E-02    4.89       1.0  T
   3    -21.7834032 -0.193245E-06  0.326E-03    4.89       8.8  T
   4    -21.7834033 -0.249813E-07  0.187E-03    4.89      15.5  T
   5    -21.7834033 -0.362399E-08  0.633E-04    4.89      45.6  T
   6    -21.7834033 -0.622315E-09  0.119E-04    4.89     243.2  T
     SCC iter.                  ...        0 min,  0.002 sec
     gradient                   ...        0 min,  0.001 sec
 * total energy  :   -21.6005165 Eh     change       -0.3577895E-05 Eh
   gradient norm :     0.0017988 Eh/α   predicted    -0.2864270E-05 ( -19.95%)
   displ. norm   :     0.0155651 α      lambda       -0.3090689E-05
   maximum displ.:     0.0092198 α      in ANC's #4, #2, #5, ...

........................................................................
.............................. CYCLE   46 ..............................
........................................................................
   1    -21.7834828 -0.217835E+02  0.223E-02    4.89       0.0  T
   2    -21.7834828 -0.362449E-07  0.135E-02    4.89       2.1  T
   3    -21.7834828 -0.103331E-07  0.855E-04    4.89      33.8  T
   4    -21.7834829 -0.250994E-08  0.399E-04    4.89      72.3  T
     SCC iter.                  ...        0 min,  0.001 sec
     gradient                   ...        0 min,  0.001 sec
 * total energy  :   -21.6005200 Eh     change       -0.3539659E-05 Eh
   gradient norm :     0.0009533 Eh/α   predicted    -0.1546841E-05 ( -56.30%)
   displ. norm   :     0.0272871 α      lambda       -0.2506642E-05
   maximum displ.:     0.0159416 α      in ANC's #4, #1, #2, ...

   *** GEOMETRY OPTIMIZATION CONVERGED AFTER 46 ITERATIONS ***

------------------------------------------------------------------------
 total energy gain   :        -0.0182532 Eh      -11.4541 kcal/mol
 total RMSD          :         0.7803527 a0        0.4129 Å
 total power (kW/mol):        -1.0418220 (step)  -20.7827 (real)
------------------------------------------------------------------------

 ANCopt (total)                0 d,  0 h,  0 min,  2.306 sec
 optimizer setup                ...        0 min,  0.000 sec (  0.022%)
 model hessian                  ...        0 min,  0.098 sec (  4.237%)
 ANC generation                 ...        0 min,  0.001 sec (  0.039%)
 coordinate transformation      ...        0 min,  0.002 sec (  0.073%)
 single point calculation       ...        0 min,  2.186 sec ( 94.802%)
 optimization log               ...        0 min,  0.003 sec (  0.150%)
 hessian update                 ...        0 min,  0.004 sec (  0.188%)
 rational function              ...        0 min,  0.004 sec (  0.153%)

================
 final structure:
================
12
 xtb: 6.2.3 (830e466)
C         1.14663471871067   -0.02918580705093   -2.34626828615168
C         0.56504295472002    0.53077899635902   -1.04466695563121
C         1.53106954238825    1.51173222549196   -0.44201357531479
O         1.54941441919314    2.76974831593072   -0.94659510883287
O         0.61462493528159    3.04190991050157   -1.97609202859099
O         2.31322201711347    1.28655069386730    0.43499226181313
H         0.77805742930142    3.98144186659586   -2.14838352621855
H         2.10613671264531   -0.50417344666102   -2.15622475021150
H         1.28421946281140    0.76468229734026   -3.07593979181297
H         0.46730123708810   -0.76776785140361   -2.76309192548915
H        -0.38432091315795    1.02768295362554   -1.24712754305671
H         0.41760748390475   -0.27380015459665   -0.32441877050259
 
 Bond Distances (Angstroems)
 ---------------------------
C1-C2=1.5317         C1-H8=1.0874         C1-H9=1.0870         C1-H10=1.0866        C2-C1=1.5317         C2-C3=1.5029         
C2-H11=1.0905        C2-H12=1.0899        C3-C2=1.5029         C3-O4=1.3556         C3-O6=1.1965         O4-C3=1.3556         
O4-O5=1.4170         O5-O4=1.4170         O5-H7=0.9691         O6-C3=1.1965         H7-O5=0.9691         H8-C1=1.0874         
H9-C1=1.0870         H10-C1=1.0866        H11-C2=1.0905        H12-C2=1.0899        
 C  H  Rav=1.0883 sigma=0.0016  Rmin=1.0866  Rmax=1.0905     5
 C  C  Rav=1.5173 sigma=0.0144  Rmin=1.5029  Rmax=1.5317     2
 O  H  Rav=0.9691 sigma=0.0000  Rmin=0.9691  Rmax=0.9691     1
 O  C  Rav=1.2760 sigma=0.0795  Rmin=1.1965  Rmax=1.3556     2
 O  O  Rav=1.4170 sigma=0.0000  Rmin=1.4170  Rmax=1.4170     1
 
 selected bond angles (degree)
 --------------------
H8-C1-C2=110.26                H9-C1-C2=110.58                H9-C1-H8=108.94                H10-C1-C2=109.70               
H10-C1-H8=108.77               H10-C1-H9=108.54               C3-C2-C1=109.59                H11-C2-C1=109.84               
H11-C2-C3=109.67               H12-C2-C1=110.06               H12-C2-C3=107.69               H12-C2-H11=109.96              
O4-C3-C2=117.72                O6-C3-C2=126.25                O6-C3-O4=116.02                O5-O4-C3=116.09                
H7-O5-O4=101.78                
 
 selected dihedral angles (degree)
 ---------------------------------
C3-C2-C1-H8= 58.01            C3-C2-C1-H9=297.46            C3-C2-C1-H10=177.77           H11-C2-C1-H8=178.56           
H11-C2-C1-H9= 58.01           H11-C2-C1-H10=298.32          H12-C2-C1-H8=299.76           H12-C2-C1-H9=179.21           
H12-C2-C1-H10= 59.53          O4-C3-C2-C1= 80.46            O4-C3-C2-H11=319.81           O4-C3-C2-H12=200.18           
O6-C3-C2-C1=261.86            O6-C3-C2-H11=141.21           O6-C3-C2-H12= 21.58           O5-O4-C3-C2=  1.86            
O5-O4-C3-O6=180.61            H7-O5-O4-C3=177.61            
           -------------------------------------------------
          |                Final Singlepoint                |
           -------------------------------------------------

          ...................................................
          :                      SETUP                      :
          :.................................................:
          :  # basis functions                  30          :
          :  # atomic orbitals                  30          :
          :  # shells                           18          :
          :  # electrons                        36          :
          :  max. iterations                   100          :
          :  Hamiltonian                  GFN2-xTB          :
          :  restarted?                      false          :
          :  GBSA solvation                  false          :
          :  PC potential                    false          :
          :  electronic temp.          300.0000000     K    :
          :  accuracy                    1.0000000          :
          :  -> integral cutoff          0.2500000E+02      :
          :  -> integral neglect         0.1000000E-07      :
          :  -> SCF convergence          0.1000000E-05 Eh   :
          :  -> wf. convergence          0.1000000E-03 e    :
          :  Broyden damping             0.4000000          :
          ...................................................

 iter      E             dE          RMSdq      gap      omega  full diag
   1    -21.7834829 -0.217835E+02  0.105E-04    4.89       0.0  T
   2    -21.7834829 -0.292353E-10  0.528E-05    4.89     547.0  T
   3    -21.7834829 -0.612488E-11  0.339E-05    4.89     852.3  T

   *** convergence criteria satisfied after 3 iterations ***

         #    Occupation            Energy/Eh            Energy/eV
      -------------------------------------------------------------
         1        2.0000           -0.7693184             -20.9342
       ...           ...                  ...                  ...
        12        2.0000           -0.5249333             -14.2842
        13        2.0000           -0.5138230             -13.9818
        14        2.0000           -0.4881205             -13.2824
        15        2.0000           -0.4749403             -12.9238
        16        2.0000           -0.4595875             -12.5060
        17        2.0000           -0.4545182             -12.3681
        18        2.0000           -0.4246603             -11.5556 (HOMO)
        19                         -0.2449196              -6.6646 (LUMO)
        20                         -0.1844872              -5.0202
        21                          0.0836971               2.2775
        22                          0.0953774               2.5954
        23                          0.1089245               2.9640
       ...                                ...                  ...
        30                          0.6386504              17.3786
      -------------------------------------------------------------
                  HL-Gap            0.1797406 Eh            4.8910 eV
             Fermi-level           -0.3347899 Eh           -9.1101 eV

 SCC (total)                   0 d,  0 h,  0 min,  0.093 sec
 SCC setup                      ...        0 min,  0.000 sec (  0.104%)
 Dispersion                     ...        0 min,  0.000 sec (  0.044%)
 integral evaluation            ...        0 min,  0.000 sec (  0.526%)
 zeroth order Hamiltonian       ...        0 min,  0.000 sec (  0.062%)
 iterations                     ...        0 min,  0.091 sec ( 97.605%)
 molecular gradient             ...        0 min,  0.001 sec (  1.365%)
 printout                       ...        0 min,  0.000 sec (  0.080%)

         :::::::::::::::::::::::::::::::::::::::::::::::::::::
         ::                     SUMMARY                     ::
         :::::::::::::::::::::::::::::::::::::::::::::::::::::
         :: total energy             -21.600520030025 Eh    ::
         :: gradient norm              0.000954426772 Eh/a0 ::
         :: HOMO-LUMO gap              4.890991896270 eV    ::
         ::.................................................::
         :: SCC energy               -21.783482852119 Eh    ::
         :: -> isotropic ES            0.049172999115 Eh    ::
         :: -> anisotropic ES         -0.002757973690 Eh    ::
         :: -> anisotropic XC         -0.005017494955 Eh    ::
         :: -> dispersion             -0.006072779761 Eh    ::
         :: repulsion energy           0.182954561875 Eh    ::
         :: add. restraining           0.000000000000 Eh    ::
         :::::::::::::::::::::::::::::::::::::::::::::::::::::

           -------------------------------------------------
          |                Property Printout                |
           -------------------------------------------------

    * Orbital Energies and Occupations

         #    Occupation            Energy/Eh            Energy/eV
      -------------------------------------------------------------
         1        2.0000           -0.7693184             -20.9342
       ...           ...                  ...                  ...
         6        2.0000           -0.6308150             -17.1654
         7        2.0000           -0.6172196             -16.7954
         8        2.0000           -0.6021181             -16.3845
         9        2.0000           -0.5705579             -15.5257
        10        2.0000           -0.5495675             -14.9545
        11        2.0000           -0.5386013             -14.6561
        12        2.0000           -0.5249333             -14.2842
        13        2.0000           -0.5138230             -13.9818
        14        2.0000           -0.4881205             -13.2824
        15        2.0000           -0.4749403             -12.9238
        16        2.0000           -0.4595875             -12.5060
        17        2.0000           -0.4545182             -12.3681
        18        2.0000           -0.4246603             -11.5556 (HOMO)
        19                         -0.2449196              -6.6646 (LUMO)
        20                         -0.1844872              -5.0202
        21                          0.0836971               2.2775
        22                          0.0953774               2.5954
        23                          0.1089245               2.9640
        24                          0.1366202               3.7176
        25                          0.1634805               4.4485
        26                          0.1738567               4.7309
        27                          0.2166125               5.8943
        28                          0.2442523               6.6464
        29                          0.3112333               8.4691
        30                          0.6386504              17.3786
      -------------------------------------------------------------
                  HL-Gap            0.1797406 Eh            4.8910 eV
             Fermi-level           -0.3347899 Eh           -9.1101 eV

     #   Z        covCN         q      C6AA      α(0)
     1   6 C      3.754    -0.101    22.481     6.761
     2   6 C      3.801    -0.086    22.133     6.698
     3   6 C      2.692     0.363    20.835     7.470
     4   8 O      1.788    -0.158    16.677     5.514
     5   8 O      1.739    -0.296    18.911     5.872
     6   8 O      0.857    -0.361    20.921     6.133
     7   1 H      0.804     0.338     0.616     1.233
     8   1 H      0.925     0.050     2.323     2.383
     9   1 H      0.925     0.055     2.255     2.348
    10   1 H      0.925     0.052     2.295     2.369
    11   1 H      0.924     0.076     2.024     2.225
    12   1 H      0.925     0.067     2.114     2.274

 Mol. C6AA /au·bohr⁶  :       1232.458107
 Mol. C8AA /au·bohr⁸  :      26184.334038
 Mol. α(0) /au        :         51.281041


Wiberg/Mayer (AO) data.
largest (>0.10) Wiberg bond orders for each atom
          total WBO             WBO to atom ...
     1  C   3.991        C    2 0.989    H    8 0.988    H    9 0.986    H   10 0.983
     2  C   3.992        C    1 0.989    C    3 0.984    H   12 0.971    H   11 0.961
     3  C   3.899        O    6 1.783    O    4 1.074    C    2 0.984
     4  O   2.245        C    3 1.074    O    5 0.968    O    6 0.164
     5  O   1.917        O    4 0.968    H    7 0.878
     6  O   2.087        C    3 1.783    O    4 0.164
     7  H   0.886        O    5 0.878
     8  H   0.998        C    1 0.988
     9  H   0.997        C    1 0.986
    10  H   0.997        C    1 0.983
    11  H   0.994        C    2 0.961
    12  H   0.995        C    2 0.971

molecular dipole:
                 x           y           z       tot (Debye)
 q only:       -0.771       0.165      -0.985
   full:       -0.848       0.362      -1.097       3.641
molecular quadrupole (traceless):
                xx          xy          yy          xz          yz          zz
 q only:       -8.996      -2.656       6.867      -3.996      -6.221       2.129
  q+dip:      -10.532      -1.998      10.025      -5.979      -7.673       0.507
   full:      -10.559      -2.293       9.615      -6.019      -7.551       0.944

           -------------------------------------------------
          |                Geometry Summary                 |
           -------------------------------------------------

      molecular mass/u    :       90.0780670
   center of mass at/Å    :        1.2798607       1.5765245      -1.0840196
  moments of inertia/u·Å² :        0.1212895E+03   0.1377784E+03   0.2292844E+03
rotational constants/cm⁻¹ :        0.1389867E+00   0.1223532E+00   0.7352280E-01

 * 10 selected distances

     #   Z        #   Z                                     value/Å
     1   6 C      2   6 C                                 1.5316578 (max)
     3   6 C      4   8 O                                 1.3555602
     4   8 O      5   8 O                                 1.4169570
     3   6 C      6   8 O                                 1.1964984
     5   8 O      7   1 H                                 0.9690794 (min)
     1   6 C      8   1 H                                 1.0873702
     1   6 C      9   1 H                                 1.0870035
     1   6 C     10   1 H                                 1.0866183
     2   6 C     11   1 H                                 1.0905024
     2   6 C     12   1 H                                 1.0898818

 * 5 distinct bonds (by element types)

   Z      Z             #   av. dist./Å        max./Å        min./Å
   1 H    6 C           5     1.0882752     1.0905024     1.0866183
   6 C    6 C           1     1.5316578     1.5316578     1.5316578
   1 H    8 O           1     0.9690794     0.9690794     0.9690794
   6 C    8 O           2     1.2760293     1.3555602     1.1964984
   8 O    8 O           1     1.4169570     1.4169570     1.4169570


optimized geometry written to: xtbopt.xyz


           -------------------------------------------------
          | TOTAL ENERGY              -21.600520030025 Eh   |
          | GRADIENT NORM               0.000954426772 Eh/α |
          | HOMO-LUMO GAP               4.890991896270 eV   |
           -------------------------------------------------

------------------------------------------------------------------------
 * finished run on 2020/12/23 at 21:39:51.567     
------------------------------------------------------------------------
 total:
 * wall-time:     0 d,  0 h,  0 min,  2.851 sec
 *  cpu-time:     0 d,  0 h,  0 min, 11.877 sec
 * ratio c/w:     4.166 speedup
 SCF:
 * wall-time:     0 d,  0 h,  0 min,  0.194 sec
 *  cpu-time:     0 d,  0 h,  0 min,  0.647 sec
 * ratio c/w:     3.334 speedup
 ANC optimizer:
 * wall-time:     0 d,  0 h,  0 min,  2.402 sec
 *  cpu-time:     0 d,  0 h,  0 min,  9.667 sec
 * ratio c/w:     4.024 speedup

