      -----------------------------------------------------------      
     |                   =====================                   |     
     |                           x T B                           |     
     |                   =====================                   |     
     |                         S. Grimme                         |     
     |          Mulliken Center for Theoretical Chemistry        |     
     |                    University of Bonn                     |     
      -----------------------------------------------------------      

   * xtb version 6.2.3 (830e466) compiled by 'ehlert@majestix' on 2020-03-16

   xtb is free software: you can redistribute it and/or modify it under
   the terms of the GNU Lesser General Public License as published by
   the Free Software Foundation, either version 3 of the License, or
   (at your option) any later version.
   
   xtb is distributed in the hope that it will be useful,
   but WITHOUT ANY WARRANTY; without even the implied warranty of
   MERCHANTABILITY or FITNESS FOR A PARTICULAR PURPOSE.  See the
   GNU Lesser General Public License for more details.
   
   Cite this work as:
   * S. Grimme, C. Bannwarth, P. Shushkov, J. Chem. Theory Comput., 2017,
     13, 1989-2009. DOI: 10.1021/acs.jctc.7b00118
   * C. Bannwarth, S. Ehlert and S. Grimme., J. Chem. Theory Comput., 2019,
     15, 1652-1671. DOI: 10.1021/acs.jctc.8b01176
   * P. Pracht, E. Caldeweyher, S. Ehlert, S. Grimme, ChemRxiv, 2019, preprint.
     DOI: 10.26434/chemrxiv.8326202.v1
   
   for DFT-D4:
   * E. Caldeweyher, C. Bannwarth and S. Grimme, J. Chem. Phys., 2017,
     147, 034112. DOI: 10.1063/1.4993215
   * E. Caldeweyher, S. Ehlert, A. Hansen, H. Neugebauer, S. Spicher,
     C. Bannwarth and S. Grimme, J. Chem. Phys., 2019, 150, 154122.
     DOI: 10.1063/1.5090222
   
   for sTDA-xTB:
   * S. Grimme and C. Bannwarth, J. Chem. Phys., 2016, 145, 054103.
     DOI: 10.1063/1.4959605
   
   in the mass-spec context:
   * V. Asgeirsson, C. Bauer and S. Grimme, Chem. Sci., 2017, 8, 4879.
     DOI: 10.1039/c7sc00601b
   
   for metadynamics refer to:
   * S. Grimme, J. Chem. Theory Comput., 2019, 155, 2847-2862
     DOI: 10.1021/acs.jctc.9b00143
   
   with help from (in alphabetical order)
   C. Bannwarth, F. Bohle, G. Brandenburg, E. Caldeweyher, M. Checinski,
   S. Dohm, S. Ehlert, S. Ehrlich, F. März, H. Neugebauer, J. Pisarek,
   P. Pracht, P. Shushkov, and S. Spicher.
   
 * started run on 2020/12/23 at 21:43:19.061     

           -------------------------------------------------
          |                Calculation Setup                |
           -------------------------------------------------

          program call               : xtb -c 0 -u 0 -a 1.0 --iterations 100 --opt normal --namespace product_32 /scratch/bell/zhao922/YARP/paper-example/potential_product/test/reaction_channel/pp_0/pp_7_0.xyz
          hostname                   : bell-fe05.rcac.purdue.edu
          calculation namespace      : product_32
          coordinate file            : /scratch/bell/zhao922/YARP/paper-example/potential_product/test/reaction_channel/pp_0/pp_7_0.xyz
          omp threads                :                    32
          number of atoms            :                    12
          number of electrons        :                    36
          charge                     :                     0
          spin                       :                   0.0
          first test random number   :      0.64449222655121


molecular fragmentation (1/2 indicates fragments):
112222211211
# atoms in fragment 1/2:     6     6
 fragment masses (1/2) :       28.05       62.02
CMA distance (Bohr)    :   6.727
constraining FC (au)   :  0.0500
           ------------------------------------------------- 
          |                 G F N 2 - x T B                 |
          | Geometry, Frequencies, Noncovalent interactions |
          |            JCTC 2019 parametrisation            |
           ------------------------------------------------- 
             k(s)              :                1.8500
             k(p)              :                2.2300
             k(d)              :                2.2300
             k(f)              :                2.0000
             kEN (H0ij)        :               -2.0000
             D4 a1             :                0.5200
             D4 a2             :                5.0000
             D4 s6             :                1.0000
             D4 s8             :                2.7000
             D4 s9             :                5.0000
             alphaj            :                2.0000

  Z AO/shell   Hii/eV     exponent
  1     Wed Apr 25 08:07:45 CEST 2018   EN: 2.200 GM2: 0.406  GM3: 0.0800  RAES: 1.40
     1s    -10.707211    1.230000
  6     Wed Apr 25 08:07:45 CEST 2018   EN: 2.550 GM2: 0.538  GM3: 0.1500  RAES: 3.00
     2s    -13.970922    2.096432
     2p    -10.063292    1.800000
  8     Wed Apr 25 08:07:45 CEST 2018   EN: 3.440 GM2: 0.452  GM3:-0.0517  RAES: 1.80
     2s    -20.229985    2.439742
     2p    -15.503117    2.137023

           ------------------------------------------------- 
          |        Self-Consistent Charge Iterations        |
           ------------------------------------------------- 

          ...................................................
          :                      SETUP                      :
          :.................................................:
          :  # basis functions                  30          :
          :  # atomic orbitals                  30          :
          :  # shells                           18          :
          :  # electrons                        36          :
          :  max. iterations                   100          :
          :  Hamiltonian                  GFN2-xTB          :
          :  restarted?                      false          :
          :  GBSA solvation                  false          :
          :  PC potential                    false          :
          :  electronic temp.          300.0000000     K    :
          :  accuracy                    1.0000000          :
          :  -> integral cutoff          0.2500000E+02      :
          :  -> integral neglect         0.1000000E-07      :
          :  -> SCF convergence          0.1000000E-05 Eh   :
          :  -> wf. convergence          0.1000000E-03 e    :
          :  Broyden damping             0.4000000          :
          ...................................................

 iter      E             dE          RMSdq      gap      omega  full diag
   1    -21.6697421 -0.216697E+02  0.556E+00    4.97       0.0  T
   2    -21.7088764 -0.391343E-01  0.311E+00    4.29       1.0  T
   3    -21.7089169 -0.404859E-04  0.160E+00    4.79       1.0  T
   4    -21.7137228 -0.480591E-02  0.214E-01    4.13       1.0  T
   5    -21.7138977 -0.174880E-03  0.136E-01    4.13       1.0  T
   6    -21.7140097 -0.112017E-03  0.621E-02    4.14       1.0  T
   7    -21.7140159 -0.619001E-05  0.161E-02    4.15       1.8  T
   8    -21.7140174 -0.147928E-05  0.722E-03    4.15       4.0  T
   9    -21.7140177 -0.337994E-06  0.268E-03    4.15      10.8  T
  10    -21.7140178 -0.593300E-07  0.720E-04    4.15      40.1  T
  11    -21.7140178 -0.304795E-08  0.131E-04    4.15     219.7  T

   *** convergence criteria satisfied after 11 iterations ***

         #    Occupation            Energy/Eh            Energy/eV
      -------------------------------------------------------------
         1        2.0000           -0.8007851             -21.7905
       ...           ...                  ...                  ...
        12        2.0000           -0.5211593             -14.1815
        13        2.0000           -0.5093231             -13.8594
        14        2.0000           -0.4812313             -13.0950
        15        2.0000           -0.4798846             -13.0583
        16        2.0000           -0.4470695             -12.1654
        17        2.0000           -0.4423134             -12.0360
        18        2.0000           -0.4278184             -11.6415 (HOMO)
        19                         -0.2754225              -7.4946 (LUMO)
        20                         -0.2251091              -6.1255
        21                         -0.0736381              -2.0038
        22                          0.0548797               1.4934
        23                          0.0950659               2.5869
       ...                                ...                  ...
        30                          0.5375585              14.6277
      -------------------------------------------------------------
                  HL-Gap            0.1523959 Eh            4.1469 eV
             Fermi-level           -0.3516205 Eh           -9.5681 eV

 SCC (total)                   0 d,  0 h,  0 min,  0.011 sec
 SCC setup                      ...        0 min,  0.000 sec (  1.159%)
 Dispersion                     ...        0 min,  0.000 sec (  0.483%)
 integral evaluation            ...        0 min,  0.001 sec (  8.028%)
 zeroth order Hamiltonian       ...        0 min,  0.000 sec (  0.544%)
 iterations                     ...        0 min,  0.007 sec ( 62.796%)
 molecular gradient             ...        0 min,  0.003 sec ( 24.780%)
 printout                       ...        0 min,  0.000 sec (  0.740%)

         :::::::::::::::::::::::::::::::::::::::::::::::::::::
         ::                     SUMMARY                     ::
         :::::::::::::::::::::::::::::::::::::::::::::::::::::
         :: total energy             -21.516238012472 Eh    ::
         :: gradient norm              0.157989581692 Eh/a0 ::
         :: HOMO-LUMO gap              4.146904290356 eV    ::
         ::.................................................::
         :: SCC energy               -21.714017795522 Eh    ::
         :: -> isotropic ES            0.044125164456 Eh    ::
         :: -> anisotropic ES          0.003880462509 Eh    ::
         :: -> anisotropic XC         -0.005881480241 Eh    ::
         :: -> dispersion             -0.005469184892 Eh    ::
         :: repulsion energy           0.197761639284 Eh    ::
         :: add. restraining           0.000000000000 Eh    ::
         :::::::::::::::::::::::::::::::::::::::::::::::::::::

      ----------------------------------------------------------- 
     |                   =====================                   |
     |                        A N C O P T                        |
     |                   =====================                   |
     |               Approximate Normal Coordinate               |
     |                Rational Function Optimizer                |
      ----------------------------------------------------------- 

          ...................................................
          :                      SETUP                      :
          :.................................................:
          :   optimization level            normal          :
          :   max. optcycles                   200          :
          :   ANC micro-cycles                  20          :
          :   degrees of freedom                30          :
          :.................................................:
          :   RF solver                   davidson          :
          :   write xtbopt.log                true          :
          :   linear?                        false          :
          :   energy convergence         0.5000000E-05 Eh   :
          :   grad. convergence          0.1000000E-02 Eh/α :
          :   maximium RF displ.         1.0000000          :
          :   Hlow (freq-cutoff)         0.1000000E-01      :
          :   Hmax (freq-cutoff)         5.0000000          :
          :   S6 in model hess.         20.0000000          :
          ...................................................

generating ANC from model Hessian ...
Using Lindh-Hessian (1995)
 Shifting diagonal of input Hessian by   9.617124277179187E-003
 Lowest  eigenvalues of input Hessian
   -0.000000   -0.000000   -0.000000    0.000000    0.000000    0.000000
    0.010000    0.010068    0.010254    0.010349    0.010591    0.010726
    0.026610    0.029247    0.039483    0.045495    0.078965    0.083184
 Highest eigenvalues
    1.205377    1.477305    1.613978    1.826825    1.879504    2.315233
 

........................................................................
.............................. CYCLE    1 ..............................
........................................................................
   1    -21.7140178 -0.217140E+02  0.313E-05    4.15       0.0  T
   2    -21.7140178 -0.204636E-11  0.225E-05    4.15    1280.6  T
   3    -21.7140178 -0.139266E-11  0.123E-05    4.15    2353.6  T
     SCC iter.                  ...        0 min,  0.001 sec
     gradient                   ...        0 min,  0.001 sec
 * total energy  :   -21.5162380 Eh     change        0.4922533E-09 Eh
   gradient norm :     0.1579894 Eh/α   predicted     0.0000000E+00 (-100.00%)
   displ. norm   :     0.1709185 α      lambda       -0.1733987E-01
   maximum displ.:     0.1011153 α      in ANC's #14, #28, #27, ...

........................................................................
.............................. CYCLE    2 ..............................
........................................................................
   1    -21.7376831 -0.217377E+02  0.400E-01    4.46       0.0  T
   2    -21.7380855 -0.402391E-03  0.243E-01    4.35       1.0  T
   3    -21.7380997 -0.142704E-04  0.106E-01    4.34       1.0  T
   4    -21.7381017 -0.201260E-05  0.141E-02    4.34       2.0  T
   5    -21.7381019 -0.107634E-06  0.105E-02    4.35       2.7  T
   6    -21.7381026 -0.715192E-06  0.443E-03    4.35       6.5  T
   7    -21.7381026 -0.275675E-07  0.123E-03    4.35      23.4  T
     SCC iter.                  ...        0 min,  0.002 sec
     gradient                   ...        0 min,  0.001 sec
 * total energy  :   -21.5280130 Eh     change       -0.1177503E-01 Eh
   gradient norm :     0.0564430 Eh/α   predicted    -0.8923205E-02 ( -24.22%)
   displ. norm   :     0.2060169 α      lambda       -0.5830581E-02
   maximum displ.:     0.1590684 α      in ANC's #14, #9, #15, ...

........................................................................
.............................. CYCLE    3 ..............................
........................................................................
   1    -21.7468670 -0.217469E+02  0.391E-01    4.50       0.0  T
   2    -21.7470502 -0.183242E-03  0.243E-01    4.43       1.0  T
   3    -21.7470632 -0.129504E-04  0.722E-02    4.42       1.0  T
   4    -21.7470655 -0.238834E-05  0.123E-02    4.43       2.3  T
   5    -21.7470659 -0.333886E-06  0.732E-03    4.43       3.9  T
   6    -21.7470660 -0.119439E-06  0.436E-03    4.43       6.6  T
   7    -21.7470660 -0.511538E-07  0.225E-03    4.43      12.8  T
     SCC iter.                  ...        0 min,  0.003 sec
     gradient                   ...        0 min,  0.086 sec
 * total energy  :   -21.5309557 Eh     change       -0.2942666E-02 Eh
   gradient norm :     0.0153849 Eh/α   predicted    -0.3039029E-02 (   3.27%)
   displ. norm   :     0.2194981 α      lambda       -0.2363150E-02
   maximum displ.:     0.1026512 α      in ANC's #14, #11, #10, ...

........................................................................
.............................. CYCLE    4 ..............................
........................................................................
   1    -21.7453349 -0.217453E+02  0.429E-01    4.44       0.0  T
   2    -21.7453652 -0.302948E-04  0.270E-01    4.43       1.0  T
   3    -21.7453705 -0.534274E-05  0.423E-02    4.43       1.0  T
   4    -21.7453827 -0.121497E-04  0.190E-02    4.44       1.5  T
   5    -21.7453842 -0.153203E-05  0.986E-03    4.44       2.9  T
   6    -21.7453844 -0.180007E-06  0.334E-03    4.44       8.6  T
   7    -21.7453844 -0.414443E-07  0.105E-03    4.44      27.6  T
   8    -21.7453844 -0.369278E-08  0.578E-04    4.44      49.9  T
     SCC iter.                  ...        0 min,  0.002 sec
     gradient                   ...        0 min,  0.002 sec
 * total energy  :   -21.5311282 Eh     change       -0.1724583E-03 Eh
   gradient norm :     0.0257775 Eh/α   predicted    -0.1238499E-02 ( 618.14%)
   displ. norm   :     0.0931449 α      lambda       -0.1363816E-02
   maximum displ.:     0.0579979 α      in ANC's #11, #6, #7, ...

........................................................................
.............................. CYCLE    5 ..............................
........................................................................
   1    -21.7465633 -0.217466E+02  0.210E-01    4.42       0.0  T
   2    -21.7465721 -0.885077E-05  0.134E-01    4.43       1.0  T
   3    -21.7465760 -0.389541E-05  0.195E-02    4.43       1.5  T
   4    -21.7465783 -0.227233E-05  0.100E-02    4.42       2.9  T
   5    -21.7465786 -0.328455E-06  0.457E-03    4.42       6.3  T
   6    -21.7465787 -0.362253E-07  0.112E-03    4.42      25.8  T
     SCC iter.                  ...        0 min,  0.002 sec
     gradient                   ...        0 min,  0.001 sec
 * total energy  :   -21.5318842 Eh     change       -0.7560167E-03 Eh
   gradient norm :     0.0096633 Eh/α   predicted    -0.6878236E-03 (  -9.02%)
   displ. norm   :     0.1079334 α      lambda       -0.3942933E-03
   maximum displ.:     0.0566979 α      in ANC's #9, #1, #6, ...

........................................................................
.............................. CYCLE    6 ..............................
........................................................................
   1    -21.7459343 -0.217459E+02  0.142E-01    4.40       0.0  T
   2    -21.7459360 -0.164291E-05  0.873E-02    4.41       1.0  T
   3    -21.7459360 -0.478142E-07  0.934E-03    4.41       3.1  T
   4    -21.7459366 -0.563920E-06  0.446E-03    4.41       6.5  T
   5    -21.7459367 -0.991997E-07  0.190E-03    4.41      15.2  T
   6    -21.7459367 -0.379287E-08  0.850E-04    4.41      34.0  T
     SCC iter.                  ...        0 min,  0.002 sec
     gradient                   ...        0 min,  0.286 sec
 * total energy  :   -21.5320655 Eh     change       -0.1813420E-03 Eh
   gradient norm :     0.0068118 Eh/α   predicted    -0.1994420E-03 (   9.98%)
   displ. norm   :     0.1538166 α      lambda       -0.3867227E-03
   maximum displ.:     0.0814960 α      in ANC's #1, #6, #14, ...

........................................................................
.............................. CYCLE    7 ..............................
........................................................................
   1    -21.7455027 -0.217455E+02  0.215E-01    4.39       0.0  T
   2    -21.7455075 -0.478329E-05  0.132E-01    4.38       1.0  T
   3    -21.7455070  0.469813E-06  0.188E-02    4.38       1.5  T
   4    -21.7455093 -0.231763E-05  0.764E-03    4.38       3.8  T
   5    -21.7455096 -0.315024E-06  0.369E-03    4.38       7.8  T
   6    -21.7455097 -0.267936E-07  0.156E-03    4.38      18.5  T
   7    -21.7455097 -0.456845E-08  0.253E-04    4.38     114.2  T
     SCC iter.                  ...        0 min,  0.002 sec
     gradient                   ...        0 min,  0.001 sec
 * total energy  :   -21.5323365 Eh     change       -0.2709932E-03 Eh
   gradient norm :     0.0078140 Eh/α   predicted    -0.1979354E-03 ( -26.96%)
   displ. norm   :     0.2034388 α      lambda       -0.3001887E-03
   maximum displ.:     0.1171827 α      in ANC's #1, #6, #4, ...

........................................................................
.............................. CYCLE    8 ..............................
........................................................................
   1    -21.7459274 -0.217459E+02  0.243E-01    4.37       0.0  T
   2    -21.7459341 -0.675884E-05  0.148E-01    4.36       1.0  T
   3    -21.7459352 -0.109535E-05  0.179E-02    4.36       1.6  T
   4    -21.7459369 -0.164292E-05  0.786E-03    4.36       3.7  T
   5    -21.7459371 -0.180298E-06  0.474E-03    4.36       6.1  T
   6    -21.7459371 -0.714368E-07  0.214E-03    4.36      13.5  T
   7    -21.7459371 -0.149385E-07  0.545E-04    4.36      53.0  T
     SCC iter.                  ...        0 min,  0.002 sec
     gradient                   ...        0 min,  0.001 sec
 * total energy  :   -21.5325112 Eh     change       -0.1746998E-03 Eh
   gradient norm :     0.0080848 Eh/α   predicted    -0.1563075E-03 ( -10.53%)
   displ. norm   :     0.1106646 α      lambda       -0.1354844E-03
   maximum displ.:     0.0643040 α      in ANC's #1, #7, #4, ...

........................................................................
.............................. CYCLE    9 ..............................
........................................................................
   1    -21.7464327 -0.217464E+02  0.144E-01    4.39       0.0  T
   2    -21.7464353 -0.257627E-05  0.893E-02    4.39       1.0  T
   3    -21.7464328  0.254228E-05  0.219E-02    4.39       1.3  T
   4    -21.7464369 -0.419231E-05  0.591E-03    4.38       4.9  T
   5    -21.7464371 -0.113464E-06  0.344E-03    4.38       8.4  T
   6    -21.7464371 -0.249428E-07  0.990E-04    4.38      29.2  T
   7    -21.7464371 -0.328255E-08  0.399E-04    4.38      72.3  T
     SCC iter.                  ...        0 min,  0.003 sec
     gradient                   ...        0 min,  0.001 sec
 * total energy  :   -21.5325999 Eh     change       -0.8869674E-04 Eh
   gradient norm :     0.0100989 Eh/α   predicted    -0.6857131E-04 ( -22.69%)
   displ. norm   :     0.1761818 α      lambda       -0.2015134E-03
   maximum displ.:     0.1274103 α      in ANC's #1, #4, #7, ...

........................................................................
.............................. CYCLE   10 ..............................
........................................................................
   1    -21.7478519 -0.217479E+02  0.182E-01    4.41       0.0  T
   2    -21.7478568 -0.488627E-05  0.112E-01    4.41       1.0  T
   3    -21.7478538  0.298467E-05  0.233E-02    4.41       1.2  T
   4    -21.7478581 -0.425490E-05  0.753E-03    4.41       3.8  T
   5    -21.7478585 -0.386567E-06  0.334E-03    4.41       8.6  T
   6    -21.7478585 -0.298285E-07  0.170E-03    4.41      17.0  T
   7    -21.7478585 -0.648090E-08  0.450E-04    4.41      64.1  T
     SCC iter.                  ...        0 min,  0.002 sec
     gradient                   ...        0 min,  0.001 sec
 * total energy  :   -21.5327546 Eh     change       -0.1546926E-03 Eh
   gradient norm :     0.0072295 Eh/α   predicted    -0.1038841E-03 ( -32.84%)
   displ. norm   :     0.3392835 α      lambda       -0.2704090E-03
   maximum displ.:     0.2528493 α      in ANC's #1, #4, #7, ...

........................................................................
.............................. CYCLE   11 ..............................
........................................................................
   1    -21.7464427 -0.217464E+02  0.347E-01    4.38       0.0  T
   2    -21.7464491 -0.641330E-05  0.213E-01    4.38       1.0  T
   3    -21.7464375  0.115860E-04  0.408E-02    4.38       1.0  T
   4    -21.7464538 -0.162913E-04  0.807E-03    4.38       3.6  T
   5    -21.7464539 -0.102010E-06  0.429E-03    4.38       6.7  T
   6    -21.7464539 -0.335706E-07  0.151E-03    4.38      19.1  T
   7    -21.7464539 -0.771137E-08  0.693E-04    4.38      41.7  T
     SCC iter.                  ...        0 min,  0.002 sec
     gradient                   ...        0 min,  0.001 sec
 * total energy  :   -21.5329359 Eh     change       -0.1813228E-03 Eh
   gradient norm :     0.0063552 Eh/α   predicted    -0.1507725E-03 ( -16.85%)
   displ. norm   :     0.2237613 α      lambda       -0.2180402E-03
   maximum displ.:     0.1662453 α      in ANC's #1, #4, #3, ...

........................................................................
.............................. CYCLE   12 ..............................
........................................................................
   1    -21.7479382 -0.217479E+02  0.210E-01    4.39       0.0  T
   2    -21.7479468 -0.860246E-05  0.128E-01    4.39       1.0  T
   3    -21.7479435  0.335771E-05  0.272E-02    4.40       1.1  T
   4    -21.7479482 -0.477055E-05  0.864E-03    4.40       3.3  T
   5    -21.7479488 -0.523113E-06  0.385E-03    4.40       7.5  T
   6    -21.7479488 -0.666151E-07  0.187E-03    4.40      15.4  T
   7    -21.7479488 -0.800696E-08  0.594E-04    4.39      48.6  T
     SCC iter.                  ...        0 min,  0.002 sec
     gradient                   ...        0 min,  0.001 sec
 * total energy  :   -21.5330395 Eh     change       -0.1036116E-03 Eh
   gradient norm :     0.0059405 Eh/α   predicted    -0.1144796E-03 (  10.49%)
   displ. norm   :     0.1997449 α      lambda       -0.1037208E-03
   maximum displ.:     0.1418136 α      in ANC's #1, #4, #7, ...

........................................................................
.............................. CYCLE   13 ..............................
........................................................................
   1    -21.7464593 -0.217465E+02  0.203E-01    4.37       0.0  T
   2    -21.7464622 -0.291496E-05  0.124E-01    4.37       1.0  T
   3    -21.7464561  0.605061E-05  0.287E-02    4.36       1.0  T
   4    -21.7464642 -0.805022E-05  0.514E-03    4.36       5.6  T
   5    -21.7464642 -0.590409E-07  0.266E-03    4.36      10.9  T
   6    -21.7464642 -0.957337E-08  0.117E-03    4.36      24.7  T
     SCC iter.                  ...        0 min,  0.002 sec
     gradient                   ...        0 min,  0.002 sec
 * total energy  :   -21.5330964 Eh     change       -0.5685898E-04 Eh
   gradient norm :     0.0043928 Eh/α   predicted    -0.5392880E-04 (  -5.15%)
   displ. norm   :     0.0977569 α      lambda       -0.1005743E-03
   maximum displ.:     0.0625354 α      in ANC's #6, #5, #3, ...

........................................................................
.............................. CYCLE   14 ..............................
........................................................................
   1    -21.7476116 -0.217476E+02  0.631E-02    4.37       0.0  T
   2    -21.7476140 -0.233080E-05  0.392E-02    4.37       1.0  T
   3    -21.7476137  0.264101E-06  0.122E-02    4.37       2.4  T
   4    -21.7476142 -0.452592E-06  0.387E-03    4.37       7.5  T
   5    -21.7476143 -0.121569E-06  0.146E-03    4.37      19.7  T
   6    -21.7476143 -0.115056E-07  0.766E-04    4.37      37.7  T
     SCC iter.                  ...        0 min,  0.001 sec
     gradient                   ...        0 min,  0.001 sec
 * total energy  :   -21.5331669 Eh     change       -0.7047814E-04 Eh
   gradient norm :     0.0041409 Eh/α   predicted    -0.5076641E-04 ( -27.97%)
   displ. norm   :     0.2908639 α      lambda       -0.1369293E-03
   maximum displ.:     0.1956070 α      in ANC's #1, #6, #5, ...

........................................................................
.............................. CYCLE   15 ..............................
........................................................................
   1    -21.7462713 -0.217463E+02  0.231E-01    4.34       0.0  T
   2    -21.7462752 -0.389717E-05  0.141E-01    4.35       1.0  T
   3    -21.7462744  0.809751E-06  0.180E-02    4.35       1.6  T
   4    -21.7462771 -0.271877E-05  0.699E-03    4.35       4.1  T
   5    -21.7462774 -0.219457E-06  0.333E-03    4.35       8.7  T
   6    -21.7462774 -0.716465E-08  0.856E-04    4.35      33.7  T
   7    -21.7462774 -0.359497E-08  0.244E-04    4.35     118.2  T
     SCC iter.                  ...        0 min,  0.092 sec
     gradient                   ...        0 min,  0.001 sec
 * total energy  :   -21.5332505 Eh     change       -0.8360100E-04 Eh
   gradient norm :     0.0080326 Eh/α   predicted    -0.7425767E-04 ( -11.18%)
   displ. norm   :     0.2073139 α      lambda       -0.9023311E-04
   maximum displ.:     0.1252561 α      in ANC's #6, #1, #5, ...

........................................................................
.............................. CYCLE   16 ..............................
........................................................................
   1    -21.7475617 -0.217476E+02  0.134E-01    4.37       0.0  T
   2    -21.7475633 -0.157788E-05  0.824E-02    4.37       1.0  T
   3    -21.7475631  0.177916E-06  0.117E-02    4.37       2.5  T
   4    -21.7475642 -0.108484E-05  0.437E-03    4.37       6.6  T
   5    -21.7475642 -0.457486E-07  0.248E-03    4.37      11.6  T
   6    -21.7475643 -0.174023E-07  0.740E-04    4.37      39.0  T
     SCC iter.                  ...        0 min,  0.001 sec
     gradient                   ...        0 min,  0.001 sec
 * total energy  :   -21.5333084 Eh     change       -0.5790397E-04 Eh
   gradient norm :     0.0047462 Eh/α   predicted    -0.4705568E-04 ( -18.73%)
   displ. norm   :     0.3242664 α      lambda       -0.9025152E-04
   maximum displ.:     0.1970687 α      in ANC's #1, #3, #6, ...

........................................................................
.............................. CYCLE   17 ..............................
........................................................................
   1    -21.7477124 -0.217477E+02  0.241E-01    4.35       0.0  T
   2    -21.7477258 -0.134247E-04  0.144E-01    4.34       1.0  T
   3    -21.7477232  0.255318E-05  0.299E-02    4.33       1.0  T
   4    -21.7477275 -0.425781E-05  0.912E-03    4.33       3.2  T
   5    -21.7477281 -0.611164E-06  0.395E-03    4.33       7.3  T
   6    -21.7477282 -0.751910E-07  0.202E-03    4.33      14.3  T
   7    -21.7477282 -0.682273E-08  0.407E-04    4.33      70.9  T
     SCC iter.                  ...        0 min,  0.092 sec
     gradient                   ...        0 min,  0.001 sec
 * total energy  :   -21.5333301 Eh     change       -0.2174867E-04 Eh
   gradient norm :     0.0058816 Eh/α   predicted    -0.4986876E-04 ( 129.30%)
   displ. norm   :     0.0531554 α      lambda       -0.7053355E-04
   maximum displ.:     0.0441797 α      in ANC's #6, #5, #4, ...

........................................................................
.............................. CYCLE   18 ..............................
........................................................................
   1    -21.7482506 -0.217483E+02  0.674E-02    4.36       0.0  T
   2    -21.7482581 -0.752318E-05  0.396E-02    4.36       1.0  T
   3    -21.7482585 -0.306560E-06  0.203E-02    4.37       1.4  T
   4    -21.7482589 -0.416795E-06  0.584E-03    4.37       4.9  T
   5    -21.7482591 -0.208304E-06  0.262E-03    4.37      11.0  T
   6    -21.7482591 -0.445215E-07  0.127E-03    4.37      22.7  T
     SCC iter.                  ...        0 min,  0.001 sec
     gradient                   ...        0 min,  0.001 sec
 * total energy  :   -21.5333613 Eh     change       -0.3120545E-04 Eh
   gradient norm :     0.0027282 Eh/α   predicted    -0.3536631E-04 (  13.33%)
   displ. norm   :     0.0221127 α      lambda       -0.1858971E-04
   maximum displ.:     0.0160410 α      in ANC's #5, #1, #6, ...

........................................................................
.............................. CYCLE   19 ..............................
........................................................................
   1    -21.7485766 -0.217486E+02  0.224E-02    4.39       0.0  T
   2    -21.7485769 -0.279937E-06  0.135E-02    4.38       2.1  T
   3    -21.7485769  0.319600E-07  0.387E-03    4.38       7.5  T
   4    -21.7485769 -0.622758E-07  0.138E-03    4.38      20.9  T
   5    -21.7485770 -0.114715E-07  0.657E-04    4.38      43.9  T
   6    -21.7485770 -0.238295E-08  0.310E-04    4.38      93.2  T
     SCC iter.                  ...        0 min,  0.001 sec
     gradient                   ...        0 min,  0.001 sec
 * total energy  :   -21.5333654 Eh     change       -0.4077852E-05 Eh
   gradient norm :     0.0033312 Eh/α   predicted    -0.9298612E-05 ( 128.03%)
   displ. norm   :     0.1080800 α      lambda       -0.1804907E-04
   maximum displ.:     0.0697842 α      in ANC's #1, #4, #3, ...

........................................................................
.............................. CYCLE   20 ..............................
........................................................................
   1    -21.7476653 -0.217477E+02  0.921E-02    4.36       0.0  T
   2    -21.7476663 -0.100160E-05  0.562E-02    4.36       1.0  T
   3    -21.7476655  0.763881E-06  0.119E-02    4.36       2.4  T
   4    -21.7476666 -0.113842E-05  0.360E-03    4.36       8.0  T
   5    -21.7476667 -0.820616E-07  0.167E-03    4.36      17.2  T
   6    -21.7476667 -0.582576E-08  0.726E-04    4.36      39.8  T
   7    -21.7476667 -0.656410E-09  0.132E-04    4.36     218.9  T
     SCC iter.                  ...        0 min,  0.002 sec
     gradient                   ...        0 min,  0.001 sec
 * total energy  :   -21.5333752 Eh     change       -0.9781923E-05 Eh
   gradient norm :     0.0020708 Eh/α   predicted    -0.9127946E-05 (  -6.69%)
   displ. norm   :     0.0942929 α      lambda       -0.2858349E-04
   maximum displ.:     0.0553227 α      in ANC's #4, #1, #3, ...
 * RMSD in coord.:     0.7265375 α      energy gain  -0.1713719E-01 Eh

generating ANC from model Hessian ...
Using Lindh-Hessian (1995)
 Shifting diagonal of input Hessian by   9.688598100853476E-003
 Lowest  eigenvalues of input Hessian
   -0.000000   -0.000000   -0.000000    0.000000    0.000000    0.000000
    0.010000    0.010125    0.010431    0.010478    0.010798    0.011060
    0.027652    0.032479    0.043505    0.043799    0.058030    0.063866
 Highest eigenvalues
    1.233343    1.353539    1.521101    1.726678    1.972855    2.427304
 

........................................................................
.............................. CYCLE   21 ..............................
........................................................................
   1    -21.7484809 -0.217485E+02  0.726E-02    4.35       0.0  T
   2    -21.7484816 -0.682899E-06  0.441E-02    4.35       1.0  T
   3    -21.7484814  0.231291E-06  0.808E-03    4.35       3.6  T
   4    -21.7484819 -0.452850E-06  0.268E-03    4.35      10.8  T
   5    -21.7484819 -0.354047E-07  0.144E-03    4.35      20.0  T
   6    -21.7484819 -0.761979E-08  0.534E-04    4.35      54.1  T
   7    -21.7484819 -0.434209E-09  0.167E-04    4.35     172.8  T
     SCC iter.                  ...        0 min,  0.002 sec
     gradient                   ...        0 min,  0.001 sec
 * total energy  :   -21.5333844 Eh     change       -0.9228619E-05 Eh
   gradient norm :     0.0039918 Eh/α   predicted     0.0000000E+00 (-100.00%)
   displ. norm   :     0.0346018 α      lambda       -0.3417566E-04
   maximum displ.:     0.0182921 α      in ANC's #6, #1, #3, ...

........................................................................
.............................. CYCLE   22 ..............................
........................................................................
   1    -21.7484946 -0.217485E+02  0.458E-02    4.37       0.0  T
   2    -21.7484951 -0.559729E-06  0.288E-02    4.37       1.0  T
   3    -21.7484948  0.288706E-06  0.867E-03    4.37       3.3  T
   4    -21.7484954 -0.547866E-06  0.274E-03    4.37      10.5  T
   5    -21.7484954 -0.407604E-07  0.138E-03    4.37      20.9  T
   6    -21.7484954 -0.325900E-08  0.429E-04    4.37      67.4  T
   7    -21.7484954 -0.232497E-09  0.844E-05    4.37     341.9  T
     SCC iter.                  ...        0 min,  0.002 sec
     gradient                   ...        0 min,  0.001 sec
 * total energy  :   -21.5334078 Eh     change       -0.2339907E-04 Eh
   gradient norm :     0.0016805 Eh/α   predicted    -0.1710740E-04 ( -26.89%)
   displ. norm   :     0.1483091 α      lambda       -0.6109595E-04
   maximum displ.:     0.0839760 α      in ANC's #6, #3, #1, ...

........................................................................
.............................. CYCLE   23 ..............................
........................................................................
   1    -21.7479055 -0.217479E+02  0.147E-01    4.43       0.0  T
   2    -21.7479110 -0.546091E-05  0.911E-02    4.43       1.0  T
   3    -21.7479095  0.142585E-05  0.224E-02    4.43       1.3  T
   4    -21.7479127 -0.320077E-05  0.832E-03    4.43       3.5  T
   5    -21.7479131 -0.395264E-06  0.415E-03    4.43       7.0  T
   6    -21.7479132 -0.393983E-07  0.167E-03    4.43      17.2  T
   7    -21.7479132 -0.446547E-08  0.341E-04    4.43      84.6  T
   8    -21.7479132 -0.260414E-09  0.110E-04    4.43     261.7  T
     SCC iter.                  ...        0 min,  0.002 sec
     gradient                   ...        0 min,  0.001 sec
 * total energy  :   -21.5333816 Eh     change        0.2620836E-04 Eh
   gradient norm :     0.0098625 Eh/α   predicted    -0.3084642E-04 (-217.70%)
   displ. norm   :     0.0297682 α      lambda       -0.1013694E-03
   maximum displ.:     0.0154923 α      in ANC's #7, #3, #6, ...

........................................................................
.............................. CYCLE   24 ..............................
........................................................................
   1    -21.7478727 -0.217479E+02  0.470E-02    4.42       0.0  T
   2    -21.7478731 -0.388590E-06  0.295E-02    4.42       1.0  T
   3    -21.7478732 -0.137164E-06  0.441E-03    4.42       6.5  T
   4    -21.7478733 -0.113727E-06  0.198E-03    4.42      14.5  T
   5    -21.7478733 -0.206122E-08  0.127E-03    4.42      22.6  T
     SCC iter.                  ...        0 min,  0.001 sec
     gradient                   ...        0 min,  0.001 sec
 * total energy  :   -21.5334486 Eh     change       -0.6697307E-04 Eh
   gradient norm :     0.0071956 Eh/α   predicted    -0.5073094E-04 ( -24.25%)
   displ. norm   :     0.0305892 α      lambda       -0.7501853E-04
   maximum displ.:     0.0168085 α      in ANC's #3, #1, #10, ...

........................................................................
.............................. CYCLE   25 ..............................
........................................................................
   1    -21.7482534 -0.217483E+02  0.414E-02    4.40       0.0  T
   2    -21.7482543 -0.943192E-06  0.252E-02    4.40       1.1  T
   3    -21.7482543  0.322018E-07  0.871E-03    4.40       3.3  T
   4    -21.7482545 -0.270718E-06  0.203E-03    4.40      14.2  T
   5    -21.7482546 -0.312680E-08  0.135E-03    4.40      21.4  T
     SCC iter.                  ...        0 min,  0.001 sec
     gradient                   ...        0 min,  0.002 sec
 * total energy  :   -21.5334828 Eh     change       -0.3425683E-04 Eh
   gradient norm :     0.0014332 Eh/α   predicted    -0.3754384E-04 (   9.60%)
   displ. norm   :     0.1371078 α      lambda       -0.4241967E-04
   maximum displ.:     0.0751824 α      in ANC's #3, #1, #6, ...

........................................................................
.............................. CYCLE   26 ..............................
........................................................................
   1    -21.7478507 -0.217479E+02  0.129E-01    4.41       0.0  T
   2    -21.7478525 -0.174618E-05  0.791E-02    4.41       1.0  T
   3    -21.7478519  0.559900E-06  0.148E-02    4.41       1.9  T
   4    -21.7478538 -0.187525E-05  0.526E-03    4.41       5.5  T
   5    -21.7478538 -0.186293E-07  0.219E-03    4.41      13.2  T
   6    -21.7478538 -0.151811E-07  0.275E-04    4.41     105.1  T
   7    -21.7478538 -0.227537E-09  0.849E-05    4.41     340.0  T
     SCC iter.                  ...        0 min,  0.092 sec
     gradient                   ...        0 min,  0.001 sec
 * total energy  :   -21.5335302 Eh     change       -0.4737430E-04 Eh
   gradient norm :     0.0031179 Eh/α   predicted    -0.2138838E-04 ( -54.85%)
   displ. norm   :     0.1998146 α      lambda       -0.7885530E-04
   maximum displ.:     0.1121792 α      in ANC's #3, #1, #6, ...

........................................................................
.............................. CYCLE   27 ..............................
........................................................................
   1    -21.7469008 -0.217469E+02  0.182E-01    4.44       0.0  T
   2    -21.7469041 -0.327321E-05  0.112E-01    4.44       1.0  T
   3    -21.7469039  0.213474E-06  0.179E-02    4.44       1.6  T
   4    -21.7469064 -0.252911E-05  0.728E-03    4.44       4.0  T
   5    -21.7469065 -0.613037E-07  0.304E-03    4.44       9.5  T
   6    -21.7469065 -0.223994E-07  0.629E-04    4.44      45.9  T
   7    -21.7469065 -0.146110E-08  0.177E-04    4.44     162.9  T
     SCC iter.                  ...        0 min,  0.002 sec
     gradient                   ...        0 min,  0.001 sec
 * total energy  :   -21.5335818 Eh     change       -0.5159694E-04 Eh
   gradient norm :     0.0080350 Eh/α   predicted    -0.4100426E-04 ( -20.53%)
   displ. norm   :     0.2111478 α      lambda       -0.1053202E-03
   maximum displ.:     0.1292557 α      in ANC's #3, #1, #6, ...

........................................................................
.............................. CYCLE   28 ..............................
........................................................................
   1    -21.7467496 -0.217467E+02  0.167E-01    4.47       0.0  T
   2    -21.7467510 -0.136859E-05  0.101E-01    4.47       1.0  T
   3    -21.7467504  0.627197E-06  0.121E-02    4.47       2.4  T
   4    -21.7467515 -0.118581E-05  0.454E-03    4.47       6.4  T
   5    -21.7467516 -0.850275E-07  0.246E-03    4.47      11.8  T
   6    -21.7467516 -0.113915E-07  0.868E-04    4.47      33.3  T
     SCC iter.                  ...        0 min,  0.001 sec
     gradient                   ...        0 min,  0.091 sec
 * total energy  :   -21.5336624 Eh     change       -0.8057464E-04 Eh
   gradient norm :     0.0075688 Eh/α   predicted    -0.5500744E-04 ( -31.73%)
   displ. norm   :     0.2674995 α      lambda       -0.1639971E-03
   maximum displ.:     0.1729488 α      in ANC's #3, #1, #6, ...

........................................................................
.............................. CYCLE   29 ..............................
........................................................................
   1    -21.7472167 -0.217472E+02  0.216E-01    4.49       0.0  T
   2    -21.7472190 -0.231425E-05  0.130E-01    4.49       1.0  T
   3    -21.7472191 -0.546079E-07  0.103E-02    4.49       2.8  T
   4    -21.7472197 -0.617841E-06  0.482E-03    4.50       6.0  T
   5    -21.7472198 -0.847760E-07  0.269E-03    4.50      10.7  T
   6    -21.7472198 -0.313475E-07  0.121E-03    4.50      23.8  T
     SCC iter.                  ...        0 min,  0.001 sec
     gradient                   ...        0 min,  0.001 sec
 * total energy  :   -21.5337804 Eh     change       -0.1179550E-03 Eh
   gradient norm :     0.0037548 Eh/α   predicted    -0.8786453E-04 ( -25.51%)
   displ. norm   :     0.5228415 α      lambda       -0.2117973E-03
   maximum displ.:     0.3287937 α      in ANC's #3, #1, #6, ...

........................................................................
.............................. CYCLE   30 ..............................
........................................................................
   1    -21.7432637 -0.217433E+02  0.439E-01    4.54       0.0  T
   2    -21.7432771 -0.133921E-04  0.266E-01    4.55       1.0  T
   3    -21.7432703  0.681068E-05  0.413E-02    4.56       1.0  T
   4    -21.7432842 -0.139780E-04  0.151E-02    4.57       1.9  T
   5    -21.7432849 -0.705016E-06  0.884E-03    4.57       3.3  T
   6    -21.7432851 -0.141363E-06  0.196E-03    4.57      14.7  T
   7    -21.7432851 -0.120480E-07  0.559E-04    4.57      51.6  T
   8    -21.7432851 -0.110162E-08  0.237E-04    4.57     121.7  T
     SCC iter.                  ...        0 min,  0.002 sec
     gradient                   ...        0 min,  0.001 sec
 * total energy  :   -21.5338101 Eh     change       -0.2976269E-04 Eh
   gradient norm :     0.0147843 Eh/α   predicted    -0.1348565E-03 ( 353.11%)
   displ. norm   :     0.0880927 α      lambda       -0.3819744E-03
   maximum displ.:     0.0667385 α      in ANC's #6, #2, #4, ...

........................................................................
.............................. CYCLE   31 ..............................
........................................................................
   1    -21.7474851 -0.217475E+02  0.767E-02    4.59       0.0  T
   2    -21.7474914 -0.628436E-05  0.463E-02    4.58       1.0  T
   3    -21.7474906  0.793724E-06  0.243E-02    4.59       1.2  T
   4    -21.7474925 -0.184585E-05  0.935E-03    4.59       3.1  T
   5    -21.7474931 -0.612461E-06  0.346E-03    4.59       8.3  T
   6    -21.7474931 -0.326419E-07  0.178E-03    4.59      16.2  T
   7    -21.7474931 -0.408014E-08  0.358E-04    4.59      80.7  T
     SCC iter.                  ...        0 min,  0.002 sec
     gradient                   ...        0 min,  0.001 sec
 * total energy  :   -21.5340122 Eh     change       -0.2021263E-03 Eh
   gradient norm :     0.0041759 Eh/α   predicted    -0.1924678E-03 (  -4.78%)
   displ. norm   :     0.2920009 α      lambda       -0.1610592E-03
   maximum displ.:     0.1979017 α      in ANC's #1, #3, #6, ...

........................................................................
.............................. CYCLE   32 ..............................
........................................................................
   1    -21.7469948 -0.217470E+02  0.249E-01    4.62       0.0  T
   2    -21.7469977 -0.291379E-05  0.151E-01    4.63       1.0  T
   3    -21.7469993 -0.158307E-05  0.101E-02    4.64       2.9  T
   4    -21.7469995 -0.180767E-06  0.673E-03    4.64       4.3  T
   5    -21.7469996 -0.132705E-06  0.292E-03    4.64       9.9  T
   6    -21.7469997 -0.324022E-07  0.861E-04    4.64      33.5  T
     SCC iter.                  ...        0 min,  0.002 sec
     gradient                   ...        0 min,  0.001 sec
 * total energy  :   -21.5341628 Eh     change       -0.1505232E-03 Eh
   gradient norm :     0.0048217 Eh/α   predicted    -0.8739424E-04 ( -41.94%)
   displ. norm   :     0.7215876 α      lambda       -0.4341554E-03
   maximum displ.:     0.5171568 α      in ANC's #1, #3, #16, ...

........................................................................
.............................. CYCLE   33 ..............................
........................................................................
   1    -21.7410041 -0.217410E+02  0.619E-01    4.70       0.0  T
   2    -21.7410347 -0.306046E-04  0.377E-01    4.73       1.0  T
   3    -21.7410460 -0.112926E-04  0.360E-02    4.75       1.0  T
   4    -21.7410517 -0.569726E-05  0.189E-02    4.76       1.5  T
   5    -21.7410516  0.134962E-06  0.107E-02    4.76       2.7  T
   6    -21.7410521 -0.546404E-06  0.366E-03    4.76       7.9  T
   7    -21.7410522 -0.841526E-07  0.840E-04    4.76      34.4  T
   8    -21.7410522 -0.184318E-08  0.474E-04    4.76      61.0  T
     SCC iter.                  ...        0 min,  0.093 sec
     gradient                   ...        0 min,  0.001 sec
 * total energy  :   -21.5342514 Eh     change       -0.8862905E-04 Eh
   gradient norm :     0.0198200 Eh/α   predicted    -0.3301125E-03 ( 272.47%)
   displ. norm   :     0.2056523 α      lambda       -0.5851907E-03
   maximum displ.:     0.1300983 α      in ANC's #3, #6, #1, ...

........................................................................
.............................. CYCLE   34 ..............................
........................................................................
   1    -21.7478797 -0.217479E+02  0.169E-01    4.79       0.0  T
   2    -21.7478922 -0.125338E-04  0.102E-01    4.77       1.0  T
   3    -21.7478899  0.231589E-05  0.328E-02    4.76       1.0  T
   4    -21.7478949 -0.499302E-05  0.105E-02    4.75       2.7  T
   5    -21.7478955 -0.577162E-06  0.575E-03    4.75       5.0  T
   6    -21.7478956 -0.112994E-06  0.279E-03    4.75      10.3  T
   7    -21.7478956 -0.145942E-07  0.535E-04    4.75      53.9  T
     SCC iter.                  ...        0 min,  0.002 sec
     gradient                   ...        0 min,  0.001 sec
 * total energy  :   -21.5344899 Eh     change       -0.2385194E-03 Eh
   gradient norm :     0.0056783 Eh/α   predicted    -0.3049711E-03 (  27.86%)
   displ. norm   :     0.2540067 α      lambda       -0.2070832E-03
   maximum displ.:     0.1861971 α      in ANC's #1, #3, #4, ...

........................................................................
.............................. CYCLE   35 ..............................
........................................................................
   1    -21.7459324 -0.217459E+02  0.211E-01    4.72       0.0  T
   2    -21.7459367 -0.426889E-05  0.128E-01    4.74       1.0  T
   3    -21.7459350  0.166283E-05  0.196E-02    4.75       1.5  T
   4    -21.7459379 -0.290640E-05  0.687E-03    4.75       4.2  T
   5    -21.7459381 -0.221178E-06  0.373E-03    4.75       7.7  T
   6    -21.7459382 -0.510448E-07  0.157E-03    4.75      18.4  T
   7    -21.7459382 -0.348524E-08  0.308E-04    4.75      93.6  T
     SCC iter.                  ...        0 min,  0.092 sec
     gradient                   ...        0 min,  0.001 sec
 * total energy  :   -21.5346097 Eh     change       -0.1197897E-03 Eh
   gradient norm :     0.0071935 Eh/α   predicted    -0.1102199E-03 (  -7.99%)
   displ. norm   :     0.4300386 α      lambda       -0.2624728E-03
   maximum displ.:     0.3379078 α      in ANC's #1, #3, #16, ...

........................................................................
.............................. CYCLE   36 ..............................
........................................................................
   1    -21.7435925 -0.217436E+02  0.346E-01    4.78       0.0  T
   2    -21.7436036 -0.110673E-04  0.211E-01    4.79       1.0  T
   3    -21.7436076 -0.406523E-05  0.207E-02    4.80       1.4  T
   4    -21.7436092 -0.160389E-05  0.116E-02    4.80       2.5  T
   5    -21.7436093 -0.771768E-07  0.707E-03    4.80       4.1  T
   6    -21.7436095 -0.193183E-06  0.223E-03    4.80      13.0  T
   7    -21.7436095 -0.265935E-07  0.336E-04    4.80      85.9  T
     SCC iter.                  ...        0 min,  0.002 sec
     gradient                   ...        0 min,  0.001 sec
 * total energy  :   -21.5347536 Eh     change       -0.1439218E-03 Eh
   gradient norm :     0.0098141 Eh/α   predicted    -0.1555150E-03 (   8.06%)
   displ. norm   :     0.1153639 α      lambda       -0.1663955E-03
   maximum displ.:     0.0900046 α      in ANC's #1, #6, #3, ...

........................................................................
.............................. CYCLE   37 ..............................
........................................................................
   1    -21.7463347 -0.217463E+02  0.755E-02    4.84       0.0  T
   2    -21.7463382 -0.355700E-05  0.449E-02    4.84       1.0  T
   3    -21.7463380  0.262220E-06  0.164E-02    4.84       1.8  T
   4    -21.7463388 -0.784168E-06  0.249E-03    4.84      11.6  T
   5    -21.7463388 -0.138109E-07  0.133E-03    4.84      21.7  T
     SCC iter.                  ...        0 min,  0.001 sec
     gradient                   ...        0 min,  0.091 sec
 * total energy  :   -21.5348651 Eh     change       -0.1114291E-03 Eh
   gradient norm :     0.0047999 Eh/α   predicted    -0.8430409E-04 ( -24.34%)
   displ. norm   :     0.3260333 α      lambda       -0.1641753E-03
   maximum displ.:     0.2399900 α      in ANC's #1, #3, #6, ...

........................................................................
.............................. CYCLE   38 ..............................
........................................................................
   1    -21.7457954 -0.217458E+02  0.239E-01    4.85       0.0  T
   2    -21.7457993 -0.393304E-05  0.145E-01    4.85       1.0  T
   3    -21.7458006 -0.121720E-05  0.145E-02    4.85       2.0  T
   4    -21.7458016 -0.996892E-06  0.851E-03    4.85       3.4  T
   5    -21.7458018 -0.241578E-06  0.343E-03    4.85       8.4  T
   6    -21.7458018 -0.195505E-07  0.103E-03    4.85      28.0  T
   7    -21.7458018 -0.451614E-08  0.401E-04    4.85      71.9  T
     SCC iter.                  ...        0 min,  0.002 sec
     gradient                   ...        0 min,  0.001 sec
 * total energy  :   -21.5349493 Eh     change       -0.8421425E-04 Eh
   gradient norm :     0.0061683 Eh/α   predicted    -0.9081073E-04 (   7.83%)
   displ. norm   :     0.2308459 α      lambda       -0.1371026E-03
   maximum displ.:     0.1835341 α      in ANC's #1, #3, #21, ...

........................................................................
.............................. CYCLE   39 ..............................
........................................................................
   1    -21.7471980 -0.217472E+02  0.178E-01    4.85       0.0  T
   2    -21.7471999 -0.193957E-05  0.109E-01    4.85       1.0  T
   3    -21.7472007 -0.805431E-06  0.943E-03    4.86       3.1  T
   4    -21.7472011 -0.355644E-06  0.554E-03    4.86       5.2  T
   5    -21.7472011 -0.550569E-07  0.267E-03    4.86      10.8  T
   6    -21.7472012 -0.295350E-07  0.759E-04    4.86      38.0  T
     SCC iter.                  ...        0 min,  0.001 sec
     gradient                   ...        0 min,  0.001 sec
 * total energy  :   -21.5350219 Eh     change       -0.7265351E-04 Eh
   gradient norm :     0.0050515 Eh/α   predicted    -0.7220472E-04 (  -0.62%)
   displ. norm   :     0.2420582 α      lambda       -0.1129655E-03
   maximum displ.:     0.1626279 α      in ANC's #1, #3, #21, ...

........................................................................
.............................. CYCLE   40 ..............................
........................................................................
   1    -21.7465847 -0.217466E+02  0.191E-01    4.90       0.0  T
   2    -21.7465872 -0.249878E-05  0.115E-01    4.90       1.0  T
   3    -21.7465877 -0.566830E-06  0.101E-02    4.91       2.9  T
   4    -21.7465882 -0.488869E-06  0.486E-03    4.91       5.9  T
   5    -21.7465883 -0.168500E-07  0.233E-03    4.91      12.4  T
   6    -21.7465883 -0.566398E-08  0.136E-03    4.91      21.3  T
     SCC iter.                  ...        0 min,  0.002 sec
     gradient                   ...        0 min,  0.001 sec
 * total energy  :   -21.5350726 Eh     change       -0.5069473E-04 Eh
   gradient norm :     0.0060784 Eh/α   predicted    -0.5979168E-04 (  17.94%)
   displ. norm   :     0.1189403 α      lambda       -0.1454177E-03
   maximum displ.:     0.0610821 α      in ANC's #3, #4, #21, ...

........................................................................
.............................. CYCLE   41 ..............................
........................................................................
   1    -21.7494343 -0.217494E+02  0.104E-01    4.96       0.0  T
   2    -21.7494363 -0.206195E-05  0.640E-02    4.95       1.0  T
   3    -21.7494354  0.967593E-06  0.155E-02    4.94       1.9  T
   4    -21.7494373 -0.191646E-05  0.524E-03    4.94       5.5  T
   5    -21.7494374 -0.913367E-07  0.250E-03    4.94      11.6  T
   6    -21.7494374 -0.568893E-08  0.981E-04    4.95      29.4  T
     SCC iter.                  ...        0 min,  0.001 sec
     gradient                   ...        0 min,  0.001 sec
 * total energy  :   -21.5351463 Eh     change       -0.7366451E-04 Eh
   gradient norm :     0.0098368 Eh/α   predicted    -0.7373872E-04 (   0.10%)
   displ. norm   :     0.4610535 α      lambda       -0.2641611E-03
   maximum displ.:     0.2873239 α      in ANC's #3, #1, #21, ...

........................................................................
.............................. CYCLE   42 ..............................
........................................................................
   1    -21.7436949 -0.217437E+02  0.392E-01    4.88       0.0  T
   2    -21.7437178 -0.229522E-04  0.240E-01    4.90       1.0  T
   3    -21.7437168  0.100238E-05  0.402E-02    4.90       1.0  T
   4    -21.7437273 -0.104614E-04  0.139E-02    4.91       2.1  T
   5    -21.7437272  0.840873E-07  0.912E-03    4.91       3.2  T
   6    -21.7437276 -0.354132E-06  0.325E-03    4.91       8.9  T
   7    -21.7437276 -0.399318E-07  0.629E-04    4.91      45.9  T
   8    -21.7437276 -0.690580E-09  0.237E-04    4.91     121.7  T
     SCC iter.                  ...        0 min,  0.002 sec
     gradient                   ...        0 min,  0.001 sec
 * total energy  :   -21.5351212 Eh     change        0.2503481E-04 Eh
   gradient norm :     0.0151561 Eh/α   predicted    -0.1601527E-03 (-739.72%)
   displ. norm   :     0.1930053 α      lambda       -0.3775262E-03
   maximum displ.:     0.1621124 α      in ANC's #1, #3, #16, ...
 * RMSD in coord.:     1.1561554 α      energy gain  -0.1746044E-02 Eh

generating ANC from model Hessian ...
Using Lindh-Hessian (1995)
 Shifting diagonal of input Hessian by   1.161365478809270E-002
 Lowest  eigenvalues of input Hessian
    0.010000   -0.000000   -0.000000   -0.000000    0.000000    0.000000
    0.000000    0.011873    0.012047    0.012332    0.012557    0.013156
    0.028467    0.034562    0.042228    0.044757    0.059159    0.075413
 Highest eigenvalues
    1.214042    1.355258    1.510931    1.739765    1.962320    2.433259
 

........................................................................
.............................. CYCLE   43 ..............................
........................................................................
   1    -21.7477090 -0.217477E+02  0.168E-01    4.95       0.0  T
   2    -21.7477369 -0.279282E-04  0.102E-01    4.95       1.0  T
   3    -21.7477373 -0.363358E-06  0.405E-02    4.96       1.0  T
   4    -21.7477406 -0.333917E-05  0.792E-03    4.95       3.6  T
   5    -21.7477408 -0.171560E-06  0.409E-03    4.95       7.1  T
   6    -21.7477408 -0.910425E-08  0.801E-04    4.95      36.1  T
   7    -21.7477408 -0.175037E-08  0.513E-04    4.95      56.3  T
     SCC iter.                  ...        0 min,  0.002 sec
     gradient                   ...        0 min,  0.001 sec
 * total energy  :   -21.5352584 Eh     change       -0.1371761E-03 Eh
   gradient norm :     0.0078248 Eh/α   predicted     0.0000000E+00 (-100.00%)
   displ. norm   :     0.0677217 α      lambda       -0.1755625E-03
   maximum displ.:     0.0431133 α      in ANC's #6, #11, #5, ...

........................................................................
.............................. CYCLE   44 ..............................
........................................................................
   1    -21.7477098 -0.217477E+02  0.924E-02    4.96       0.0  T
   2    -21.7477118 -0.193580E-05  0.576E-02    4.96       1.0  T
   3    -21.7477122 -0.396327E-06  0.705E-03    4.96       4.1  T
   4    -21.7477123 -0.113318E-06  0.465E-03    4.96       6.2  T
   5    -21.7477124 -0.148864E-06  0.192E-03    4.96      15.0  T
   6    -21.7477124 -0.326343E-08  0.418E-04    4.96      69.1  T
     SCC iter.                  ...        0 min,  0.001 sec
     gradient                   ...        0 min,  0.001 sec
 * total energy  :   -21.5353579 Eh     change       -0.9944657E-04 Eh
   gradient norm :     0.0036932 Eh/α   predicted    -0.8818600E-04 ( -11.32%)
   displ. norm   :     0.1861969 α      lambda       -0.3095738E-03
   maximum displ.:     0.1172564 α      in ANC's #6, #7, #5, ...

........................................................................
.............................. CYCLE   45 ..............................
........................................................................
   1    -21.7468466 -0.217468E+02  0.194E-01    4.97       0.0  T
   2    -21.7468516 -0.493010E-05  0.117E-01    4.97       1.0  T
   3    -21.7468490  0.251762E-05  0.203E-02    4.96       1.4  T
   4    -21.7468520 -0.293157E-05  0.879E-03    4.97       3.3  T
   5    -21.7468526 -0.618320E-06  0.258E-03    4.97      11.2  T
   6    -21.7468526 -0.236340E-08  0.103E-03    4.97      28.1  T
   7    -21.7468526 -0.323297E-08  0.244E-04    4.97     118.1  T
   8    -21.7468526 -0.569180E-10  0.424E-05    4.97     681.5  T
     SCC iter.                  ...        0 min,  0.002 sec
     gradient                   ...        0 min,  0.001 sec
 * total energy  :   -21.5354290 Eh     change       -0.7117370E-04 Eh
   gradient norm :     0.0114234 Eh/α   predicted    -0.1601528E-03 ( 125.02%)
   displ. norm   :     0.0521063 α      lambda       -0.1806942E-03
   maximum displ.:     0.0271107 α      in ANC's #6, #5, #10, ...

........................................................................
.............................. CYCLE   46 ..............................
........................................................................
   1    -21.7468481 -0.217468E+02  0.780E-02    4.95       0.0  T
   2    -21.7468495 -0.141242E-05  0.488E-02    4.95       1.0  T
   3    -21.7468469  0.256839E-05  0.203E-02    4.95       1.4  T
   4    -21.7468504 -0.353563E-05  0.399E-03    4.95       7.2  T
   5    -21.7468505 -0.356653E-07  0.190E-03    4.95      15.2  T
   6    -21.7468505 -0.193826E-08  0.511E-04    4.95      56.5  T
     SCC iter.                  ...        0 min,  0.092 sec
     gradient                   ...        0 min,  0.001 sec
 * total energy  :   -21.5355383 Eh     change       -0.1092344E-03 Eh
   gradient norm :     0.0059429 Eh/α   predicted    -0.9059295E-04 ( -17.07%)
   displ. norm   :     0.1136999 α      lambda       -0.1439260E-03
   maximum displ.:     0.0654889 α      in ANC's #6, #5, #1, ...

........................................................................
.............................. CYCLE   47 ..............................
........................................................................
   1    -21.7467019 -0.217467E+02  0.110E-01    4.93       0.0  T
   2    -21.7467047 -0.277861E-05  0.682E-02    4.94       1.0  T
   3    -21.7467044  0.314008E-06  0.149E-02    4.95       1.9  T
   4    -21.7467058 -0.141866E-05  0.665E-03    4.95       4.3  T
   5    -21.7467060 -0.230749E-06  0.282E-03    4.94      10.2  T
   6    -21.7467060 -0.471537E-08  0.744E-04    4.94      38.8  T
     SCC iter.                  ...        0 min,  0.001 sec
     gradient                   ...        0 min,  0.001 sec
 * total energy  :   -21.5356279 Eh     change       -0.8959740E-04 Eh
   gradient norm :     0.0038146 Eh/α   predicted    -0.7289202E-04 ( -18.64%)
   displ. norm   :     0.2102250 α      lambda       -0.1426539E-03
   maximum displ.:     0.1291522 α      in ANC's #6, #5, #4, ...

........................................................................
.............................. CYCLE   48 ..............................
........................................................................
   1    -21.7456819 -0.217457E+02  0.196E-01    4.93       0.0  T
   2    -21.7456859 -0.403314E-05  0.121E-01    4.94       1.0  T
   3    -21.7456886 -0.266828E-05  0.100E-02    4.94       2.9  T
   4    -21.7456885  0.911164E-07  0.689E-03    4.94       4.2  T
   5    -21.7456887 -0.238341E-06  0.204E-03    4.94      14.1  T
   6    -21.7456888 -0.129283E-07  0.483E-04    4.94      59.8  T
   7    -21.7456888 -0.448555E-09  0.243E-04    4.94     118.9  T
     SCC iter.                  ...        0 min,  0.002 sec
     gradient                   ...        0 min,  0.091 sec
 * total energy  :   -21.5357272 Eh     change       -0.9935100E-04 Eh
   gradient norm :     0.0068496 Eh/α   predicted    -0.7447906E-04 ( -25.03%)
   displ. norm   :     0.2113658 α      lambda       -0.1309824E-03
   maximum displ.:     0.1224148 α      in ANC's #6, #5, #4, ...

........................................................................
.............................. CYCLE   49 ..............................
........................................................................
   1    -21.7456713 -0.217457E+02  0.186E-01    4.95       0.0  T
   2    -21.7456746 -0.323326E-05  0.115E-01    4.95       1.0  T
   3    -21.7456737  0.868606E-06  0.201E-02    4.95       1.4  T
   4    -21.7456770 -0.329702E-05  0.689E-03    4.95       4.2  T
   5    -21.7456770 -0.313229E-07  0.214E-03    4.95      13.5  T
   6    -21.7456770 -0.167093E-07  0.473E-04    4.95      61.0  T
     SCC iter.                  ...        0 min,  0.002 sec
     gradient                   ...        0 min,  0.001 sec
 * total energy  :   -21.5358189 Eh     change       -0.9165481E-04 Eh
   gradient norm :     0.0064125 Eh/α   predicted    -0.6841551E-04 ( -25.36%)
   displ. norm   :     0.1525479 α      lambda       -0.1327430E-03
   maximum displ.:     0.0804764 α      in ANC's #6, #5, #4, ...

........................................................................
.............................. CYCLE   50 ..............................
........................................................................
   1    -21.7477311 -0.217477E+02  0.131E-01    4.98       0.0  T
   2    -21.7477331 -0.202078E-05  0.805E-02    4.98       1.0  T
   3    -21.7477310  0.206634E-05  0.203E-02    4.98       1.4  T
   4    -21.7477345 -0.345597E-05  0.556E-03    4.98       5.2  T
   5    -21.7477345 -0.626737E-07  0.314E-03    4.98       9.2  T
   6    -21.7477346 -0.155961E-07  0.413E-04    4.98      69.8  T
   7    -21.7477346 -0.383057E-09  0.131E-04    4.98     220.7  T
     SCC iter.                  ...        0 min,  0.002 sec
     gradient                   ...        0 min,  0.001 sec
 * total energy  :   -21.5359048 Eh     change       -0.8588424E-04 Eh
   gradient norm :     0.0035361 Eh/α   predicted    -0.6791668E-04 ( -20.92%)
   displ. norm   :     0.3423906 α      lambda       -0.1430640E-03
   maximum displ.:     0.2008225 α      in ANC's #6, #5, #4, ...

........................................................................
.............................. CYCLE   51 ..............................
........................................................................
   1    -21.7451056 -0.217451E+02  0.322E-01    4.96       0.0  T
   2    -21.7451215 -0.159830E-04  0.201E-01    4.97       1.0  T
   3    -21.7450883  0.332116E-04  0.706E-02    4.97       1.0  T
   4    -21.7451335 -0.451467E-04  0.141E-02    4.97       2.0  T
   5    -21.7451338 -0.337212E-06  0.749E-03    4.97       3.9  T
   6    -21.7451339 -0.465282E-07  0.213E-03    4.97      13.6  T
   7    -21.7451339 -0.159965E-07  0.413E-04    4.97      69.9  T
   8    -21.7451339 -0.268756E-09  0.187E-04    4.97     154.4  T
     SCC iter.                  ...        0 min,  0.001 sec
     gradient                   ...        0 min,  0.001 sec
 * total energy  :   -21.5359549 Eh     change       -0.5013923E-04 Eh
   gradient norm :     0.0077028 Eh/α   predicted    -0.7991817E-04 (  59.39%)
   displ. norm   :     0.0501858 α      lambda       -0.1445113E-03
   maximum displ.:     0.0290574 α      in ANC's #2, #7, #1, ...

........................................................................
.............................. CYCLE   52 ..............................
........................................................................
   1    -21.7476480 -0.217476E+02  0.632E-02    4.98       0.0  T
   2    -21.7476495 -0.147740E-05  0.382E-02    4.98       1.0  T
   3    -21.7476471  0.244157E-05  0.205E-02    4.99       1.4  T
   4    -21.7476500 -0.295015E-05  0.360E-03    4.98       8.0  T
   5    -21.7476501 -0.985644E-07  0.107E-03    4.98      27.0  T
   6    -21.7476501 -0.352176E-08  0.610E-04    4.98      47.3  T
     SCC iter.                  ...        0 min,  0.001 sec
     gradient                   ...        0 min,  0.001 sec
 * total energy  :   -21.5360417 Eh     change       -0.8678360E-04 Eh
   gradient norm :     0.0030602 Eh/α   predicted    -0.7243706E-04 ( -16.53%)
   displ. norm   :     0.2384556 α      lambda       -0.1082275E-03
   maximum displ.:     0.1189254 α      in ANC's #6, #4, #2, ...

........................................................................
.............................. CYCLE   53 ..............................
........................................................................
   1    -21.7471518 -0.217472E+02  0.231E-01    4.97       0.0  T
   2    -21.7471597 -0.787057E-05  0.145E-01    4.98       1.0  T
   3    -21.7471275  0.321654E-04  0.678E-02    4.98       1.0  T
   4    -21.7471685 -0.410321E-04  0.106E-02    4.98       2.7  T
   5    -21.7471686 -0.279655E-07  0.273E-03    4.98      10.6  T
   6    -21.7471686 -0.312811E-07  0.573E-04    4.98      50.4  T
   7    -21.7471686 -0.103195E-08  0.190E-04    4.98     151.9  T
     SCC iter.                  ...        0 min,  0.001 sec
     gradient                   ...        0 min,  0.001 sec
 * total energy  :   -21.5361246 Eh     change       -0.8287806E-04 Eh
   gradient norm :     0.0027439 Eh/α   predicted    -0.5718685E-04 ( -31.00%)
   displ. norm   :     0.3853313 α      lambda       -0.1282429E-03
   maximum displ.:     0.1927196 α      in ANC's #6, #2, #4, ...

........................................................................
.............................. CYCLE   54 ..............................
........................................................................
   1    -21.7439960 -0.217440E+02  0.364E-01    4.97       0.0  T
   2    -21.7440156 -0.195765E-04  0.228E-01    4.98       1.0  T
   3    -21.7439100  0.105602E-03  0.123E-01    4.98       1.0  T
   4    -21.7440409 -0.130904E-03  0.165E-02    4.98       1.7  T
   5    -21.7440410 -0.119911E-06  0.775E-03    4.98       3.7  T
   6    -21.7440411 -0.824471E-07  0.163E-03    4.98      17.7  T
   7    -21.7440411 -0.112138E-07  0.242E-04    4.98     119.4  T
   8    -21.7440411 -0.320917E-10  0.120E-04    4.98     241.3  T
     SCC iter.                  ...        0 min,  0.001 sec
     gradient                   ...        0 min,  0.001 sec
 * total energy  :   -21.5361359 Eh     change       -0.1134461E-04 Eh
   gradient norm :     0.0093198 Eh/α   predicted    -0.7364973E-04 ( 549.20%)
   displ. norm   :     0.1452975 α      lambda       -0.1716757E-03
   maximum displ.:     0.0863558 α      in ANC's #6, #5, #4, ...

........................................................................
.............................. CYCLE   55 ..............................
........................................................................
   1    -21.7480215 -0.217480E+02  0.143E-01    5.02       0.0  T
   2    -21.7480288 -0.728939E-05  0.897E-02    5.01       1.0  T
   3    -21.7480220  0.673857E-05  0.359E-02    5.02       1.0  T
   4    -21.7480311 -0.907736E-05  0.101E-02    5.01       2.9  T
   5    -21.7480318 -0.646428E-06  0.412E-03    5.01       7.0  T
   6    -21.7480318 -0.231662E-07  0.200E-03    5.01      14.4  T
   7    -21.7480318 -0.473402E-08  0.249E-04    5.01     116.2  T
     SCC iter.                  ...        0 min,  0.001 sec
     gradient                   ...        0 min,  0.001 sec
 * total energy  :   -21.5361898 Eh     change       -0.5386045E-04 Eh
   gradient norm :     0.0035596 Eh/α   predicted    -0.8764942E-04 (  62.73%)
   displ. norm   :     0.0523559 α      lambda       -0.3575247E-04
   maximum displ.:     0.0335796 α      in ANC's #6, #5, #1, ...

........................................................................
.............................. CYCLE   56 ..............................
........................................................................
   1    -21.7474613 -0.217475E+02  0.540E-02    5.01       0.0  T
   2    -21.7474617 -0.347635E-06  0.330E-02    5.01       1.0  T
   3    -21.7474618 -0.965696E-07  0.307E-03    5.01       9.4  T
   4    -21.7474618 -0.275056E-07  0.184E-03    5.01      15.7  T
   5    -21.7474618 -0.115023E-07  0.982E-04    5.01      29.4  T
   6    -21.7474618 -0.330077E-08  0.425E-04    5.01      67.9  T
     SCC iter.                  ...        0 min,  0.001 sec
     gradient                   ...        0 min,  0.090 sec
 * total energy  :   -21.5362118 Eh     change       -0.2206548E-04 Eh
   gradient norm :     0.0022437 Eh/α   predicted    -0.1792543E-04 ( -18.76%)
   displ. norm   :     0.1460916 α      lambda       -0.3734080E-04
   maximum displ.:     0.0712488 α      in ANC's #2, #6, #4, ...

........................................................................
.............................. CYCLE   57 ..............................
........................................................................
   1    -21.7465569 -0.217466E+02  0.144E-01    4.99       0.0  T
   2    -21.7465596 -0.275622E-05  0.900E-02    4.99       1.0  T
   3    -21.7465518  0.777218E-05  0.331E-02    4.99       1.0  T
   4    -21.7465620 -0.101263E-04  0.617E-03    4.99       4.7  T
   5    -21.7465620 -0.445814E-07  0.329E-03    4.99       8.8  T
   6    -21.7465620 -0.127864E-07  0.784E-04    4.99      36.8  T
   7    -21.7465620 -0.214733E-08  0.216E-04    4.99     133.6  T
     SCC iter.                  ...        0 min,  0.002 sec
     gradient                   ...        0 min,  0.001 sec
 * total energy  :   -21.5362307 Eh     change       -0.1884035E-04 Eh
   gradient norm :     0.0037156 Eh/α   predicted    -0.1906890E-04 (   1.21%)
   displ. norm   :     0.1039929 α      lambda       -0.3172826E-04
   maximum displ.:     0.0620087 α      in ANC's #6, #2, #4, ...

........................................................................
.............................. CYCLE   58 ..............................
........................................................................
   1    -21.7461885 -0.217462E+02  0.875E-02    5.00       0.0  T
   2    -21.7461894 -0.963458E-06  0.529E-02    5.00       1.0  T
   3    -21.7461869  0.255338E-05  0.186E-02    5.00       1.6  T
   4    -21.7461899 -0.302375E-05  0.352E-03    5.00       8.2  T
   5    -21.7461899 -0.596560E-07  0.171E-03    5.00      16.9  T
   6    -21.7461899 -0.288738E-08  0.743E-04    5.00      38.9  T
   7    -21.7461899 -0.737515E-09  0.784E-05    5.00     368.2  T
     SCC iter.                  ...        0 min,  0.001 sec
     gradient                   ...        0 min,  0.001 sec
 * total energy  :   -21.5362480 Eh     change       -0.1729596E-04 Eh
   gradient norm :     0.0039655 Eh/α   predicted    -0.1603474E-04 (  -7.29%)
   displ. norm   :     0.1001258 α      lambda       -0.5678117E-04
   maximum displ.:     0.0793779 α      in ANC's #2, #6, #4, ...

........................................................................
.............................. CYCLE   59 ..............................
........................................................................
   1    -21.7477185 -0.217477E+02  0.867E-02    5.01       0.0  T
   2    -21.7477200 -0.151773E-05  0.526E-02    5.01       1.0  T
   3    -21.7477187  0.128786E-05  0.150E-02    5.01       1.9  T
   4    -21.7477203 -0.156158E-05  0.441E-03    5.01       6.5  T
   5    -21.7477204 -0.147109E-06  0.166E-03    5.01      17.4  T
   6    -21.7477204 -0.632917E-08  0.816E-04    5.01      35.4  T
   7    -21.7477204 -0.547121E-09  0.114E-04    5.01     254.3  T
     SCC iter.                  ...        0 min,  0.091 sec
     gradient                   ...        0 min,  0.002 sec
 * total energy  :   -21.5362830 Eh     change       -0.3502298E-04 Eh
   gradient norm :     0.0022615 Eh/α   predicted    -0.2867464E-04 ( -18.13%)
   displ. norm   :     0.2503908 α      lambda       -0.5698098E-04
   maximum displ.:     0.1718924 α      in ANC's #2, #6, #4, ...

........................................................................
.............................. CYCLE   60 ..............................
........................................................................
   1    -21.7472968 -0.217473E+02  0.236E-01    5.00       0.0  T
   2    -21.7473011 -0.431011E-05  0.145E-01    5.00       1.0  T
   3    -21.7473001  0.944748E-06  0.214E-02    5.00       1.3  T
   4    -21.7473038 -0.366963E-05  0.843E-03    5.00       3.4  T
   5    -21.7473039 -0.141859E-06  0.410E-03    5.00       7.0  T
   6    -21.7473039 -0.228213E-07  0.974E-04    5.00      29.6  T
   7    -21.7473040 -0.435052E-08  0.313E-04    5.00      92.1  T
     SCC iter.                  ...        0 min,  0.001 sec
     gradient                   ...        0 min,  0.001 sec
 * total energy  :   -21.5363160 Eh     change       -0.3300810E-04 Eh
   gradient norm :     0.0034025 Eh/α   predicted    -0.3027446E-04 (  -8.28%)
   displ. norm   :     0.1045132 α      lambda       -0.3414560E-04
   maximum displ.:     0.0784037 α      in ANC's #2, #6, #21, ...

........................................................................
.............................. CYCLE   61 ..............................
........................................................................
   1    -21.7476418 -0.217476E+02  0.983E-02    5.00       0.0  T
   2    -21.7476423 -0.479910E-06  0.602E-02    5.00       1.0  T
   3    -21.7476403  0.192194E-05  0.156E-02    5.01       1.8  T
   4    -21.7476427 -0.238777E-05  0.251E-03    5.00      11.5  T
   5    -21.7476427 -0.222365E-08  0.677E-04    5.00      42.6  T
   6    -21.7476427 -0.123456E-08  0.206E-04    5.00     140.2  T
     SCC iter.                  ...        0 min,  0.001 sec
     gradient                   ...        0 min,  0.001 sec
 * total energy  :   -21.5363428 Eh     change       -0.2684187E-04 Eh
   gradient norm :     0.0029797 Eh/α   predicted    -0.1725744E-04 ( -35.71%)
   displ. norm   :     0.3169252 α      lambda       -0.6629594E-04
   maximum displ.:     0.2272281 α      in ANC's #2, #6, #21, ...

........................................................................
.............................. CYCLE   62 ..............................
........................................................................
   1    -21.7455700 -0.217456E+02  0.298E-01    5.00       0.0  T
   2    -21.7455763 -0.630525E-05  0.183E-01    5.00       1.0  T
   3    -21.7455793 -0.303023E-05  0.138E-02    5.00       2.1  T
   4    -21.7455799 -0.540999E-06  0.806E-03    5.00       3.6  T
   5    -21.7455799 -0.133772E-07  0.427E-03    5.00       6.8  T
   6    -21.7455799 -0.699000E-07  0.157E-03    5.00      18.4  T
   7    -21.7455800 -0.170736E-07  0.355E-04    5.00      81.4  T
   8    -21.7455800 -0.195257E-09  0.128E-04    5.00     225.0  T
     SCC iter.                  ...        0 min,  0.002 sec
     gradient                   ...        0 min,  0.001 sec
 * total energy  :   -21.5363460 Eh     change       -0.3198968E-05 Eh
   gradient norm :     0.0058945 Eh/α   predicted    -0.3647839E-04 (1040.32%)
   displ. norm   :     0.1124083 α      lambda       -0.1161502E-03
   maximum displ.:     0.0545245 α      in ANC's #3, #4, #6, ...

........................................................................
.............................. CYCLE   63 ..............................
........................................................................
   1    -21.7489318 -0.217489E+02  0.108E-01    5.04       0.0  T
   2    -21.7489381 -0.633008E-05  0.669E-02    5.03       1.0  T
   3    -21.7489313  0.681821E-05  0.418E-02    5.04       1.0  T
[...]

........................................................................
.............................. CYCLE   65 ..............................
........................................................................
   1    -21.7472167 -0.217472E+02  0.608E-02    5.02       0.0  T
   2    -21.7472172 -0.507972E-06  0.375E-02    5.02       1.0  T
   3    -21.7472174 -0.159456E-06  0.383E-03    5.02       7.5  T
   4    -21.7472174 -0.431395E-07  0.205E-03    5.01      14.1  T
   5    -21.7472174 -0.498961E-08  0.112E-03    5.02      25.8  T
   6    -21.7472174 -0.118238E-08  0.546E-04    5.02      52.8  T
   7    -21.7472174 -0.223290E-08  0.118E-04    5.02     245.0  T
     SCC iter.                  ...        0 min,  0.001 sec
     gradient                   ...        0 min,  0.001 sec
 * total energy  :   -21.5363873 Eh     change       -0.8327253E-05 Eh
   gradient norm :     0.0018174 Eh/α   predicted    -0.1135066E-04 (  36.31%)
   displ. norm   :     0.0436962 α      lambda       -0.8401270E-05
   maximum displ.:     0.0331734 α      in ANC's #2, #1, #3, ...

........................................................................
.............................. CYCLE   66 ..............................
........................................................................
   1    -21.7476823 -0.217477E+02  0.416E-02    5.02       0.0  T
   2    -21.7476825 -0.186149E-06  0.259E-02    5.02       1.1  T
   3    -21.7476826 -0.580175E-07  0.284E-03    5.02      10.2  T
   4    -21.7476826 -0.424238E-07  0.143E-03    5.02      20.2  T
   5    -21.7476826 -0.308792E-08  0.828E-04    5.02      34.9  T
   6    -21.7476826 -0.291502E-08  0.241E-04    5.02     119.9  T
     SCC iter.                  ...        0 min,  0.001 sec
     gradient                   ...        0 min,  0.001 sec
 * total energy  :   -21.5363893 Eh     change       -0.1996806E-05 Eh
   gradient norm :     0.0018475 Eh/α   predicted    -0.4203467E-05 ( 110.51%)
   displ. norm   :     0.0605102 α      lambda       -0.7444697E-05
   maximum displ.:     0.0473917 α      in ANC's #2, #6, #1, ...
 * RMSD in coord.:     0.7622115 α      energy gain  -0.1268017E-02 Eh

generating ANC from model Hessian ...
Using Lindh-Hessian (1995)
 Shifting diagonal of input Hessian by   1.017969207104565E-002
 Lowest  eigenvalues of input Hessian
    0.010000   -0.000000   -0.000000   -0.000000   -0.000000    0.000000
    0.000000    0.010677    0.010753    0.011046    0.011732    0.012975
    0.028707    0.033080    0.044854    0.045553    0.060219    0.061102
 Highest eigenvalues
    1.204819    1.333429    1.510772    1.740010    1.954973    2.433238
 

........................................................................
.............................. CYCLE   67 ..............................
........................................................................
   1    -21.7477610 -0.217478E+02  0.588E-02    5.02       0.0  T
   2    -21.7477612 -0.229679E-06  0.361E-02    5.02       1.0  T
   3    -21.7477605  0.722235E-06  0.991E-03    5.02       2.9  T
   4    -21.7477614 -0.927283E-06  0.180E-03    5.02      16.0  T
   5    -21.7477614 -0.131115E-08  0.768E-04    5.02      37.6  T
   6    -21.7477614 -0.137780E-08  0.214E-04    5.02     134.9  T
     SCC iter.                  ...        0 min,  0.001 sec
     gradient                   ...        0 min,  0.091 sec
 * total energy  :   -21.5363943 Eh     change       -0.5065598E-05 Eh
   gradient norm :     0.0010682 Eh/α   predicted     0.0000000E+00 (-100.00%)
   displ. norm   :     0.0107626 α      lambda       -0.2787225E-05
   maximum displ.:     0.0053245 α      in ANC's #2, #7, #3, ...

........................................................................
.............................. CYCLE   68 ..............................
........................................................................
   1    -21.7477366 -0.217477E+02  0.174E-02    5.02       0.0  T
   2    -21.7477368 -0.129351E-06  0.108E-02    5.02       2.7  T
   3    -21.7477366  0.218460E-06  0.691E-03    5.02       4.2  T
   4    -21.7477369 -0.307503E-06  0.116E-03    5.02      24.9  T
   5    -21.7477369 -0.614457E-08  0.499E-04    5.02      57.8  T
   6    -21.7477369 -0.284189E-09  0.257E-04    5.02     112.5  T
     SCC iter.                  ...        0 min,  0.001 sec
     gradient                   ...        0 min,  0.001 sec
 * total energy  :   -21.5363945 Eh     change       -0.2201737E-06 Eh
   gradient norm :     0.0008188 Eh/α   predicted    -0.1392971E-05 ( 532.67%)
   displ. norm   :     0.0137241 α      lambda       -0.3947152E-05
   maximum displ.:     0.0084381 α      in ANC's #2, #12, #3, ...

   *** GEOMETRY OPTIMIZATION CONVERGED AFTER 68 ITERATIONS ***

------------------------------------------------------------------------
 total energy gain   :        -0.0201565 Eh      -12.6484 kcal/mol
 total RMSD          :         2.2979690 a0        1.2160 Å
 total power (kW/mol):        -0.7782496 (step)  -17.1278 (real)
------------------------------------------------------------------------

 ANCopt (total)                0 d,  0 h,  0 min,  3.090 sec
 optimizer setup                ...        0 min,  0.000 sec (  0.010%)
 model hessian                  ...        0 min,  0.088 sec (  2.842%)
 ANC generation                 ...        0 min,  0.001 sec (  0.040%)
 coordinate transformation      ...        0 min,  0.003 sec (  0.086%)
 single point calculation       ...        0 min,  2.972 sec ( 96.190%)
 optimization log               ...        0 min,  0.005 sec (  0.150%)
 hessian update                 ...        0 min,  0.005 sec (  0.157%)
 rational function              ...        0 min,  0.005 sec (  0.161%)

================
 final structure:
================
12
 xtb: 6.2.3 (830e466)
C         2.38404472857638    2.20382313936707   -0.56116302382740
C         1.36083298074739    2.27943442505679    0.27108443001829
C         0.18660025735377   -0.75800112569283   -3.43092999769374
O         0.71629540138217    0.04106154900980   -2.50018706334902
O        -0.12010087752190    1.13306791698487   -2.18519744877191
O         0.75456395264344   -1.72815514825673   -3.81512945456049
H         0.40038580720773    1.60112786606543   -1.49333111779546
H         2.69303141351043    3.04320993523249   -1.16347860926146
H         2.96176392208416    1.30104236530343   -0.67503789708648
H        -0.80587878316449   -0.41003556644052   -3.76995840594448
H         1.06554012596475    1.44602432078681    0.88873115951317
H         0.79192107121612    3.18700032258392    0.39877742875898
 
 Bond Distances (Angstroems)
 ---------------------------
C1-C2=1.3211         C1-H8=1.0783         C1-H9=1.0778         C2-C1=1.3211         C2-H11=1.0785        C2-H12=1.0787        
C3-O4=1.3362         C3-O6=1.1880         C3-H10=1.1050        O4-C3=1.3362         O4-O5=1.4111         O5-O4=1.4111         
O5-H7=0.9842         O6-C3=1.1880         H7-O5=0.9842         H8-C1=1.0783         H9-C1=1.0778         H10-C3=1.1050        
H11-C2=1.0785        H12-C2=1.0787        
 C  H  Rav=1.0837 sigma=0.0107  Rmin=1.0778  Rmax=1.1050     5
 C  C  Rav=1.3211 sigma=0.0000  Rmin=1.3211  Rmax=1.3211     1
 O  H  Rav=0.9842 sigma=0.0000  Rmin=0.9842  Rmax=0.9842     1
 O  C  Rav=1.2621 sigma=0.0741  Rmin=1.1880  Rmax=1.3362     2
 O  O  Rav=1.4111 sigma=0.0000  Rmin=1.4111  Rmax=1.4111     1
 
 selected bond angles (degree)
 --------------------
H8-C1-C2=121.95                H9-C1-C2=121.98                H9-C1-H8=116.06                H11-C2-C1=121.91               
H12-C2-C1=122.09               H12-C2-H11=115.97              O6-C3-O4=121.61                H10-C3-O4=112.42               
H10-C3-O6=125.97               O5-O4-C3=112.54                H7-O5-O4=102.21                
 
 selected dihedral angles (degree)
 ---------------------------------
H11-C2-C1-H8=181.34           H11-C2-C1-H9=  1.07           H12-C2-C1-H8=359.21           H12-C2-C1-H9=178.94           
O5-O4-C3-O6=180.12            O5-O4-C3-H10=359.76           H7-O5-O4-C3=179.24            
 
 CMA Distance (Angstroems)
 ---------------------------
R(CMA):  4.0472
           -------------------------------------------------
          |                Final Singlepoint                |
           -------------------------------------------------

          ...................................................
          :                      SETUP                      :
          :.................................................:
          :  # basis functions                  30          :
          :  # atomic orbitals                  30          :
          :  # shells                           18          :
          :  # electrons                        36          :
          :  max. iterations                   100          :
          :  Hamiltonian                  GFN2-xTB          :
          :  restarted?                      false          :
          :  GBSA solvation                  false          :
          :  PC potential                    false          :
          :  electronic temp.          300.0000000     K    :
          :  accuracy                    1.0000000          :
          :  -> integral cutoff          0.2500000E+02      :
          :  -> integral neglect         0.1000000E-07      :
          :  -> SCF convergence          0.1000000E-05 Eh   :
          :  -> wf. convergence          0.1000000E-03 e    :
          :  Broyden damping             0.4000000          :
          ...................................................

 iter      E             dE          RMSdq      gap      omega  full diag
   1    -21.7477369 -0.217477E+02  0.369E-05    5.02       0.0  T
   2    -21.7477369 -0.149925E-11  0.220E-05    5.02    1309.9  T
   3    -21.7477369 -0.191847E-12  0.955E-06    5.02    3023.7  T

   *** convergence criteria satisfied after 3 iterations ***

         #    Occupation            Energy/Eh            Energy/eV
      -------------------------------------------------------------
         1        2.0000           -0.7802627             -21.2320
       ...           ...                  ...                  ...
        12        2.0000           -0.5425968             -14.7648
        13        2.0000           -0.5307040             -14.4412
        14        2.0000           -0.4962654             -13.5041
        15        2.0000           -0.4652815             -12.6610
        16        2.0000           -0.4542557             -12.3609
        17        2.0000           -0.4446146             -12.0986
        18        2.0000           -0.4424801             -12.0405 (HOMO)
        19                         -0.2580144              -7.0209 (LUMO)
        20                         -0.2374158              -6.4604
        21                         -0.1846176              -5.0237
        22                          0.1030940               2.8053
        23                          0.1187856               3.2323
       ...                                ...                  ...
        30                          0.6343206              17.2607
      -------------------------------------------------------------
                  HL-Gap            0.1844657 Eh            5.0196 eV
             Fermi-level           -0.3502473 Eh           -9.5307 eV

 SCC (total)                   0 d,  0 h,  0 min,  0.002 sec
 SCC setup                      ...        0 min,  0.000 sec (  8.737%)
 Dispersion                     ...        0 min,  0.000 sec (  1.747%)
 integral evaluation            ...        0 min,  0.000 sec ( 17.603%)
 zeroth order Hamiltonian       ...        0 min,  0.000 sec (  2.863%)
 iterations                     ...        0 min,  0.001 sec ( 23.803%)
 molecular gradient             ...        0 min,  0.001 sec ( 28.660%)
 printout                       ...        0 min,  0.000 sec (  7.790%)

         :::::::::::::::::::::::::::::::::::::::::::::::::::::
         ::                     SUMMARY                     ::
         :::::::::::::::::::::::::::::::::::::::::::::::::::::
         :: total energy             -21.536394548835 Eh    ::
         :: gradient norm              0.000817001658 Eh/a0 ::
         :: HOMO-LUMO gap              5.019566166063 eV    ::
         ::.................................................::
         :: SCC energy               -21.747736866254 Eh    ::
         :: -> isotropic ES            0.044487240000 Eh    ::
         :: -> anisotropic ES         -0.002289708459 Eh    ::
         :: -> anisotropic XC         -0.001256099809 Eh    ::
         :: -> dispersion             -0.005004833187 Eh    ::
         :: repulsion energy           0.211337452558 Eh    ::
         :: add. restraining           0.000000000000 Eh    ::
         :::::::::::::::::::::::::::::::::::::::::::::::::::::

           -------------------------------------------------
          |                Property Printout                |
           -------------------------------------------------

    * Orbital Energies and Occupations

         #    Occupation            Energy/Eh            Energy/eV
      -------------------------------------------------------------
         1        2.0000           -0.7802627             -21.2320
       ...           ...                  ...                  ...
         6        2.0000           -0.6376788             -17.3521
         7        2.0000           -0.6246463             -16.9975
         8        2.0000           -0.6065627             -16.5054
         9        2.0000           -0.5739022             -15.6167
        10        2.0000           -0.5544544             -15.0875
        11        2.0000           -0.5439554             -14.8018
        12        2.0000           -0.5425968             -14.7648
        13        2.0000           -0.5307040             -14.4412
        14        2.0000           -0.4962654             -13.5041
        15        2.0000           -0.4652815             -12.6610
        16        2.0000           -0.4542557             -12.3609
        17        2.0000           -0.4446146             -12.0986
        18        2.0000           -0.4424801             -12.0405 (HOMO)
        19                         -0.2580144              -7.0209 (LUMO)
        20                         -0.2374158              -6.4604
        21                         -0.1846176              -5.0237
        22                          0.1030940               2.8053
        23                          0.1187856               3.2323
        24                          0.1294585               3.5227
        25                          0.1362516               3.7076
        26                          0.1863554               5.0710
        27                          0.2397997               6.5253
        28                          0.4133179              11.2470
        29                          0.5655871              15.3904
        30                          0.6343206              17.2607
      -------------------------------------------------------------
                  HL-Gap            0.1844657 Eh            5.0196 eV
             Fermi-level           -0.3502473 Eh           -9.5307 eV

     #   Z        covCN         q      C6AA      α(0)
     1   6 C      2.832    -0.079    29.954     8.969
     2   6 C      2.832    -0.089    30.211     9.007
     3   6 C      2.636     0.342    21.192     7.530
     4   8 O      1.791    -0.135    16.333     5.457
     5   8 O      1.744    -0.304    19.061     5.895
     6   8 O      0.856    -0.326    20.252     6.034
     7   1 H      0.802     0.342     0.608     1.225
     8   1 H      0.926     0.050     2.320     2.382
     9   1 H      0.926     0.057     2.239     2.340
    10   1 H      0.922     0.045     2.383     2.414
    11   1 H      0.926     0.051     2.313     2.378
    12   1 H      0.926     0.046     2.365     2.405

 Mol. C6AA /au·bohr⁶  :       1350.115104
 Mol. C8AA /au·bohr⁸  :      29012.259855
 Mol. α(0) /au        :         56.035882


Wiberg/Mayer (AO) data.
largest (>0.10) Wiberg bond orders for each atom
          total WBO             WBO to atom ...
     1  C   3.990        C    2 2.002    H    8 0.976    H    9 0.975
     2  C   3.992        C    1 2.002    H   12 0.976    H   11 0.975
     3  C   3.907        O    6 1.837    O    4 1.127    H   10 0.916
     4  O   2.296        C    3 1.127    O    5 0.972    O    6 0.182
     5  O   1.886        O    4 0.972    H    7 0.827
     6  O   2.112        C    3 1.837    O    4 0.182
     7  H   0.883        O    5 0.827
     8  H   0.998        C    1 0.976
     9  H   0.997        C    1 0.975
    10  H   0.998        C    3 0.916
    11  H   0.997        C    2 0.975
    12  H   0.998        C    2 0.976

molecular dipole:
                 x           y           z       tot (Debye)
 q only:       -0.107       1.046       0.716
   full:       -0.138       1.248       0.851       3.855
molecular quadrupole (traceless):
                xx          xy          yy          xz          yz          zz
 q only:        3.271       4.193       2.411       3.637      -6.951      -5.681
  q+dip:        4.395       5.580       2.216       3.772     -10.102      -6.611
   full:        4.074       5.792       2.245       4.150      -9.740      -6.319

           -------------------------------------------------
          |                Geometry Summary                 |
           -------------------------------------------------

      molecular mass/u    :       90.0780670
   center of mass at/Å    :        0.8436512       0.5120903      -2.0710445
  moments of inertia/u·Å² :        0.5385486E+02   0.4058966E+03   0.4401174E+03
rotational constants/cm⁻¹ :        0.3130197E+00   0.4153184E-01   0.3830258E-01

 * 9 selected distances

     #   Z        #   Z                                     value/Å
     1   6 C      2   6 C                                 1.3211038
     3   6 C      4   8 O                                 1.3361738
     4   8 O      5   8 O                                 1.4111184 (max)
     3   6 C      6   8 O                                 1.1880197
     5   8 O      7   1 H                                 0.9842081 (min)
     1   6 C      8   1 H                                 1.0783446
     1   6 C      9   1 H                                 1.0778405
     2   6 C     11   1 H                                 1.0785443
     2   6 C     12   1 H                                 1.0787224

 * 5 distinct bonds (by element types)

   Z      Z             #   av. dist./Å        max./Å        min./Å
   1 H    6 C           4     1.0783629     1.0787224     1.0778405
   6 C    6 C           1     1.3211038     1.3211038     1.3211038
   1 H    8 O           1     0.9842081     0.9842081     0.9842081
   6 C    8 O           2     1.2620968     1.3361738     1.1880197
   8 O    8 O           1     1.4111184     1.4111184     1.4111184


optimized geometry written to: xtbopt.xyz


           -------------------------------------------------
          | TOTAL ENERGY              -21.536394548835 Eh   |
          | GRADIENT NORM               0.000817001658 Eh/α |
          | HOMO-LUMO GAP               5.019566166063 eV   |
           -------------------------------------------------

------------------------------------------------------------------------
 * finished run on 2020/12/23 at 21:43:22.464     
------------------------------------------------------------------------
 total:
 * wall-time:     0 d,  0 h,  0 min,  3.402 sec
 *  cpu-time:     0 d,  0 h,  0 min, 13.800 sec
 * ratio c/w:     4.056 speedup
 SCF:
 * wall-time:     0 d,  0 h,  0 min,  0.012 sec
 *  cpu-time:     0 d,  0 h,  0 min,  0.223 sec
 * ratio c/w:    18.954 speedup
 ANC optimizer:
 * wall-time:     0 d,  0 h,  0 min,  3.095 sec
 *  cpu-time:     0 d,  0 h,  0 min, 12.430 sec
 * ratio c/w:     4.016 speedup

