12
 energy: -21.547567901391 gnorm: 0.127547960716 xtb: 6.2.3 (830e466)
C         2.20332000000000    1.17566000000000   -2.04657000000000
C         0.75936000000000    1.00239000000000   -1.56186000000000
C         0.60862000000000   -0.30751000000000   -0.84255000000000
O         0.40053000000000    2.04448000000000   -0.68380000000000
O         0.23111000000000    3.12674000000000   -1.42325000000000
O         1.25010000000000   -0.53993000000000    0.17072000000000
H        -0.75060000000000    3.25577000000000   -1.46981000000000
H         2.30682000000000    2.12700000000000   -2.60981000000000
H         2.48257000000000    0.34039000000000   -2.72369000000000
H        -0.07844000000000   -1.05758000000000   -1.22118000000000
H         0.07087000000000    0.97603000000000   -2.43888000000000
H         2.90474000000000    1.19615000000000   -1.18512000000000
12
 energy: -21.557160044324 gnorm: 0.047770239754 xtb: 6.2.3 (830e466)
C         2.20776271948129    1.16099441598737   -2.05908328139456
C         0.76767442451472    0.98593040571236   -1.57435590044127
C         0.63575185435355   -0.31830067580593   -0.81793104018902
O         0.39126703742123    2.02856485696759   -0.69130598306173
O         0.20606748190232    3.18361290190218   -1.41311599564243
O         1.25382801425582   -0.55854447542479    0.18560078078100
H        -0.76374068742707    3.30242139652001   -1.47781446968202
H         2.29882641899949    2.10914382747481   -2.59515395287894
H         2.49161848973031    0.34300616687754   -2.72485791780123
H        -0.05999749436818   -1.06088148674715   -1.22627306100971
H         0.08133321400867    0.98632000639947   -2.44375459007234
H         2.87860852712785    1.17732266013655   -1.19775458860773
12
 energy: -21.558936808325 gnorm: 0.008948449220 xtb: 6.2.3 (830e466)
C         2.21274766584828    1.15228797214658   -2.06401805754018
C         0.76708835661986    0.97849676019689   -1.59268244629217
C         0.64619996964089   -0.31479373143294   -0.79693676983759
O         0.37532931192680    2.01614897670893   -0.70337639441594
O         0.19033588394372    3.21732723087881   -1.40876355348167
O         1.25531697449035   -0.55387807806683    0.19946756843184
H        -0.76955892518058    3.34285779822232   -1.45587141483498
H         2.30406689548011    2.09678616230434   -2.59123370877987
H         2.49244275764107    0.33864918525297   -2.72391022595757
H        -0.03390264494694   -1.06361315531906   -1.24603833944637
H         0.07949189031471    0.96698034305447   -2.45269701562770
H         2.86944186422173    1.16234053605351   -1.19973964221780
12
 energy: -21.559100282723 gnorm: 0.006179526886 xtb: 6.2.3 (830e466)
C         2.21417718696718    1.15291913364539   -2.06883697586233
C         0.76844254127704    0.97242502124978   -1.60061658614024
C         0.66069462903776   -0.32243823826746   -0.79863131813237
O         0.36334460046411    2.00603886850066   -0.71208112671863
O         0.18962449041234    3.22164946830005   -1.41208689714304
O         1.24012606238844   -0.54266118935018    0.21967648296619
H        -0.76779281242438    3.36507618133731   -1.43343440621232
H         2.30567776018735    2.10231935451515   -2.58877711573759
H         2.49573843748817    0.34315684466044   -2.73461202689409
H        -0.03287005294632   -1.06307156950451   -1.24435704492416
H         0.08503116718797    0.94784732956606   -2.46130053986300
H         2.86680598996034    1.15632879534732   -1.20074244533843
12
 energy: -21.559288280748 gnorm: 0.005433222153 xtb: 6.2.3 (830e466)
C         2.20980670711666    1.15215599946669   -2.06965639252695
C         0.76382495686936    0.96829469311773   -1.60303511616555
C         0.65820267051136   -0.32271037219218   -0.78935915601075
O         0.34999879135470    2.00310968483347   -0.72214520387713
O         0.19563377685267    3.22440376045039   -1.42592175681738
O         1.23259404159101   -0.53309869972271    0.23346384415568
H        -0.75921752883848    3.39785473347580   -1.40960828010659
H         2.30460650070117    2.10568099029760   -2.58415245963528
H         2.49238561384294    0.34551505081834   -2.74173181960899
H        -0.00509498924147   -1.08006438549569   -1.25837886796531
H         0.08433024365079    0.92909645554728   -2.46539673650923
H         2.86192921558929    1.14935208940328   -1.19987805493251
12
 energy: -21.559444872761 gnorm: 0.011765779794 xtb: 6.2.3 (830e466)
C         2.20293119612188    1.15169986687711   -2.06781058236072
C         0.75627294118903    0.96173168016828   -1.60618642303358
C         0.65797428204514   -0.32587541386072   -0.78376913631756
O         0.33138195646661    1.99819614757723   -0.73824994848575
O         0.20755371710768    3.22020486073730   -1.45169064613917
O         1.21523441348645   -0.51501101745510    0.25307399309315
H        -0.74061249870200    3.44344893964543   -1.37177823347064
H         2.29638555056752    2.11076290362219   -2.57363436989189
H         2.48717625818540    0.35305985650523   -2.75040033688554
H         0.03418576576299   -1.10585719784893   -1.27276791067837
H         0.08106467957479    0.90535090450517   -2.47198372786032
H         2.85945173819451    1.14187846952681   -1.20060267796961
12
 energy: -21.559598315258 gnorm: 0.009001517613 xtb: 6.2.3 (830e466)
C         2.19641569741618    1.15269667142178   -2.06635033188861
C         0.75062263575423    0.95935022238233   -1.60409979228955
C         0.65803615536551   -0.32751034333855   -0.78252479010311
O         0.31896727183574    1.99501983232682   -0.74299424777480
O         0.21929547820168    3.21595051172841   -1.46138665411246
O         1.20234116082004   -0.50437207881110    0.26337671420970
H        -0.71877531668934    3.45950124638809   -1.36424228648272
H         2.28586736000559    2.11524802457307   -2.56595157661665
H         2.47941521539580    0.36026853574991   -2.75625555569245
H         0.06182020781387   -1.12225952695371   -1.28013408843105
H         0.07737963965481    0.89773062046636   -2.47229752649042
H         2.85761449442589    1.13796628406658   -1.20293986432786
12
 energy: -21.559824387896 gnorm: 0.011155484689 xtb: 6.2.3 (830e466)
C         2.18359702386103    1.15364689822507   -2.06729289787441
C         0.73839877074494    0.95051213333699   -1.60547988990628
C         0.66484488505773   -0.33348905871193   -0.78181637783876
O         0.29429798046409    1.98568858443322   -0.75696409704603
O         0.24069060142625    3.20908210725471   -1.48076854333447
O         1.16624709033685   -0.47793876146978    0.29350261762688
H        -0.67420730052747    3.50490247595624   -1.33478685257369
H         2.26526291479070    2.12296501465107   -2.55374087177212
H         2.46715576454043    0.37223530029462   -2.76755625139643
H         0.12575219863497   -1.15739242063892   -1.29642036995615
H         0.06995604510810    0.87765710295491   -2.47821702285442
H         2.84700402556237    1.13172062371380   -1.20625944307412
12
 energy: -21.560059356953 gnorm: 0.007708016444 xtb: 6.2.3 (830e466)
C         2.17104307943125    1.15273211488015   -2.06848231262418
C         0.72474523085095    0.94345251719646   -1.60612433255129
C         0.67247021448859   -0.33682794656492   -0.78372681104358
O         0.27612591022744    1.98128877255371   -0.76749854448560
O         0.25656766850285    3.20474972421873   -1.49275583354627
O         1.13122681181985   -0.45855227189269    0.31255123835488
H        -0.62930692863893    3.54141814137515   -1.31264662058065
H         2.24506078614837    2.12438750322902   -2.54786401019464
H         2.45753695316709    0.37706930001024   -2.77021419921169
H         0.19262952282068   -1.18620571087359   -1.31129297912290
H         0.05816672730725    0.86435988506706   -2.48061830139400
H         2.83273402387460    1.13171797080067   -1.20712729360007
12
 energy: -21.559244875244 gnorm: 0.047314465614 xtb: 6.2.3 (830e466)
C         2.14566655179254    1.14697166961535   -2.07283209822636
C         0.69538993754536    0.92375091161283   -1.61382444794028
C         0.68748354095896   -0.34389416812773   -0.78146607830438
O         0.23070450718891    1.97182862353246   -0.80414898574773
O         0.28238598232227    3.19427655905613   -1.54080946894563
O         1.03969973382303   -0.40687027385168    0.36931306488157
H        -0.53997383849551    3.66007174334268   -1.21431963122647
H         2.20605426436687    2.12341732901044   -2.54027246416132
H         2.44350004647495    0.38183945712900   -2.77756087857274
H         0.35864172228762   -1.25822724009658   -1.35838906750397
H         0.03742833400430    0.81652865763463   -2.49347778503714
H         2.80201921773068    1.12989673114246   -1.20801215921556
12
 energy: -21.560428728309 gnorm: 0.005336619262 xtb: 6.2.3 (830e466)
C         2.15869596127178    1.14850553605227   -2.07219908472452
C         0.70952115261164    0.93389330313381   -1.61083613531780
C         0.68004796567609   -0.33812057569721   -0.78124944877171
O         0.25717830617237    1.97971480874368   -0.78300429038548
O         0.26307641959420    3.20410171205237   -1.50798352744045
O         1.07968214674968   -0.44071843114370    0.33649802322233
H        -0.58451227147424    3.59768480182031   -1.26538098019319
H         2.22623671630507    2.11885790884987   -2.55439211830954
H         2.45416867150400    0.37164713733432   -2.76870988558903
H         0.28359586948257   -1.21331332941031   -1.33705697031014
H         0.04658608630246    0.83981858542850   -2.48563560807040
H         2.81472297580438    1.13751854283608   -1.20584997411006
12
 energy: -21.560594606961 gnorm: 0.010157491287 xtb: 6.2.3 (830e466)
C         2.15911394920125    1.14682174598397   -2.07640270854014
C         0.71018221398588    0.93347364902814   -1.61175002952634
C         0.68043162456898   -0.33640677411919   -0.78094089125614
O         0.25789185731025    1.98049194412923   -0.78419503588892
O         0.25588423357534    3.20314490240701   -1.50848720475133
O         1.04444205292026   -0.43197502516244    0.35426788307893
H        -0.57894171826976    3.60369508006979   -1.24253824294793
H         2.22582305945540    2.11255670963491   -2.56807967895850
H         2.45414103082911    0.36414591329924   -2.76715182716908
H         0.31531219658983   -1.21633675160590   -1.35369977161681
H         0.04715358851607    0.83684816691854   -2.48500053003300
H         2.81756591131739    1.14313043941669   -1.21182196239073
12
 energy: -21.560407875644 gnorm: 0.043972289088 xtb: 6.2.3 (830e466)
C         2.15785498294714    1.13739249482169   -2.08882503532841
C         0.70710782800201    0.92916645485188   -1.61805142908770
C         0.68354655074518   -0.33196561970239   -0.78198186753327
O         0.25862660430165    1.98787790441916   -0.79931732930917
O         0.22162826562778    3.19525511549658   -1.53495190382180
O         0.91761095388378   -0.40998530151498    0.40070834274028
H        -0.55193902483575    3.65578881653593   -1.12582079256865
H         2.22242587135650    2.08201439123215   -2.62372249197071
H         2.46230079225099    0.32586776178303   -2.74510063538533
H         0.44917536114908   -1.22692563115829   -1.41021522545170
H         0.04427341730493    0.82006256666440   -2.48533021015664
H         2.81638839726670    1.17504104657084   -1.22319142212690
12
 energy: -21.561033872606 gnorm: 0.009285518546 xtb: 6.2.3 (830e466)
C         2.15532640784958    1.14096757388861   -2.08133969351906
C         0.70575823249846    0.93364039716881   -1.61273332345246
C         0.68100323169272   -0.33510594700519   -0.78173589194880
O         0.25693000800341    1.98590542346595   -0.78702721328725
O         0.23832556962066    3.20415474826222   -1.51714830231155
O         0.97860881908265   -0.42480799788873    0.37163622552376
H        -0.56024962976783    3.63616392989963   -1.18671327485134
H         2.22173989008585    2.08960956739859   -2.60733019876126
H         2.45651826289265    0.33519996287238   -2.74479617381758
H         0.39904262045483   -1.22629606091859   -1.38994629014368
H         0.04224018327389    0.83152718208438   -2.48236607681610
H         2.81375640431312    1.16863122077193   -1.21629978661468
12
 energy: -21.561230033424 gnorm: 0.007787163212 xtb: 6.2.3 (830e466)
C         2.15329936876192    1.13991949686058   -2.08322295912040
C         0.70452265497563    0.93347717890019   -1.61265727366782
C         0.68212135618642   -0.33712306325552   -0.78419661691478
O         0.25818590961975    1.98579994648772   -0.78650984988134
O         0.23361067625088    3.20222979945480   -1.52210075384522
O         0.95187983905466   -0.42444714027296    0.37614249968925
H        -0.54938134939349    3.64633864810250   -1.16762885427470
H         2.21741263652020    2.08192178125019   -2.62270869920281
H         2.45832954508496    0.32543383334614   -2.73519650902319
H         0.42889293759679   -1.22838536442113   -1.39903349729139
H         0.03957167269744    0.83195251530868   -2.48126228757568
H         2.81055475264484    1.18247236823882   -1.21742519889192
12
 energy: -21.560567585486 gnorm: 0.048974898206 xtb: 6.2.3 (830e466)
C         2.13592211674375    1.13043384390531   -2.09367418439717
C         0.69293545655443    0.93797662011374   -1.60404917441713
C         0.68576917091119   -0.34407321109759   -0.79274295957944
O         0.26418966364727    1.99331752807386   -0.77998108463409
O         0.20673487363653    3.19525900026459   -1.55480555213307
O         0.77601150182656   -0.41423369782162    0.41281883930564
H        -0.47481130912879    3.70862422403089   -1.05939515272725
H         2.18791803374136    2.03284703278565   -2.70893248641764
H         2.45326107918035    0.26784242871218   -2.68279386105432
H         0.64996487702043   -1.25897886071152   -1.47508434449496
H         0.01828272621740    0.83920600919612   -2.46689605327492
H         2.79282180964952    1.25136908254838   -1.23026398617564
12
 energy: -21.561806044588 gnorm: 0.008120520763 xtb: 6.2.3 (830e466)
C         2.14760119454452    1.13507378335487   -2.08941000059213
C         0.70272628729334    0.93840507195180   -1.60750057336652
C         0.68120841804228   -0.34134675966914   -0.79309756798271
O         0.27320343548589    1.99094777817087   -0.77904310970612
O         0.20817352167147    3.19331605687009   -1.54315221192345
O         0.85288273793900   -0.43159319429811    0.38279308476757
H        -0.51549943809412    3.66908690122867   -1.10399143766712
H         2.20480016240771    2.04696288736833   -2.68023192663096
H         2.46516662723826    0.28935588016513   -2.69426087802953
H         0.53893386047749   -1.22923636389213   -1.43071181662383
H         0.02823466765639    0.84493416351938   -2.47187237456324
H         2.80156852533778    1.23368379523024   -1.22532118768194
12
 energy: -21.561947696351 gnorm: 0.007463307669 xtb: 6.2.3 (830e466)
C         2.14575627846761    1.13443530888206   -2.09155959516543
C         0.70227183045049    0.93919907464122   -1.60409830527722
C         0.68098739508951   -0.34189951934371   -0.79176100120942
O         0.27286444416072    1.99076902427830   -0.77498185818290
O         0.20669413673940    3.19471904183617   -1.54019247760400
O         0.82739438748500   -0.42986231386781    0.39118134301473
H        -0.50584483917780    3.67362030462258   -1.10373611101339
H         2.19975980664372    2.04345557731322   -2.68664088811266
H         2.46066257649962    0.28688077842594   -2.69417914721684
H         0.56873007434244   -1.23503095121701   -1.44068208353795
H         0.02642518697398    0.84629130150225   -2.46766659683225
H         2.80329872232529    1.23701237292679   -1.23148327886267
12
 energy: -21.562150136205 gnorm: 0.016018855669 xtb: 6.2.3 (830e466)
C         2.14572256329426    1.12966430620309   -2.09698575022101
C         0.70367408335985    0.94280855461715   -1.59905313533807
C         0.67854629137701   -0.34000386955151   -0.79180973987557
O         0.28310019084591    1.99752664010253   -0.77212418954342
O         0.18180356400770    3.18967860181610   -1.55488399892290
O         0.75742841139304   -0.43148794810484    0.40114677613692
H        -0.49157529177509    3.68677844817348   -1.06652003550389
H         2.19677968741088    2.02582888805864   -2.71035627436262
H         2.46011351095876    0.27140291771128   -2.68285016958448
H         0.64436855081142   -1.23522716538696   -1.46035137273600
H         0.02275391274869    0.85233753729206   -2.45955004359875
H         2.80628452556755    1.25028308906898   -1.24246206645020
12
 energy: -21.562307974654 gnorm: 0.012646779784 xtb: 6.2.3 (830e466)
C         2.14683711456948    1.12835496375551   -2.09882190446980
C         0.70499658943946    0.94349022835672   -1.59809598026780
C         0.67768279275385   -0.33999250633255   -0.79313307138311
O         0.28808653576008    1.99935857948429   -0.77132807583351
O         0.16979771359354    3.18691641923048   -1.55885910914440
O         0.73362330903078   -0.43455066987239    0.39921473346661
H        -0.48720346325627    3.69229034723271   -1.05457862477569
H         2.19577072120766    2.02000341725749   -2.71851394273007
H         2.46162097662047    0.26581455803834   -2.67827661801041
H         0.66743085120761   -1.23191782643576   -1.46056759645632
H         0.02252567431842    0.85405587312610   -2.45764825006276
H         2.80783118475491    1.25576661615906   -1.24519156033273
12
 energy: -21.562598482743 gnorm: 0.008528294729 xtb: 6.2.3 (830e466)
C         2.14815535469893    1.12649494350270   -2.10431489391606
C         0.70817911195821    0.94399899772683   -1.59455708696967
C         0.67606788493204   -0.33993665801791   -0.79309189364694
O         0.29766295373629    2.00260715709371   -0.76888231992650
O         0.14211482704259    3.17921572123812   -1.56652240645997
O         0.66684020212515   -0.43980484483077    0.39859173726369
H        -0.47119646981369    3.70548806759968   -1.03357584518543
H         2.19325065197282    2.01227192368591   -2.73030891284706
H         2.46006093200080    0.25997588303245   -2.67798123294649
H         0.73198797126558   -1.22572243296598   -1.45796707204297
H         0.02251782598805    0.85501778723602   -2.45168987744101
H         2.81335875409323    1.25998345469922   -1.25550019588160
12
 energy: -21.562712935561 gnorm: 0.003787459985 xtb: 6.2.3 (830e466)
C         2.15074598638810    1.12975569326725   -2.10817205873805
C         0.71339621787176    0.94155828943863   -1.59540007425968
C         0.68287264840400   -0.33929820111682   -0.78884265315405
O         0.29739553062138    1.99950109165722   -0.77116626183527
O         0.13465471400307    3.17382748375308   -1.56809729998053
O         0.63986366930772   -0.43409837443629    0.40010049353868
H        -0.46230283597155    3.70503354057094   -1.02385675552036
H         2.19145612574683    2.01990494930537   -2.72971229587362
H         2.46093343570459    0.26682105135459   -2.68968191053610
H         0.73182498465972   -1.22963553380642   -1.44764144356777
H         0.02819829005317    0.84712058788704   -2.45206335068763
H         2.81996123321122    1.25909942212542   -1.26126638938561
12
 energy: -21.562919164177 gnorm: 0.004233354560 xtb: 6.2.3 (830e466)
C         2.15107710206077    1.13288097235693   -2.11618926121433
C         0.71820032515865    0.93630512308768   -1.59769707716021
C         0.67431683120894   -0.33814858512768   -0.78068968591542
O         0.29482016540675    1.99432356087577   -0.77626849788193
O         0.12101060089333    3.16432534328204   -1.57256178809065
O         0.57896290869543   -0.42137099797178    0.40389677557778
H        -0.43527976459894    3.71075019211732   -1.00157106607218
H         2.18708686583203    2.03394702955589   -2.72506607058551
H         2.45515340131032    0.27894524303890   -2.71694617587500
H         0.78047935429310   -1.23476490478972   -1.42568399913694
H         0.03343248855880    0.83402604927653   -2.45340077059501
H         2.82973972118082    1.24837097429810   -1.27362238305059
12
 energy: -21.563052765764 gnorm: 0.010988564700 xtb: 6.2.3 (830e466)
C         2.14933275606208    1.13481023964362   -2.12504411885486
C         0.72212965151431    0.93090812380380   -1.59899117892494
C         0.67220220276220   -0.33761254201728   -0.77189426791999
O         0.29238392248421    1.99042430306247   -0.78157941323029
O         0.10027113697104    3.15379129168537   -1.58281444801384
O         0.49896555876880   -0.41109057683095    0.40938461746994
H        -0.39776458199009    3.72517827225176   -0.97587318034910
H         2.18036709937353    2.04838296907765   -2.71626153476285
H         2.44489429088346    0.29317086435062   -2.74814974129046
H         0.85242237341251   -1.23813859909183   -1.40377623473413
H         0.03422083489349    0.81823480589693   -2.45164077180933
H         2.83957475486445    1.23153084816781   -1.28915972758013
12
 energy: -21.563141267896 gnorm: 0.005679014277 xtb: 6.2.3 (830e466)
C         2.14750887290434    1.13362297262927   -2.12549346274367
C         0.72124819852047    0.93134874651197   -1.59637570696507
C         0.67289483000721   -0.33777813405723   -0.77117898357107
O         0.29366382110771    1.99193424448191   -0.77960317845569
O         0.09973892467776    3.15432143827797   -1.58465984570152
O         0.48917340758055   -0.41508720340029    0.40655133450680
H        -0.39466322804176    3.72712865762191   -0.98141190788783
H         2.17940337990368    2.04981866009777   -2.71058669114515
H         2.44029914809916    0.29603124264251   -2.75319093644163
H         0.86956125690350   -1.23420410150455   -1.40106960457836
H         0.02995828141623    0.81842044553936   -2.44695002584806
H         2.84021310692115    1.22403303115940   -1.29183099116876
12
 energy: -21.563251600786 gnorm: 0.007248626791 xtb: 6.2.3 (830e466)
C         2.14304559801993    1.13297419428265   -2.13074629169799
C         0.72153274642204    0.92929537049388   -1.59052647193588
C         0.67667484980845   -0.33857134154768   -0.76482119933327
O         0.29729735246448    1.99409502284801   -0.77859788786715
O         0.08370400461033    3.14750390943655   -1.59773841671435
O         0.42939588291264   -0.42291169174708    0.40180546818237
H        -0.36660819061277    3.74060706817075   -0.98005652388690
H         2.17435367099170    2.06162415608197   -2.69387715118164
H         2.42463830628943    0.30937150825276   -2.77929993798984
H         0.93741531475809   -1.22580359102796   -1.38303887217100
H         0.02221643371182    0.81100325859301   -2.43538459146975
H         2.84533403062385    1.20040213616312   -1.30351812393461
12
 energy: -21.563285146302 gnorm: 0.003490348842 xtb: 6.2.3 (830e466)
C         2.14145295540679    1.13262970081426   -2.13093355901872
C         0.72052444409358    0.92968367510096   -1.58690352192843
C         0.68072641527046   -0.33933249089831   -0.76310307663334
O         0.30011661568847    1.99682459742478   -0.77745404815081
O         0.07829557397169    3.14497186871730   -1.60327706442836
O         0.42047860323952   -0.43295352466433    0.39646001518750
H        -0.36061331900125    3.74511547766526   -0.98702356096965
H         2.17425848979627    2.06559269426511   -2.68615790370143
H         2.41735200842774    0.31322511236635   -2.78622048250262
H         0.95190605511818   -1.21896026960041   -1.37657822457436
H         0.01916323578000    0.81157810844041   -2.43005035049711
H         2.84533892220856    1.19121505036861   -1.30455822278265
12
 energy: -21.563317222552 gnorm: 0.004403768131 xtb: 6.2.3 (830e466)
C         2.13967361875990    1.13264486574509   -2.13460786729676
C         0.72105631354507    0.92901006891090   -1.58438790654283
C         0.68088970045076   -0.33906566944785   -0.75883070120357
O         0.29947436607636    1.99724048654900   -0.77728635565768
O         0.07183840807437    3.14148919412895   -1.60537553170930
O         0.38256670449995   -0.43578183582846    0.39381123313412
H        -0.34635994617269    3.75123374437278   -0.98449832730855
H         2.17120152729610    2.07138030386491   -2.68086935395672
H         2.40760202365400    0.31916035889571   -2.80162987198507
H         0.99241283034920   -1.21550246258404   -1.36370998125436
H         0.01855910252273    0.80761604386894   -2.42592276070297
H         2.85008535094426    1.18016490152404   -1.31249257551632
12
 energy: -21.563328977655 gnorm: 0.002865527662 xtb: 6.2.3 (830e466)
C         2.13984093395384    1.13281322079043   -2.13563546831468
C         0.72129719364980    0.92874736849038   -1.58516254761996
C         0.67942937616054   -0.33850112105815   -0.75811513585123
O         0.29868655139949    1.99672783725416   -0.77804126586285
O         0.06739530283671    3.13949436780037   -1.60510576202828
O         0.37301082922174   -0.43522022867158    0.39151115550454
H        -0.34101922913946    3.75354356977525   -0.97943287087144
H         2.17138952641036    2.07118332721789   -2.68238611136172
H         2.40702456562733    0.31962468163384   -2.80305857487602
H         1.00121507877854   -1.21493612484628   -1.35874876610919
H         0.01931247818780    0.80578025437763   -2.42662409472287
H         2.85141739291332    1.18033284723605   -1.31500055788630
12
 energy: -21.563340541695 gnorm: 0.002062986977 xtb: 6.2.3 (830e466)
C         2.14168151153102    1.13354320649344   -2.13824923099640
C         0.72392176644948    0.92903135525987   -1.58605428529318
C         0.67736193354837   -0.33720187175334   -0.75693601435809
O         0.29954528984934    1.99557042914763   -0.77739254901980
O         0.06439479736975    3.13803926699187   -1.59991314194184
O         0.35699082106410   -0.43402283916577    0.38814337998603
H        -0.34025822521788    3.75131229072168   -0.97395072389098
H         2.17219974633606    2.06989033552307   -2.68865615562643
H         2.40737216330060    0.31887301492705   -2.80437467125661
H         1.00772875515583   -1.21367355337978   -1.35067273199376
H         0.02265619227040    0.80478275785906   -2.42742880035791
H         2.85540524834295    1.18344560737521   -1.32031507525103
12
 energy: -21.563348581980 gnorm: 0.002446934077 xtb: 6.2.3 (830e466)
C         2.14223759185962    1.13374783921757   -2.14085029982132
C         0.72622812676543    0.92876958954099   -1.58530021563193
C         0.67731245411838   -0.33695307551510   -0.75552022799431
O         0.30293937190448    1.99583134697624   -0.77664508955101
O         0.05658543601370    3.13528537363037   -1.60103036410343
O         0.33606346275405   -0.43490341757529    0.38414807792384
H        -0.33381388422407    3.75300413788501   -0.96879810026445
H         2.17136610448424    2.07103039320436   -2.69022836984597
H         2.40570779203389    0.31975725383444   -2.80895932575943
H         1.02294791446008   -1.21171210193252   -1.34256839013643
H         0.02314152958857    0.80358730170665   -2.42526235019077
H         2.85828410024164    1.18214535902727   -1.32478534462479
12
 energy: -21.563356062870 gnorm: 0.000905094356 xtb: 6.2.3 (830e466)
C         2.14266052693401    1.13318094957849   -2.14246632999415
C         0.72805808704033    0.92911746478741   -1.58468610503674
C         0.67683619215920   -0.33717627741472   -0.75597421524657
O         0.30776764201524    1.99677174871479   -0.77512814320089
O         0.05103903063385    3.13460220734493   -1.60081792128827
O         0.32389287646012   -0.43533369163756    0.37922298340593
H        -0.33171703206072    3.75328155574926   -0.96466528047367
H         2.17032793160983    2.06887855799048   -2.69494984189148
H         2.40656982713518    0.31683832951220   -2.80775691818624
H         1.03185405336951   -1.21107651142576   -1.33851706288069
H         0.02268472181502    0.80550387241961   -2.42340636100642
H         2.85902614288846    1.18500179438085   -1.32665480420081
12
 energy: -21.563360322765 gnorm: 0.001400755003 xtb: 6.2.3 (830e466)
C         2.14304624721337    1.13305767877898   -2.14543547072263
C         0.73050425992703    0.92947542809393   -1.58338000733365
C         0.67572520857469   -0.33775136051714   -0.75596608606214
O         0.31307315935039    1.99705268340613   -0.77227656204138
O         0.04736103806820    3.13365671385558   -1.59748764533214
O         0.30234975592869   -0.43758420298980    0.37282575159110
H        -0.32874931770274    3.75293393109840   -0.95992231300386
H         2.16799960015106    2.06437912600684   -2.70496204284029
H         2.40866211455137    0.31265352990737   -2.80487113685392
H         1.04644829800071   -1.20947413301642   -1.33300254941456
H         0.02179944319233    0.80813190235630   -2.42005186936465
H         2.86078019274491    1.19305870301979   -1.33127006862189
12
 energy: -21.563361436723 gnorm: 0.002162321323 xtb: 6.2.3 (830e466)
C         2.14370084065215    1.13350975364892   -2.14549921713524
C         0.73121620160602    0.92973901469315   -1.58355448173016
C         0.67508035474928   -0.33849462798410   -0.75740818304877
O         0.31447781596024    1.99646770487804   -0.77094742463138
O         0.04947792878876    3.13380607796397   -1.59471215114378
O         0.30571050606094   -0.43895642988615    0.37144270802491
H        -0.33083921168001    3.75147016049158   -0.95807445708021
H         2.16654469082573    2.05921153806174   -2.71426902589014
H         2.41454342485091    0.30753500029833   -2.79587441504995
H         1.03787885775183   -1.20993118759315   -1.33665649829980
H         0.02178977029218    0.81035059452290   -2.41995148420959
H         2.85941882014198    1.20488240090476   -1.33029536980589
12
 energy: -21.563363806553 gnorm: 0.001065244866 xtb: 6.2.3 (830e466)
C         2.14328335277916    1.13362368425630   -2.14558498085663
C         0.73086505713293    0.92977651456824   -1.58335829092916