      -----------------------------------------------------------      
     |                   =====================                   |     
     |                           x T B                           |     
     |                   =====================                   |     
     |                         S. Grimme                         |     
     |          Mulliken Center for Theoretical Chemistry        |     
     |                    University of Bonn                     |     
      -----------------------------------------------------------      

   * xtb version 6.2.3 (830e466) compiled by 'ehlert@majestix' on 2020-03-16

   xtb is free software: you can redistribute it and/or modify it under
   the terms of the GNU Lesser General Public License as published by
   the Free Software Foundation, either version 3 of the License, or
   (at your option) any later version.
   
   xtb is distributed in the hope that it will be useful,
   but WITHOUT ANY WARRANTY; without even the implied warranty of
   MERCHANTABILITY or FITNESS FOR A PARTICULAR PURPOSE.  See the
   GNU Lesser General Public License for more details.
   
   Cite this work as:
   * S. Grimme, C. Bannwarth, P. Shushkov, J. Chem. Theory Comput., 2017,
     13, 1989-2009. DOI: 10.1021/acs.jctc.7b00118
   * C. Bannwarth, S. Ehlert and S. Grimme., J. Chem. Theory Comput., 2019,
     15, 1652-1671. DOI: 10.1021/acs.jctc.8b01176
   * P. Pracht, E. Caldeweyher, S. Ehlert, S. Grimme, ChemRxiv, 2019, preprint.
     DOI: 10.26434/chemrxiv.8326202.v1
   
   for DFT-D4:
   * E. Caldeweyher, C. Bannwarth and S. Grimme, J. Chem. Phys., 2017,
     147, 034112. DOI: 10.1063/1.4993215
   * E. Caldeweyher, S. Ehlert, A. Hansen, H. Neugebauer, S. Spicher,
     C. Bannwarth and S. Grimme, J. Chem. Phys., 2019, 150, 154122.
     DOI: 10.1063/1.5090222
   
   for sTDA-xTB:
   * S. Grimme and C. Bannwarth, J. Chem. Phys., 2016, 145, 054103.
     DOI: 10.1063/1.4959605
   
   in the mass-spec context:
   * V. Asgeirsson, C. Bauer and S. Grimme, Chem. Sci., 2017, 8, 4879.
     DOI: 10.1039/c7sc00601b
   
   for metadynamics refer to:
   * S. Grimme, J. Chem. Theory Comput., 2019, 155, 2847-2862
     DOI: 10.1021/acs.jctc.9b00143
   
   with help from (in alphabetical order)
   C. Bannwarth, F. Bohle, G. Brandenburg, E. Caldeweyher, M. Checinski,
   S. Dohm, S. Ehlert, S. Ehrlich, F. März, H. Neugebauer, J. Pisarek,
   P. Pracht, P. Shushkov, and S. Spicher.
   
 * started run on 2020/12/23 at 21:40:09.376     

           -------------------------------------------------
          |                Calculation Setup                |
           -------------------------------------------------

          program call               : xtb -c 0 -u 0 -a 1.0 --iterations 100 --opt normal --namespace product_2 /scratch/bell/zhao922/YARP/paper-example/potential_product/test/reaction_channel/pp_0/pp_12_0.xyz
          hostname                   : bell-fe05.rcac.purdue.edu
          calculation namespace      : product_2
          coordinate file            : /scratch/bell/zhao922/YARP/paper-example/potential_product/test/reaction_channel/pp_0/pp_12_0.xyz
          omp threads                :                    32
          number of atoms            :                    12
          number of electrons        :                    36
          charge                     :                     0
          spin                       :                   0.0
          first test random number   :      0.08411967342262


molecular fragmentation (1/2 indicates fragments):
112112121211
# atoms in fragment 1/2:     8     4
 fragment masses (1/2) :       60.05       30.03
CMA distance (Bohr)    :   8.324
constraining FC (au)   :  0.0500
           ------------------------------------------------- 
          |                 G F N 2 - x T B                 |
          | Geometry, Frequencies, Noncovalent interactions |
          |            JCTC 2019 parametrisation            |
           ------------------------------------------------- 
             k(s)              :                1.8500
             k(p)              :                2.2300
             k(d)              :                2.2300
             k(f)              :                2.0000
             kEN (H0ij)        :               -2.0000
             D4 a1             :                0.5200
             D4 a2             :                5.0000
             D4 s6             :                1.0000
             D4 s8             :                2.7000
             D4 s9             :                5.0000
             alphaj            :                2.0000

  Z AO/shell   Hii/eV     exponent
  1     Wed Apr 25 08:07:45 CEST 2018   EN: 2.200 GM2: 0.406  GM3: 0.0800  RAES: 1.40
     1s    -10.707211    1.230000
  6     Wed Apr 25 08:07:45 CEST 2018   EN: 2.550 GM2: 0.538  GM3: 0.1500  RAES: 3.00
     2s    -13.970922    2.096432
     2p    -10.063292    1.800000
  8     Wed Apr 25 08:07:45 CEST 2018   EN: 3.440 GM2: 0.452  GM3:-0.0517  RAES: 1.80
     2s    -20.229985    2.439742
     2p    -15.503117    2.137023

           ------------------------------------------------- 
          |        Self-Consistent Charge Iterations        |
           ------------------------------------------------- 

          ...................................................
          :                      SETUP                      :
          :.................................................:
          :  # basis functions                  30          :
          :  # atomic orbitals                  30          :
          :  # shells                           18          :
          :  # electrons                        36          :
          :  max. iterations                   100          :
          :  Hamiltonian                  GFN2-xTB          :
          :  restarted?                      false          :
          :  GBSA solvation                  false          :
          :  PC potential                    false          :
          :  electronic temp.          300.0000000     K    :
          :  accuracy                    1.0000000          :
          :  -> integral cutoff          0.2500000E+02      :
          :  -> integral neglect         0.1000000E-07      :
          :  -> SCF convergence          0.1000000E-05 Eh   :
          :  -> wf. convergence          0.1000000E-03 e    :
          :  Broyden damping             0.4000000          :
          ...................................................

 iter      E             dE          RMSdq      gap      omega  full diag
   1    -21.6291999 -0.216292E+02  0.551E+00    3.40       0.0  T
   2    -21.6635407 -0.343408E-01  0.342E+00    2.47       1.0  T
   3    -21.6685775 -0.503678E-02  0.214E+00    2.73       1.0  T
   4    -21.6827713 -0.141939E-01  0.548E-01    2.41       1.0  T
   5    -21.6846573 -0.188604E-02  0.144E-01    2.38       1.0  T
   6    -21.6847213 -0.639137E-04  0.586E-02    2.44       1.0  T
   7    -21.6847247 -0.344625E-05  0.303E-02    2.43       1.0  T
   8    -21.6847321 -0.742443E-05  0.759E-03    2.43       3.8  T
   9    -21.6847325 -0.391209E-06  0.235E-03    2.43      12.3  T
  10    -21.6847325 -0.162200E-07  0.735E-04    2.43      39.3  T
  11    -21.6847325 -0.186750E-08  0.189E-04    2.43     152.3  T

   *** convergence criteria satisfied after 11 iterations ***

         #    Occupation            Energy/Eh            Energy/eV
      -------------------------------------------------------------
         1        2.0000           -0.7592164             -20.6593
       ...           ...                  ...                  ...
        12        2.0000           -0.5391893             -14.6721
        13        2.0000           -0.5209198             -14.1749
        14        2.0000           -0.4769732             -12.9791
        15        2.0000           -0.4600183             -12.5177
        16        2.0000           -0.4574251             -12.4472
        17        2.0000           -0.4231225             -11.5137
        18        2.0000           -0.3856008             -10.4927 (HOMO)
        19                         -0.2961308              -8.0581 (LUMO)
        20                         -0.2058908              -5.6026
        21                         -0.0590871              -1.6078
        22                          0.0830323               2.2594
        23                          0.0951718               2.5898
       ...                                ...                  ...
        30                          0.5480953              14.9144
      -------------------------------------------------------------
                  HL-Gap            0.0894700 Eh            2.4346 eV
             Fermi-level           -0.3408658 Eh           -9.2754 eV

 SCC (total)                   0 d,  0 h,  0 min,  0.090 sec
 SCC setup                      ...        0 min,  0.000 sec (  0.154%)
 Dispersion                     ...        0 min,  0.000 sec (  0.066%)
 integral evaluation            ...        0 min,  0.002 sec (  1.745%)
 zeroth order Hamiltonian       ...        0 min,  0.000 sec (  0.071%)
 iterations                     ...        0 min,  0.086 sec ( 95.767%)
 molecular gradient             ...        0 min,  0.002 sec (  1.887%)
 printout                       ...        0 min,  0.000 sec (  0.101%)

         :::::::::::::::::::::::::::::::::::::::::::::::::::::
         ::                     SUMMARY                     ::
         :::::::::::::::::::::::::::::::::::::::::::::::::::::
         :: total energy             -21.489646331705 Eh    ::
         :: gradient norm              0.192490542981 Eh/a0 ::
         :: HOMO-LUMO gap              2.434603301507 eV    ::
         ::.................................................::
         :: SCC energy               -21.684732539324 Eh    ::
         :: -> isotropic ES            0.040515781627 Eh    ::
         :: -> anisotropic ES          0.000243791665 Eh    ::
         :: -> anisotropic XC         -0.007302560852 Eh    ::
         :: -> dispersion             -0.005159292529 Eh    ::
         :: repulsion energy           0.195068126639 Eh    ::
         :: add. restraining           0.000000000000 Eh    ::
         :::::::::::::::::::::::::::::::::::::::::::::::::::::

      ----------------------------------------------------------- 
     |                   =====================                   |
     |                        A N C O P T                        |
     |                   =====================                   |
     |               Approximate Normal Coordinate               |
     |                Rational Function Optimizer                |
      ----------------------------------------------------------- 

          ...................................................
          :                      SETUP                      :
          :.................................................:
          :   optimization level            normal          :
          :   max. optcycles                   200          :
          :   ANC micro-cycles                  20          :
          :   degrees of freedom                30          :
          :.................................................:
          :   RF solver                   davidson          :
          :   write xtbopt.log                true          :
          :   linear?                        false          :
          :   energy convergence         0.5000000E-05 Eh   :
          :   grad. convergence          0.1000000E-02 Eh/α :
          :   maximium RF displ.         1.0000000          :
          :   Hlow (freq-cutoff)         0.1000000E-01      :
          :   Hmax (freq-cutoff)         5.0000000          :
          :   S6 in model hess.         20.0000000          :
          ...................................................

generating ANC from model Hessian ...
Using Lindh-Hessian (1995)
 Shifting diagonal of input Hessian by   9.895517050217871E-003
 Lowest  eigenvalues of input Hessian
   -0.000000   -0.000000   -0.000000   -0.000000    0.000000    0.000000
    0.010000    0.010198    0.010400    0.010490    0.010782    0.010927
    0.011114    0.021948    0.025168    0.040401    0.052780    0.060916
 Highest eigenvalues
    1.241716    1.332033    1.469293    1.882082    2.076548    2.123911
 

........................................................................
.............................. CYCLE    1 ..............................
........................................................................
   1    -21.6847325 -0.216847E+02  0.825E-05    2.43       0.0  T
   2    -21.6847325 -0.138698E-10  0.517E-05    2.43     558.8  T
   3    -21.6847325 -0.789058E-11  0.354E-05    2.43     815.8  T
     SCC iter.                  ...        0 min,  0.001 sec
     gradient                   ...        0 min,  0.001 sec
 * total energy  :   -21.4896463 Eh     change       -0.4333160E-08 Eh
   gradient norm :     0.1924911 Eh/α   predicted     0.0000000E+00 (-100.00%)
   displ. norm   :     0.1611374 α      lambda       -0.2401037E-01
   maximum displ.:     0.0712379 α      in ANC's #18, #28, #27, ...

........................................................................
.............................. CYCLE    2 ..............................
........................................................................
   1    -21.7097887 -0.217098E+02  0.426E-01    2.92       0.0  T
   2    -21.7099928 -0.204130E-03  0.274E-01    2.88       1.0  T
   3    -21.7099102  0.826356E-04  0.163E-01    2.82       1.0  T
   4    -21.7100500 -0.139805E-03  0.444E-02    2.80       1.0  T
   5    -21.7100606 -0.106733E-04  0.968E-03    2.81       3.0  T
   6    -21.7100608 -0.141019E-06  0.378E-03    2.81       7.6  T
   7    -21.7100608 -0.404519E-08  0.170E-03    2.82      17.0  T
     SCC iter.                  ...        0 min,  0.002 sec
     gradient                   ...        0 min,  0.001 sec
 * total energy  :   -21.5061608 Eh     change       -0.1651447E-01 Eh
   gradient norm :     0.0757168 Eh/α   predicted    -0.1231690E-01 ( -25.42%)
   displ. norm   :     0.2452875 α      lambda       -0.7982303E-02
   maximum displ.:     0.1680307 α      in ANC's #2, #14, #18, ...

........................................................................
.............................. CYCLE    3 ..............................
........................................................................
   1    -21.7140029 -0.217140E+02  0.461E-01    2.93       0.0  T
   2    -21.7141116 -0.108671E-03  0.295E-01    2.92       1.0  T
   3    -21.7140047  0.106909E-03  0.137E-01    2.87       1.0  T
   4    -21.7141457 -0.141036E-03  0.336E-02    2.88       1.0  T
   5    -21.7141517 -0.597695E-05  0.118E-02    2.88       2.4  T
   6    -21.7141519 -0.207777E-06  0.680E-03    2.88       4.2  T
   7    -21.7141520 -0.117613E-06  0.281E-03    2.89      10.3  T
   8    -21.7141520 -0.103032E-07  0.556E-04    2.89      51.9  T
     SCC iter.                  ...        0 min,  0.002 sec
     gradient                   ...        0 min,  0.001 sec
 * total energy  :   -21.5073686 Eh     change       -0.1207788E-02 Eh
   gradient norm :     0.0368542 Eh/α   predicted    -0.4231281E-02 ( 250.33%)
   displ. norm   :     0.6512246 α      lambda       -0.2161174E-01
   maximum displ.:     0.4793899 α      in ANC's #2, #5, #14, ...

........................................................................
.............................. CYCLE    4 ..............................
........................................................................
   1    -21.6946725 -0.216947E+02  0.121E+00    3.13       0.0  T
   2    -21.6955397 -0.867212E-03  0.754E-01    3.08       1.0  T
   3    -21.6950698  0.469881E-03  0.307E-01    2.97       1.0  T
   4    -21.6957116 -0.641802E-03  0.926E-02    2.97       1.0  T
   5    -21.6957602 -0.486177E-04  0.284E-02    2.99       1.0  T
   6    -21.6957612 -0.919462E-06  0.122E-02    2.99       2.4  T
   7    -21.6957613 -0.138765E-06  0.315E-03    2.99       9.2  T
   8    -21.6957613 -0.180008E-07  0.107E-03    2.99      27.0  T
     SCC iter.                  ...        0 min,  0.002 sec
     gradient                   ...        0 min,  0.001 sec
 * total energy  :   -21.4821212 Eh     change        0.2524735E-01 Eh
   gradient norm :     0.1486719 Eh/α   predicted    -0.1538858E-01 (-160.95%)
   displ. norm   :     0.3942624 α      lambda       -0.4783300E-01
   maximum displ.:     0.2570136 α      in ANC's #2, #5, #28, ...

........................................................................
.............................. CYCLE    5 ..............................
........................................................................
   1    -21.7196970 -0.217197E+02  0.730E-01    2.91       0.0  T
   2    -21.7202672 -0.570150E-03  0.483E-01    2.96       1.0  T
   3    -21.7200582  0.209016E-03  0.284E-01    3.05       1.0  T
   4    -21.7204741 -0.415897E-03  0.686E-02    3.08       1.0  T
   5    -21.7204985 -0.244905E-04  0.187E-02    3.07       1.5  T
   6    -21.7204991 -0.565656E-06  0.859E-03    3.06       3.4  T
   7    -21.7204992 -0.806924E-07  0.275E-03    3.06      10.5  T
   8    -21.7204992 -0.211539E-07  0.126E-03    3.06      23.0  T
     SCC iter.                  ...        0 min,  0.003 sec
     gradient                   ...        0 min,  0.001 sec
 * total energy  :   -21.5098153 Eh     change       -0.2769401E-01 Eh
   gradient norm :     0.0244589 Eh/α   predicted    -0.2763414E-01 (  -0.22%)
   displ. norm   :     0.1121269 α      lambda       -0.1743438E-02
   maximum displ.:     0.0653152 α      in ANC's #2, #7, #8, ...

........................................................................
.............................. CYCLE    6 ..............................
........................................................................
   1    -21.7189559 -0.217190E+02  0.213E-01    2.94       0.0  T
   2    -21.7189717 -0.158016E-04  0.133E-01    2.96       1.0  T
   3    -21.7189675  0.421750E-05  0.348E-02    2.99       1.0  T
   4    -21.7189759 -0.842533E-05  0.141E-02    2.98       2.0  T
   5    -21.7189771 -0.117134E-05  0.501E-03    2.98       5.8  T
   6    -21.7189771 -0.315759E-07  0.219E-03    2.98      13.2  T
     SCC iter.                  ...        0 min,  0.002 sec
     gradient                   ...        0 min,  0.001 sec
 * total energy  :   -21.5106613 Eh     change       -0.8460186E-03 Eh
   gradient norm :     0.0071573 Eh/α   predicted    -0.8826780E-03 (   4.33%)
   displ. norm   :     0.0380896 α      lambda       -0.7575804E-04
   maximum displ.:     0.0200251 α      in ANC's #8, #1, #9, ...

........................................................................
.............................. CYCLE    7 ..............................
........................................................................
   1    -21.7196521 -0.217197E+02  0.595E-02    3.02       0.0  T
   2    -21.7196531 -0.101169E-05  0.377E-02    3.01       1.0  T
   3    -21.7196504  0.273675E-05  0.204E-02    3.01       1.4  T
   4    -21.7196538 -0.342457E-05  0.269E-03    3.01      10.7  T
   5    -21.7196538 -0.289053E-07  0.900E-04    3.01      32.1  T
   6    -21.7196538 -0.685432E-09  0.385E-04    3.01      75.0  T
     SCC iter.                  ...        0 min,  0.002 sec
     gradient                   ...        0 min,  0.001 sec
 * total energy  :   -21.5107172 Eh     change       -0.5590160E-04 Eh
   gradient norm :     0.0021425 Eh/α   predicted    -0.3793360E-04 ( -32.14%)
   displ. norm   :     0.0970547 α      lambda       -0.9083813E-04
   maximum displ.:     0.0502593 α      in ANC's #8, #9, #1, ...

........................................................................
.............................. CYCLE    8 ..............................
........................................................................
   1    -21.7196313 -0.217196E+02  0.142E-01    3.04       0.0  T
   2    -21.7196335 -0.215870E-05  0.877E-02    3.03       1.0  T
   3    -21.7196232  0.103015E-04  0.355E-02    3.03       1.0  T
   4    -21.7196353 -0.120886E-04  0.437E-03    3.03       6.6  T
   5    -21.7196353 -0.416749E-07  0.210E-03    3.03      13.7  T
   6    -21.7196353 -0.230297E-08  0.636E-04    3.03      45.4  T
   7    -21.7196353 -0.642363E-09  0.288E-04    3.03     100.3  T
     SCC iter.                  ...        0 min,  0.089 sec
     gradient                   ...        0 min,  0.001 sec
 * total energy  :   -21.5107842 Eh     change       -0.6704079E-04 Eh
   gradient norm :     0.0055416 Eh/α   predicted    -0.4584819E-04 ( -31.61%)
   displ. norm   :     0.1516150 α      lambda       -0.1020119E-03
   maximum displ.:     0.0765886 α      in ANC's #1, #8, #9, ...

........................................................................
.............................. CYCLE    9 ..............................
........................................................................
   1    -21.7188864 -0.217189E+02  0.220E-01    3.04       0.0  T
   2    -21.7188896 -0.325966E-05  0.136E-01    3.04       1.0  T
   3    -21.7188745  0.151806E-04  0.426E-02    3.03       1.0  T
   4    -21.7188926 -0.181055E-04  0.579E-03    3.04       5.0  T
   5    -21.7188926 -0.451684E-07  0.294E-03    3.04       9.8  T
   6    -21.7188926 -0.637634E-08  0.575E-04    3.04      50.2  T
     SCC iter.                  ...        0 min,  0.002 sec
     gradient                   ...        0 min,  0.001 sec
 * total energy  :   -21.5108531 Eh     change       -0.6887973E-04 Eh
   gradient norm :     0.0084249 Eh/α   predicted    -0.5217911E-04 ( -24.25%)
   displ. norm   :     0.1358517 α      lambda       -0.9568476E-04
   maximum displ.:     0.0811727 α      in ANC's #1, #8, #7, ...

........................................................................
.............................. CYCLE   10 ..............................
........................................................................
   1    -21.7186050 -0.217186E+02  0.182E-01    3.03       0.0  T
   2    -21.7186066 -0.162331E-05  0.112E-01    3.03       1.0  T
   3    -21.7186046  0.196130E-05  0.185E-02    3.03       1.6  T
   4    -21.7186079 -0.327299E-05  0.483E-03    3.03       6.0  T
   5    -21.7186079 -0.272997E-07  0.136E-03    3.03      21.2  T
   6    -21.7186079 -0.218893E-08  0.418E-04    3.03      69.1  T
     SCC iter.                  ...        0 min,  0.005 sec
     gradient                   ...        0 min,  0.003 sec
 * total energy  :   -21.5109280 Eh     change       -0.7491311E-04 Eh
   gradient norm :     0.0067157 Eh/α   predicted    -0.4872539E-04 ( -34.96%)
   displ. norm   :     0.1743184 α      lambda       -0.1426866E-03
   maximum displ.:     0.1152563 α      in ANC's #1, #8, #5, ...

........................................................................
.............................. CYCLE   11 ..............................
........................................................................
   1    -21.7191051 -0.217191E+02  0.227E-01    3.01       0.0  T
   2    -21.7191078 -0.274142E-05  0.138E-01    3.01       1.0  T
   3    -21.7191068  0.970413E-06  0.185E-02    3.02       1.6  T
   4    -21.7191097 -0.290516E-05  0.622E-03    3.02       4.6  T
   5    -21.7191098 -0.610009E-07  0.257E-03    3.02      11.2  T
   6    -21.7191098 -0.661625E-08  0.601E-04    3.02      48.0  T
     SCC iter.                  ...        0 min,  0.087 sec
     gradient                   ...        0 min,  0.001 sec
 * total energy  :   -21.5110288 Eh     change       -0.1007407E-03 Eh
   gradient norm :     0.0037612 Eh/α   predicted    -0.7351232E-04 ( -27.03%)
   displ. norm   :     0.2140955 α      lambda       -0.1087301E-03
   maximum displ.:     0.1448634 α      in ANC's #1, #8, #10, ...

........................................................................
.............................. CYCLE   12 ..............................
........................................................................
   1    -21.7184587 -0.217185E+02  0.297E-01    3.01       0.0  T
   2    -21.7184634 -0.466150E-05  0.182E-01    3.01       1.0  T
   3    -21.7184663 -0.292402E-05  0.105E-02    3.02       2.8  T
   4    -21.7184664 -0.555710E-07  0.586E-03    3.02       4.9  T
   5    -21.7184664 -0.817515E-07  0.214E-03    3.02      13.5  T
   6    -21.7184664 -0.796442E-08  0.825E-04    3.02      35.0  T
   7    -21.7184664 -0.416150E-08  0.396E-04    3.02      73.0  T
     SCC iter.                  ...        0 min,  0.002 sec
     gradient                   ...        0 min,  0.002 sec
 * total energy  :   -21.5110774 Eh     change       -0.4864206E-04 Eh
   gradient norm :     0.0091830 Eh/α   predicted    -0.5685505E-04 (  16.88%)
   displ. norm   :     0.1645371 α      lambda       -0.1740400E-03
   maximum displ.:     0.1413931 α      in ANC's #1, #10, #4, ...

........................................................................
.............................. CYCLE   13 ..............................
........................................................................
   1    -21.7213115 -0.217213E+02  0.168E-01    3.03       0.0  T
   2    -21.7213148 -0.332160E-05  0.101E-01    3.03       1.0  T
   3    -21.7213017  0.131765E-04  0.415E-02    3.04       1.0  T
   4    -21.7213172 -0.155349E-04  0.520E-03    3.03       5.5  T
   5    -21.7213173 -0.659220E-07  0.266E-03    3.03      10.8  T
   6    -21.7213173 -0.256280E-08  0.118E-03    3.03      24.5  T
     SCC iter.                  ...        0 min,  0.003 sec
     gradient                   ...        0 min,  0.086 sec
 * total energy  :   -21.5111648 Eh     change       -0.8745626E-04 Eh
   gradient norm :     0.0046124 Eh/α   predicted    -0.8937695E-04 (   2.20%)
   displ. norm   :     0.2178449 α      lambda       -0.1039216E-03
   maximum displ.:     0.1763089 α      in ANC's #1, #5, #8, ...

........................................................................
.............................. CYCLE   14 ..............................
........................................................................
   1    -21.7195358 -0.217195E+02  0.264E-01    3.02       0.0  T
   2    -21.7195410 -0.519051E-05  0.163E-01    3.03       1.0  T
   3    -21.7195103  0.306964E-04  0.603E-02    3.03       1.0  T
   4    -21.7195469 -0.366333E-04  0.787E-03    3.03       3.7  T
   5    -21.7195470 -0.431758E-07  0.312E-03    3.03       9.3  T
   6    -21.7195470 -0.734464E-08  0.730E-04    3.03      39.5  T
   7    -21.7195470 -0.144533E-08  0.369E-04    3.03      78.3  T
     SCC iter.                  ...        0 min,  0.006 sec
     gradient                   ...        0 min,  0.002 sec
 * total energy  :   -21.5112432 Eh     change       -0.7839280E-04 Eh
   gradient norm :     0.0067403 Eh/α   predicted    -0.5442703E-04 ( -30.57%)
   displ. norm   :     0.2239240 α      lambda       -0.1247491E-03
   maximum displ.:     0.1970295 α      in ANC's #1, #10, #9, ...

........................................................................
.............................. CYCLE   15 ..............................
........................................................................
   1    -21.7189525 -0.217190E+02  0.249E-01    3.07       0.0  T
   2    -21.7189582 -0.571382E-05  0.155E-01    3.07       1.0  T
   3    -21.7189388  0.194365E-04  0.496E-02    3.07       1.0  T
   4    -21.7189632 -0.244942E-04  0.830E-03    3.07       3.5  T
   5    -21.7189633 -0.355109E-07  0.367E-03    3.07       7.9  T
   6    -21.7189633 -0.632216E-08  0.100E-03    3.07      28.9  T
   7    -21.7189633 -0.635275E-08  0.299E-04    3.07      96.4  T
     SCC iter.                  ...        0 min,  0.003 sec
     gradient                   ...        0 min,  0.001 sec
 * total energy  :   -21.5113309 Eh     change       -0.8769645E-04 Eh
   gradient norm :     0.0073142 Eh/α   predicted    -0.6550379E-04 ( -25.31%)
   displ. norm   :     0.1789240 α      lambda       -0.1504480E-03
   maximum displ.:     0.1580042 α      in ANC's #1, #7, #11, ...

........................................................................
.............................. CYCLE   16 ..............................
........................................................................
   1    -21.7203194 -0.217203E+02  0.161E-01    3.11       0.0  T
   2    -21.7203236 -0.426610E-05  0.102E-01    3.10       1.0  T
   3    -21.7203260 -0.241117E-05  0.853E-03    3.09       3.4  T
   4    -21.7203261 -0.777352E-07  0.359E-03    3.10       8.0  T
   5    -21.7203261 -0.197406E-08  0.202E-03    3.10      14.3  T
   6    -21.7203261 -0.179785E-07  0.637E-04    3.10      45.3  T
     SCC iter.                  ...        0 min,  0.003 sec
     gradient                   ...        0 min,  0.001 sec
 * total energy  :   -21.5114089 Eh     change       -0.7799580E-04 Eh
   gradient norm :     0.0062008 Eh/α   predicted    -0.7763024E-04 (  -0.47%)
   displ. norm   :     0.2695245 α      lambda       -0.1236555E-03
   maximum displ.:     0.2288156 α      in ANC's #1, #4, #5, ...

........................................................................
.............................. CYCLE   17 ..............................
........................................................................
   1    -21.7196155 -0.217196E+02  0.264E-01    3.13       0.0  T
   2    -21.7196207 -0.517864E-05  0.162E-01    3.13       1.0  T
   3    -21.7196150  0.561639E-05  0.319E-02    3.13       1.0  T
   4    -21.7196246 -0.951762E-05  0.868E-03    3.13       3.3  T
   5    -21.7196246 -0.330013E-07  0.303E-03    3.13       9.5  T
   6    -21.7196246 -0.234409E-07  0.951E-04    3.13      30.4  T
   7    -21.7196246 -0.408515E-08  0.259E-04    3.13     111.3  T
     SCC iter.                  ...        0 min,  0.296 sec
     gradient                   ...        0 min,  0.093 sec
 * total energy  :   -21.5114920 Eh     change       -0.8304450E-04 Eh
   gradient norm :     0.0063709 Eh/α   predicted    -0.6632176E-04 ( -20.14%)
   displ. norm   :     0.2914015 α      lambda       -0.1214690E-03
   maximum displ.:     0.2416909 α      in ANC's #1, #5, #4, ...

........................................................................
.............................. CYCLE   18 ..............................
........................................................................
   1    -21.7184590 -0.217185E+02  0.243E-01    3.12       0.0  T
   2    -21.7184637 -0.466925E-05  0.149E-01    3.13       1.0  T
   3    -21.7184664 -0.274832E-05  0.114E-02    3.14       2.5  T
   4    -21.7184665 -0.126634E-06  0.714E-03    3.13       4.0  T
   5    -21.7184667 -0.113467E-06  0.293E-03    3.13       9.9  T
   6    -21.7184667 -0.283663E-07  0.120E-03    3.13      24.1  T
     SCC iter.                  ...        0 min,  0.003 sec
     gradient                   ...        0 min,  0.001 sec
 * total energy  :   -21.5115646 Eh     change       -0.7259363E-04 Eh
   gradient norm :     0.0059685 Eh/α   predicted    -0.6589253E-04 (  -9.23%)
   displ. norm   :     0.1994058 α      lambda       -0.1140039E-03
   maximum displ.:     0.1630819 α      in ANC's #1, #7, #5, ...

........................................................................
.............................. CYCLE   19 ..............................
........................................................................
   1    -21.7204468 -0.217204E+02  0.136E-01    3.15       0.0  T
   2    -21.7204485 -0.169330E-05  0.836E-02    3.15       1.0  T
   3    -21.7204488 -0.294654E-06  0.104E-02    3.16       2.8  T
   4    -21.7204495 -0.722108E-06  0.488E-03    3.16       5.9  T
   5    -21.7204495 -0.550570E-07  0.242E-03    3.16      11.9  T
   6    -21.7204495 -0.157887E-07  0.974E-04    3.16      29.6  T
     SCC iter.                  ...        0 min,  0.005 sec
     gradient                   ...        0 min,  0.003 sec
 * total energy  :   -21.5116261 Eh     change       -0.6149015E-04 Eh
   gradient norm :     0.0032532 Eh/α   predicted    -0.5926661E-04 (  -3.62%)
   displ. norm   :     0.1927133 α      lambda       -0.5755823E-04
   maximum displ.:     0.1666555 α      in ANC's #1, #5, #2, ...

........................................................................
.............................. CYCLE   20 ..............................
........................................................................
   1    -21.7199342 -0.217199E+02  0.173E-01    3.17       0.0  T
   2    -21.7199379 -0.367536E-05  0.108E-01    3.17       1.0  T
   3    -21.7199286  0.923737E-05  0.348E-02    3.18       1.0  T
   4    -21.7199406 -0.119845E-04  0.605E-03    3.18       4.8  T
   5    -21.7199407 -0.474720E-07  0.317E-03    3.18       9.1  T
   6    -21.7199407 -0.494297E-08  0.109E-03    3.18      26.5  T
   7    -21.7199407 -0.592715E-08  0.358E-04    3.18      80.6  T
   8    -21.7199407 -0.268596E-09  0.132E-04    3.18     219.3  T
     SCC iter.                  ...        0 min,  0.005 sec
     gradient                   ...        0 min,  0.004 sec
 * total energy  :   -21.5116617 Eh     change       -0.3561942E-04 Eh
   gradient norm :     0.0041972 Eh/α   predicted    -0.2984737E-04 ( -16.20%)
   displ. norm   :     0.1077013 α      lambda       -0.4278167E-04
   maximum displ.:     0.0909277 α      in ANC's #1, #5, #2, ...
 * RMSD in coord.:     0.7349696 α      energy gain  -0.2201535E-01 Eh

generating ANC from model Hessian ...
Using Lindh-Hessian (1995)
 Shifting diagonal of input Hessian by   9.768459528724712E-003
 Lowest  eigenvalues of input Hessian
   -0.000000   -0.000000   -0.000000    0.000000    0.000000    0.000000
    0.010000    0.010297    0.010409    0.010469    0.010948    0.011163
    0.011412    0.020720    0.025340    0.035626    0.047773    0.060480
 Highest eigenvalues
    1.249501    1.265216    1.334092    1.706320    2.131940    2.232611
 

........................................................................
.............................. CYCLE   21 ..............................
........................................................................
   1    -21.7199114 -0.217199E+02  0.815E-02    3.19       0.0  T
   2    -21.7199120 -0.602099E-06  0.496E-02    3.19       1.0  T
   3    -21.7199112  0.794220E-06  0.109E-02    3.20       2.6  T
   4    -21.7199123 -0.109876E-05  0.284E-03    3.20      10.2  T
   5    -21.7199123 -0.228530E-07  0.162E-03    3.20      17.9  T
   6    -21.7199123 -0.865853E-08  0.734E-04    3.20      39.3  T
   7    -21.7199123 -0.138128E-08  0.207E-04    3.20     139.5  T
     SCC iter.                  ...        0 min,  0.006 sec
     gradient                   ...        0 min,  0.093 sec
 * total energy  :   -21.5116849 Eh     change       -0.2319806E-04 Eh
   gradient norm :     0.0050098 Eh/α   predicted     0.0000000E+00 (-100.00%)
   displ. norm   :     0.0524695 α      lambda       -0.5976464E-04
   maximum displ.:     0.0329971 α      in ANC's #2, #7, #1, ...

........................................................................
.............................. CYCLE   22 ..............................
........................................................................
   1    -21.7203237 -0.217203E+02  0.755E-02    3.19       0.0  T
   2    -21.7203247 -0.101842E-05  0.469E-02    3.19       1.0  T
   3    -21.7203239  0.809896E-06  0.131E-02    3.19       2.2  T
   4    -21.7203254 -0.151268E-05  0.363E-03    3.19       7.9  T
   5    -21.7203254 -0.303795E-07  0.197E-03    3.19      14.6  T
   6    -21.7203254 -0.537204E-08  0.751E-04    3.19      38.4  T
     SCC iter.                  ...        0 min,  0.003 sec
     gradient                   ...        0 min,  0.001 sec
 * total energy  :   -21.5116575 Eh     change        0.2737302E-04 Eh
   gradient norm :     0.0052621 Eh/α   predicted    -0.2996580E-04 (-209.47%)
   displ. norm   :     0.1905188 α      lambda       -0.3160323E-03
   maximum displ.:     0.1090749 α      in ANC's #5, #1, #4, ...

........................................................................
.............................. CYCLE   23 ..............................
........................................................................
   1    -21.7220465 -0.217220E+02  0.175E-01    3.21       0.0  T
   2    -21.7220512 -0.471980E-05  0.104E-01    3.19       1.0  T
   3    -21.7220310  0.201882E-04  0.534E-02    3.19       1.0  T
   4    -21.7220553 -0.242743E-04  0.557E-03    3.19       5.2  T
   5    -21.7220553 -0.685864E-07  0.285E-03    3.19      10.1  T
   6    -21.7220553 -0.586904E-08  0.128E-03    3.19      22.5  T
     SCC iter.                  ...        0 min,  0.003 sec
     gradient                   ...        0 min,  0.001 sec
 * total energy  :   -21.5116148 Eh     change        0.4269274E-04 Eh
   gradient norm :     0.0140060 Eh/α   predicted    -0.1637514E-03 (-483.56%)
   displ. norm   :     0.0629917 α      lambda       -0.2982658E-03
   maximum displ.:     0.0276857 α      in ANC's #5, #12, #10, ...

........................................................................
.............................. CYCLE   24 ..............................
........................................................................
   1    -21.7208805 -0.217209E+02  0.890E-02    3.18       0.0  T
   2    -21.7208828 -0.228282E-05  0.539E-02    3.19       1.0  T
   3    -21.7208772  0.561287E-05  0.311E-02    3.19       1.0  T
   4    -21.7208844 -0.723020E-05  0.406E-03    3.19       7.1  T
   5    -21.7208844 -0.436642E-07  0.192E-03    3.19      15.1  T
   6    -21.7208844 -0.221465E-08  0.616E-04    3.19      46.9  T
     SCC iter.                  ...        0 min,  0.094 sec
     gradient                   ...        0 min,  0.001 sec
 * total energy  :   -21.5117755 Eh     change       -0.1606450E-03 Eh
   gradient norm :     0.0025780 Eh/α   predicted    -0.1497264E-03 (  -6.80%)
   displ. norm   :     0.0642464 α      lambda       -0.3649951E-04
   maximum displ.:     0.0286704 α      in ANC's #5, #1, #2, ...

........................................................................
.............................. CYCLE   25 ..............................
........................................................................
   1    -21.7204672 -0.217205E+02  0.733E-02    3.19       0.0  T
   2    -21.7204677 -0.490675E-06  0.452E-02    3.19       1.0  T
   3    -21.7204677  0.581093E-07  0.742E-03    3.19       3.9  T
   4    -21.7204681 -0.453735E-06  0.282E-03    3.19      10.2  T
   5    -21.7204681 -0.885098E-08  0.983E-04    3.19      29.4  T
   6    -21.7204681 -0.261121E-08  0.317E-04    3.19      91.0  T
     SCC iter.                  ...        0 min,  0.002 sec
     gradient                   ...        0 min,  0.001 sec
 * total energy  :   -21.5118059 Eh     change       -0.3048884E-04 Eh
   gradient norm :     0.0014650 Eh/α   predicted    -0.1832523E-04 ( -39.90%)
   displ. norm   :     0.4718129 α      lambda       -0.1225443E-03
   maximum displ.:     0.2174866 α      in ANC's #5, #4, #1, ...

........................................................................
.............................. CYCLE   26 ..............................
........................................................................
   1    -21.7154625 -0.217155E+02  0.508E-01    3.11       0.0  T
   2    -21.7154867 -0.242509E-04  0.314E-01    3.13       1.0  T
   3    -21.7154971 -0.103501E-04  0.379E-02    3.14       1.0  T
   4    -21.7155055 -0.843147E-05  0.198E-02    3.14       1.5  T
   5    -21.7155062 -0.691225E-06  0.455E-03    3.13       6.4  T
   6    -21.7155062 -0.403292E-07  0.173E-03    3.13      16.6  T
   7    -21.7155062 -0.829128E-08  0.960E-04    3.13      30.1  T
   8    -21.7155062 -0.297902E-08  0.410E-04    3.13      70.4  T
     SCC iter.                  ...        0 min,  0.002 sec
     gradient                   ...        0 min,  0.001 sec
 * total energy  :   -21.5117994 Eh     change        0.6588164E-05 Eh
   gradient norm :     0.0168558 Eh/α   predicted    -0.6732589E-04 (*******%)
   displ. norm   :     0.1064116 α      lambda       -0.2133161E-03
   maximum displ.:     0.0668448 α      in ANC's #5, #2, #7, ...

........................................................................
.............................. CYCLE   27 ..............................
........................................................................
   1    -21.7190723 -0.217191E+02  0.122E-01    3.20       0.0  T
   2    -21.7190746 -0.223526E-05  0.756E-02    3.19       1.0  T
   3    -21.7190744  0.171529E-06  0.152E-02    3.19       1.9  T
   4    -21.7190762 -0.182635E-05  0.569E-03    3.19       5.1  T
   5    -21.7190763 -0.373511E-07  0.279E-03    3.19      10.4  T
   6    -21.7190763 -0.292848E-07  0.105E-03    3.19      27.5  T
     SCC iter.                  ...        0 min,  0.002 sec
     gradient                   ...        0 min,  0.001 sec
 * total energy  :   -21.5119179 Eh     change       -0.1185417E-03 Eh
   gradient norm :     0.0051896 Eh/α   predicted    -0.1078666E-03 (  -9.01%)
   displ. norm   :     0.0816976 α      lambda       -0.6451052E-04
   maximum displ.:     0.0449092 α      in ANC's #4, #1, #3, ...

........................................................................
.............................. CYCLE   28 ..............................
........................................................................
   1    -21.7202159 -0.217202E+02  0.904E-02    3.21       0.0  T
   2    -21.7202167 -0.800334E-06  0.561E-02    3.20       1.0  T
   3    -21.7202160  0.687179E-06  0.117E-02    3.20       2.5  T
   4    -21.7202173 -0.128414E-05  0.325E-03    3.20       8.9  T
   5    -21.7202173 -0.748738E-08  0.157E-03    3.20      18.3  T
   6    -21.7202173 -0.924467E-08  0.378E-04    3.20      76.4  T
     SCC iter.                  ...        0 min,  0.092 sec
     gradient                   ...        0 min,  0.001 sec
 * total energy  :   -21.5119722 Eh     change       -0.5432387E-04 Eh
   gradient norm :     0.0023972 Eh/α   predicted    -0.3247174E-04 ( -40.23%)
   displ. norm   :     0.3431425 α      lambda       -0.1561015E-03
   maximum displ.:     0.1887215 α      in ANC's #4, #1, #3, ...

........................................................................
.............................. CYCLE   29 ..............................
........................................................................
   1    -21.7206344 -0.217206E+02  0.372E-01    3.23       0.0  T
   2    -21.7206473 -0.128297E-04  0.231E-01    3.23       1.0  T
   3    -21.7206537 -0.645986E-05  0.232E-02    3.24       1.2  T
   4    -21.7206564 -0.270442E-05  0.130E-02    3.23       2.2  T
   5    -21.7206565 -0.887907E-07  0.557E-03    3.23       5.2  T
   6    -21.7206567 -0.235262E-06  0.121E-03    3.23      23.9  T
   7    -21.7206567 -0.322719E-08  0.629E-04    3.23      45.9  T
   8    -21.7206567 -0.135226E-08  0.234E-04    3.23     123.2  T
     SCC iter.                  ...        0 min,  0.002 sec
     gradient                   ...        0 min,  0.001 sec
 * total energy  :   -21.5121038 Eh     change       -0.1315852E-03 Eh
   gradient norm :     0.0047504 Eh/α   predicted    -0.8724099E-04 ( -33.70%)
   displ. norm   :     0.6274929 α      lambda       -0.2419485E-03
   maximum displ.:     0.3160730 α      in ANC's #4, #1, #3, ...

........................................................................
.............................. CYCLE   30 ..............................
........................................................................
   1    -21.7154256 -0.217154E+02  0.648E-01    3.20       0.0  T
   2    -21.7154654 -0.397486E-04  0.402E-01    3.21       1.0  T
   3    -21.7154903 -0.249799E-04  0.340E-02    3.23       1.0  T
   4    -21.7154932 -0.288236E-05  0.208E-02    3.22       1.4  T
   5    -21.7154937 -0.516322E-06  0.615E-03    3.22       4.7  T
   6    -21.7154939 -0.169152E-06  0.306E-03    3.22       9.4  T
   7    -21.7154940 -0.548691E-07  0.138E-03    3.22      20.9  T
   8    -21.7154940 -0.568247E-08  0.531E-04    3.22      54.4  T
     SCC iter.                  ...        0 min,  0.094 sec
     gradient                   ...        0 min,  0.001 sec
 * total energy  :   -21.5121240 Eh     change       -0.2014929E-04 Eh
   gradient norm :     0.0166875 Eh/α   predicted    -0.1685865E-03 ( 736.69%)
   displ. norm   :     0.1822491 α      lambda       -0.4055969E-03
   maximum displ.:     0.1072891 α      in ANC's #4, #3, #5, ...

........................................................................
.............................. CYCLE   31 ..............................
........................................................................
   1    -21.7210248 -0.217210E+02  0.217E-01    3.25       0.0  T
   2    -21.7210311 -0.631418E-05  0.135E-01    3.24       1.0  T
   3    -21.7210309  0.145905E-06  0.219E-02    3.25       1.3  T
   4    -21.7210347 -0.376467E-05  0.849E-03    3.25       3.4  T
   5    -21.7210349 -0.180396E-06  0.414E-03    3.25       7.0  T
   6    -21.7210349 -0.183776E-07  0.103E-03    3.24      28.0  T
   7    -21.7210349 -0.380951E-08  0.543E-04    3.24      53.2  T
     SCC iter.                  ...        0 min,  0.002 sec
     gradient                   ...        0 min,  0.001 sec
 * total energy  :   -21.5122922 Eh     change       -0.1682714E-03 Eh
   gradient norm :     0.0037771 Eh/α   predicted    -0.2095340E-03 (  24.52%)
   displ. norm   :     0.2106841 α      lambda       -0.1018685E-03
   maximum displ.:     0.1137234 α      in ANC's #4, #1, #2, ...

........................................................................
.............................. CYCLE   32 ..............................
........................................................................
   1    -21.7209192 -0.217209E+02  0.202E-01    3.27       0.0  T
   2    -21.7209226 -0.341829E-05  0.125E-01    3.27       1.0  T
   3    -21.7209234 -0.740680E-06  0.153E-02    3.28       1.9  T
   4    -21.7209249 -0.155044E-05  0.659E-03    3.27       4.4  T
   5    -21.7209249  0.237371E-07  0.378E-03    3.27       7.6  T
   6    -21.7209250 -0.944423E-07  0.741E-04    3.27      39.0  T
   7    -21.7209250 -0.139394E-08  0.377E-04    3.27      76.5  T
     SCC iter.                  ...        0 min,  0.002 sec
     gradient                   ...        0 min,  0.001 sec
 * total energy  :   -21.5123765 Eh     change       -0.8428555E-04 Eh
   gradient norm :     0.0023210 Eh/α   predicted    -0.5319604E-04 ( -36.89%)
   displ. norm   :     0.6191986 α      lambda       -0.2234204E-03
   maximum displ.:     0.3117678 α      in ANC's #1, #3, #2, ...

........................................................................
.............................. CYCLE   33 ..............................
........................................................................
   1    -21.7160191 -0.217160E+02  0.606E-01    3.26       0.0  T
   2    -21.7160542 -0.350573E-04  0.376E-01    3.28       1.0  T
   3    -21.7160666 -0.124095E-04  0.424E-02    3.31       1.0  T
   4    -21.7160771 -0.105135E-04  0.205E-02    3.30       1.4  T
   5    -21.7160772 -0.496417E-07  0.107E-02    3.30       2.7  T
   6    -21.7160779 -0.726300E-06  0.323E-03    3.30       8.9  T
   7    -21.7160779 -0.326539E-07  0.125E-03    3.30      23.2  T
   8    -21.7160779 -0.418301E-08  0.601E-04    3.30      48.1  T
   9    -21.7160779 -0.155781E-08  0.190E-04    3.30     152.0  T
     SCC iter.                  ...        0 min,  0.003 sec
     gradient                   ...        0 min,  0.091 sec
 * total energy  :   -21.5123747 Eh     change        0.1809156E-05 Eh
   gradient norm :     0.0125042 Eh/α   predicted    -0.1545365E-03 (*******%)
   displ. norm   :     0.2629137 α      lambda       -0.3048515E-03
   maximum displ.:     0.1331510 α      in ANC's #1, #4, #3, ...

........................................................................
.............................. CYCLE   34 ..............................
........................................................................
   1    -21.7211866 -0.217212E+02  0.262E-01    3.33       0.0  T
   2    -21.7211941 -0.751448E-05  0.162E-01    3.32       1.0  T
   3    -21.7211876  0.650508E-05  0.352E-02    3.31       1.0  T
   4    -21.7211990 -0.113557E-04  0.973E-03    3.31       3.0  T
   5    -21.7211991 -0.159302E-06  0.514E-03    3.31       5.6  T
   6    -21.7211992 -0.519311E-07  0.182E-03    3.31      15.9  T
   7    -21.7211992 -0.118041E-07  0.687E-04    3.31      42.0  T
     SCC iter.                  ...        0 min,  0.002 sec
     gradient                   ...        0 min,  0.001 sec
 * total energy  :   -21.5124836 Eh     change       -0.1089206E-03 Eh
   gradient norm :     0.0017483 Eh/α   predicted    -0.1629647E-03 (  49.62%)
   displ. norm   :     0.1371945 α      lambda       -0.2846309E-04
   maximum displ.:     0.0810027 α      in ANC's #3, #4, #1, ...

........................................................................
.............................. CYCLE   35 ..............................
........................................................................
   1    -21.7205940 -0.217206E+02  0.151E-01    3.31       0.0  T
   2    -21.7205964 -0.240937E-05  0.939E-02    3.32       1.0  T
   3    -21.7205961  0.331270E-06  0.152E-02    3.32       1.9  T
   4    -21.7205980 -0.192239E-05  0.550E-03    3.32       5.2  T
   5    -21.7205980 -0.292082E-07  0.286E-03    3.32      10.1  T
   6    -21.7205981 -0.368759E-07  0.760E-04    3.32      38.0  T
   7    -21.7205981 -0.127690E-08  0.261E-04    3.32     110.6  T
     SCC iter.                  ...        0 min,  0.002 sec
     gradient                   ...        0 min,  0.091 sec
 * total energy  :   -21.5125159 Eh     change       -0.3228692E-04 Eh
   gradient norm :     0.0020482 Eh/α   predicted    -0.1434924E-04 ( -55.56%)
   displ. norm   :     0.2696696 α      lambda       -0.7757638E-04
   maximum displ.:     0.1747914 α      in ANC's #3, #4, #1, ...

........................................................................
.............................. CYCLE   36 ..............................
........................................................................
   1    -21.7187660 -0.217188E+02  0.341E-01    3.32       0.0  T
   2    -21.7187790 -0.130764E-04  0.214E-01    3.33       1.0  T
   3    -21.7187770  0.206509E-05  0.359E-02    3.35       1.0  T
   4    -21.7187882 -0.111833E-04  0.122E-02    3.34       2.4  T
   5    -21.7187883 -0.136657E-06  0.603E-03    3.34       4.8  T
   6    -21.7187885 -0.163536E-06  0.165E-03    3.34      17.5  T
   7    -21.7187885 -0.640227E-08  0.570E-04    3.34      50.7  T
   8    -21.7187885 -0.980243E-09  0.284E-04    3.34     101.5  T
     SCC iter.                  ...        0 min,  0.002 sec
     gradient                   ...        0 min,  0.001 sec
 * total energy  :   -21.5125351 Eh     change       -0.1920764E-04 Eh
   gradient norm :     0.0076685 Eh/α   predicted    -0.4160700E-04 ( 116.62%)
   displ. norm   :     0.0622840 α      lambda       -0.7342010E-04
   maximum displ.:     0.0359649 α      in ANC's #2, #1, #7, ...

........................................................................
.............................. CYCLE   37 ..............................
........................................................................
   1    -21.7196214 -0.217196E+02  0.566E-02    3.34       0.0  T
   2    -21.7196220 -0.666619E-06  0.358E-02    3.33       1.0  T
   3    -21.7196208  0.120517E-05  0.130E-02    3.33       2.2  T
   4    -21.7196225 -0.160950E-05  0.227E-03    3.33      12.7  T
   5    -21.7196225 -0.145504E-07  0.113E-03    3.33      25.7  T
     SCC iter.                  ...        0 min,  0.001 sec
     gradient                   ...        0 min,  0.001 sec
 * total energy  :   -21.5125842 Eh     change       -0.4909056E-04 Eh
   gradient norm :     0.0037945 Eh/α   predicted    -0.3685398E-04 ( -24.93%)
   displ. norm   :     0.1292914 α      lambda       -0.8647430E-04
   maximum displ.:     0.0770816 α      in ANC's #3, #7, #4, ...

........................................................................
.............................. CYCLE   38 ..............................
........................................................................
   1    -21.7208301 -0.217208E+02  0.150E-01    3.34       0.0  T
   2    -21.7208331 -0.300272E-05  0.945E-02    3.34       1.0  T
   3    -21.7208265  0.657034E-05  0.305E-02    3.34       1.0  T
   4    -21.7208357 -0.921522E-05  0.545E-03    3.34       5.3  T
   5    -21.7208357 -0.150461E-07  0.144E-03    3.34      20.1  T
   6    -21.7208357 -0.518703E-08  0.641E-04    3.34      45.1  T
   7    -21.7208357 -0.118533E-08  0.300E-04    3.34      96.2  T
     SCC iter.                  ...        0 min,  0.002 sec
     gradient                   ...        0 min,  0.001 sec
 * total energy  :   -21.5126500 Eh     change       -0.6577014E-04 Eh
   gradient norm :     0.0040768 Eh/α   predicted    -0.4395912E-04 ( -33.16%)
   displ. norm   :     0.4336519 α      lambda       -0.1838236E-03
   maximum displ.:     0.3203647 α      in ANC's #3, #4, #7, ...

........................................................................
.............................. CYCLE   39 ..............................
........................................................................
   1    -21.7170164 -0.217170E+02  0.538E-01    3.31       0.0  T
   2    -21.7170470 -0.305815E-04  0.337E-01    3.31       1.0  T
   3    -21.7170154  0.316300E-04  0.757E-02    3.32       1.0  T
   4    -21.7170705 -0.551137E-04  0.190E-02    3.32       1.5  T
   5    -21.7170707 -0.220212E-06  0.635E-03    3.32       4.5  T
   6    -21.7170709 -0.160204E-06  0.240E-03    3.32      12.0  T
   7    -21.7170709 -0.153330E-07  0.956E-04    3.32      30.2  T
     SCC iter.                  ...        0 min,  0.003 sec
     gradient                   ...        0 min,  0.001 sec
 * total energy  :   -21.5127073 Eh     change       -0.5732714E-04 Eh
   gradient norm :     0.0138003 Eh/α   predicted    -0.1091869E-03 (  90.46%)
   displ. norm   :     0.0942200 α      lambda       -0.2223372E-03
   maximum displ.:     0.0569719 α      in ANC's #3, #2, #7, ...

........................................................................
.............................. CYCLE   40 ..............................
........................................................................
   1    -21.7208614 -0.217209E+02  0.888E-02    3.37       0.0  T
   2    -21.7208624 -0.101960E-05  0.545E-02    3.36       1.0  T
   3    -21.7208626 -0.189029E-06  0.607E-03    3.35       4.8  T
   4    -21.7208627 -0.815750E-07  0.389E-03    3.35       7.4  T
   5    -21.7208628 -0.102340E-06  0.123E-03    3.35      23.5  T
   6    -21.7208628 -0.157909E-08  0.557E-04    3.35      51.8  T
     SCC iter.                  ...        0 min,  0.003 sec
     gradient                   ...        0 min,  0.001 sec
 * total energy  :   -21.5128006 Eh     change       -0.9326115E-04 Eh
   gradient norm :     0.0048942 Eh/α   predicted    -0.1121556E-03 (  20.26%)
   displ. norm   :     0.1534058 α      lambda       -0.7752312E-04
   maximum displ.:     0.1135107 α      in ANC's #3, #4, #7, ...

........................................................................
.............................. CYCLE   41 ..............................
........................................................................
   1    -21.7203745 -0.217204E+02  0.189E-01    3.34       0.0  T
   2    -21.7203779 -0.345094E-05  0.118E-01    3.34       1.0  T
   3    -21.7203797 -0.175413E-05  0.113E-02    3.34       2.6  T
   4    -21.7203802 -0.537205E-06  0.676E-03    3.34       4.3  T
   5    -21.7203803 -0.142366E-06  0.182E-03    3.34      15.9  T
   6    -21.7203803 -0.568266E-08  0.859E-04    3.34      33.6  T
     SCC iter.                  ...        0 min,  0.002 sec
     gradient                   ...        0 min,  0.001 sec
 * total energy  :   -21.5128449 Eh     change       -0.4429607E-04 Eh
   gradient norm :     0.0035807 Eh/α   predicted    -0.3967568E-04 ( -10.43%)
   displ. norm   :     0.2802040 α      lambda       -0.8382634E-04
   maximum displ.:     0.1883374 α      in ANC's #3, #4, #7, ...

........................................................................
.............................. CYCLE   42 ..............................
........................................................................
   1    -21.7174661 -0.217175E+02  0.342E-01    3.32       0.0  T
   2    -21.7174783 -0.121630E-04  0.215E-01    3.33       1.0  T
   3    -21.7174831 -0.479564E-05  0.239E-02    3.34       1.2  T
   4    -21.7174864 -0.332205E-05  0.127E-02    3.33       2.3  T
   5    -21.7174867 -0.343132E-06  0.455E-03    3.33       6.3  T
   6    -21.7174868 -0.669962E-07  0.174E-03    3.33      16.6  T
   7    -21.7174868 -0.115205E-07  0.805E-04    3.33      35.9  T
   8    -21.7174868 -0.198942E-08  0.353E-04    3.33      81.8  T
     SCC iter.                  ...        0 min,  0.002 sec
     gradient                   ...        0 min,  0.001 sec
 * total energy  :   -21.5128527 Eh     change       -0.7855748E-05 Eh
   gradient norm :     0.0097409 Eh/α   predicted    -0.4520156E-04 ( 475.39%)
   displ. norm   :     0.0842563 α      lambda       -0.1207915E-03
   maximum displ.:     0.0552734 α      in ANC's #3, #4, #7, ...
 * RMSD in coord.:     0.8186620 α      energy gain  -0.1191042E-02 Eh

generating ANC from model Hessian ...
Using Lindh-Hessian (1995)
 Shifting diagonal of input Hessian by   9.546361328626147E-003
 Lowest  eigenvalues of input Hessian
   -0.000000   -0.000000    0.000000    0.000000    0.000000    0.000000
    0.010000    0.010131    0.010192    0.010364    0.010791    0.011197
    0.011757    0.020604    0.023487    0.038623    0.046136    0.060534
 Highest eigenvalues
    1.250261    1.256449    1.339904    1.708465    2.136889    2.217912
 

........................................................................
.............................. CYCLE   43 ..............................
........................................................................
   1    -21.7205091 -0.217205E+02  0.128E-01    3.34       0.0  T
   2    -21.7205111 -0.201473E-05  0.805E-02    3.34       1.0  T
   3    -21.7205122 -0.111607E-05  0.635E-03    3.34       4.5  T
   4    -21.7205123 -0.310587E-07  0.428E-03    3.34       6.7  T
   5    -21.7205123 -0.794843E-07  0.188E-03    3.34      15.4  T
   6    -21.7205123 -0.838761E-08  0.398E-04    3.34      72.5  T
   7    -21.7205123 -0.175103E-09  0.209E-04    3.34     137.9  T
     SCC iter.                  ...        0 min,  0.002 sec
     gradient                   ...        0 min,  0.091 sec
 * total energy  :   -21.5129029 Eh     change       -0.5021823E-04 Eh
   gradient norm :     0.0058731 Eh/α   predicted     0.0000000E+00 (-100.00%)
   displ. norm   :     0.0488901 α      lambda       -0.5847431E-04
   maximum displ.:     0.0295923 α      in ANC's #7, #2, #4, ...

........................................................................
.............................. CYCLE   44 ..............................
........................................................................
   1    -21.7210145 -0.217210E+02  0.740E-02    3.36       0.0  T
   2    -21.7210153 -0.804942E-06  0.463E-02    3.36       1.0  T
   3    -21.7210150  0.252256E-06  0.102E-02    3.36       2.8  T
   4    -21.7210159 -0.827109E-06  0.311E-03    3.36       9.3  T
   5    -21.7210159 -0.765700E-08  0.204E-03    3.36      14.2  T
   6    -21.7210159 -0.179379E-07  0.357E-04    3.36      80.8  T
     SCC iter.                  ...        0 min,  0.004 sec
     gradient                   ...        0 min,  0.001 sec
 * total energy  :   -21.5128108 Eh     change        0.9216462E-04 Eh
   gradient norm :     0.0069366 Eh/α   predicted    -0.2930758E-04 (-131.80%)
   displ. norm   :     0.0779577 α      lambda       -0.3135517E-03
   maximum displ.:     0.0434575 α      in ANC's #2, #4, #8, ...

........................................................................
.............................. CYCLE   45 ..............................
........................................................................
   1    -21.7227042 -0.217227E+02  0.986E-02    3.40       0.0  T
   2    -21.7227055 -0.128862E-05  0.609E-02    3.39       1.0  T
   3    -21.7227060 -0.509062E-06  0.559E-03    3.39       5.2  T
   4    -21.7227061 -0.493007E-07  0.353E-03    3.39       8.2  T
   5    -21.7227061 -0.428439E-07  0.193E-03    3.39      15.0  T
   6    -21.7227061 -0.965422E-08  0.685E-04    3.39      42.2  T
     SCC iter.                  ...        0 min,  0.092 sec
     gradient                   ...        0 min,  0.001 sec
 * total energy  :   -21.5129104 Eh     change       -0.9959415E-04 Eh
   gradient norm :     0.0090997 Eh/α   predicted    -0.1577276E-03 (  58.37%)
   displ. norm   :     0.0251805 α      lambda       -0.9665855E-04
   maximum displ.:     0.0157607 α      in ANC's #8, #12, #22, ...

........................................................................
.............................. CYCLE   46 ..............................
........................................................................
   1    -21.7211295 -0.217211E+02  0.433E-02    3.35       0.0  T
   2    -21.7211301 -0.537765E-06  0.269E-02    3.36       1.1  T
   3    -21.7211302 -0.134210E-06  0.402E-03    3.36       7.2  T
   4    -21.7211302 -0.373407E-07  0.176E-03    3.36      16.4  T
   5    -21.7211302 -0.101568E-07  0.932E-04    3.36      31.0  T
     SCC iter.                  ...        0 min,  0.001 sec
     gradient                   ...        0 min,  0.001 sec
 * total energy  :   -21.5129478 Eh     change       -0.3743881E-04 Eh
   gradient norm :     0.0019408 Eh/α   predicted    -0.4835913E-04 (  29.17%)
   displ. norm   :     0.0473773 α      lambda       -0.1909950E-04
   maximum displ.:     0.0379369 α      in ANC's #2, #8, #7, ...

........................................................................
.............................. CYCLE   47 ..............................
........................................................................
   1    -21.7214039 -0.217214E+02  0.630E-02    3.37       0.0  T
   2    -21.7214041 -0.223559E-06  0.388E-02    3.37       1.0  T
   3    -21.7214041 -0.323657E-07  0.389E-03    3.37       7.4  T
   4    -21.7214042 -0.957651E-07  0.166E-03    3.37      17.4  T
   5    -21.7214042  0.603350E-09  0.888E-04    3.37      32.5  T
   6    -21.7214042 -0.527885E-08  0.245E-04    3.37     117.9  T
     SCC iter.                  ...        0 min,  0.001 sec
     gradient                   ...        0 min,  0.291 sec
 * total energy  :   -21.5129639 Eh     change       -0.1605445E-04 Eh
   gradient norm :     0.0011827 Eh/α   predicted    -0.9557875E-05 ( -40.47%)
   displ. norm   :     0.0595453 α      lambda       -0.1170569E-04
   maximum displ.:     0.0469913 α      in ANC's #2, #8, #9, ...

........................................................................
.............................. CYCLE   48 ..............................
........................................................................
   1    -21.7213743 -0.217214E+02  0.752E-02    3.38       0.0  T
   2    -21.7213746 -0.324669E-06  0.464E-02    3.38       1.0  T
   3    -21.7213747 -0.982202E-07  0.405E-03    3.38       7.1  T
   4    -21.7213748 -0.802967E-07  0.201E-03    3.38      14.4  T
   5    -21.7213748 -0.148068E-08  0.776E-04    3.38      37.2  T
   6    -21.7213748 -0.397506E-08  0.295E-04    3.38      97.9  T
     SCC iter.                  ...        0 min,  0.002 sec
     gradient                   ...        0 min,  0.001 sec
 * total energy  :   -21.5129795 Eh     change       -0.1565026E-04 Eh
   gradient norm :     0.0015058 Eh/α   predicted    -0.5861745E-05 ( -62.55%)
   displ. norm   :     0.1338278 α      lambda       -0.2447722E-04
   maximum displ.:     0.1046719 α      in ANC's #2, #3, #9, ...

........................................................................
.............................. CYCLE   49 ..............................
........................................................................
   1    -21.7207100 -0.217207E+02  0.177E-01    3.39       0.0  T
   2    -21.7207118 -0.186465E-05  0.110E-01    3.39       1.0  T
   3    -21.7207126 -0.797921E-06  0.846E-03    3.40       3.4  T
   4    -21.7207129 -0.254189E-06  0.481E-03    3.39       6.0  T
   5    -21.7207129 -0.300736E-07  0.185E-03    3.39      15.6  T
   6    -21.7207129 -0.207061E-07  0.788E-04    3.39      36.6  T
   7    -21.7207129 -0.204361E-08  0.237E-04    3.39     122.0  T
     SCC iter.                  ...        0 min,  0.002 sec
     gradient                   ...        0 min,  0.091 sec
 * total energy  :   -21.5130051 Eh     change       -0.2561639E-04 Eh
   gradient norm :     0.0021668 Eh/α   predicted    -0.1233792E-04 ( -51.84%)
   displ. norm   :     0.0785496 α      lambda       -0.1659623E-04
   maximum displ.:     0.0616997 α      in ANC's #2, #9, #3, ...

........................................................................
.............................. CYCLE   50 ..............................
........................................................................
   1    -21.7206781 -0.217207E+02  0.108E-01    3.40       0.0  T
   2    -21.7206789 -0.814083E-06  0.668E-02    3.40       1.0  T
   3    -21.7206792 -0.324168E-06  0.606E-03    3.41       4.8  T
   4    -21.7206794 -0.169951E-06  0.320E-03    3.40       9.0  T
   5    -21.7206794 -0.378995E-08  0.142E-03    3.40      20.4  T
   6    -21.7206794 -0.137321E-07  0.488E-04    3.40      59.1  T
   7    -21.7206794 -0.700766E-09  0.195E-04    3.40     147.9  T
     SCC iter.                  ...        0 min,  0.002 sec
     gradient                   ...        0 min,  0.001 sec
 * total energy  :   -21.5130182 Eh     change       -0.1307780E-04 Eh
   gradient norm :     0.0023190 Eh/α   predicted    -0.8351286E-05 ( -36.14%)
   displ. norm   :     0.1188869 α      lambda       -0.2248987E-04
   maximum displ.:     0.0946334 α      in ANC's #2, #3, #9, ...

........................................................................
.............................. CYCLE   51 ..............................
........................................................................
   1    -21.7206763 -0.217207E+02  0.164E-01    3.41       0.0  T
   2    -21.7206781 -0.176577E-05  0.102E-01    3.41       1.0  T
   3    -21.7206789 -0.813142E-06  0.837E-03    3.42       3.4  T
   4    -21.7206792 -0.271119E-06  0.470E-03    3.42       6.1  T
   5    -21.7206792 -0.168591E-07  0.201E-03    3.42      14.4  T
   6    -21.7206792 -0.257226E-07  0.719E-04    3.42      40.1  T
   7    -21.7206792 -0.175850E-08  0.329E-04    3.42      87.8  T
     SCC iter.                  ...        0 min,  0.092 sec
     gradient                   ...        0 min,  0.002 sec
 * total energy  :   -21.5130344 Eh     change       -0.1622821E-04 Eh
   gradient norm :     0.0024067 Eh/α   predicted    -0.1140391E-04 ( -29.73%)
   displ. norm   :     0.1041139 α      lambda       -0.2085068E-04
   maximum displ.:     0.0818745 α      in ANC's #2, #3, #9, ...

........................................................................
.............................. CYCLE   52 ..............................
........................................................................
   1    -21.7210075 -0.217210E+02  0.143E-01    3.42       0.0  T
   2    -21.7210087 -0.124767E-05  0.884E-02    3.42       1.0  T
   3    -21.7210092 -0.479640E-06  0.766E-03    3.42       3.8  T
   4    -21.7210095 -0.286258E-06  0.421E-03    3.42       6.9  T
   5    -21.7210095 -0.329259E-07  0.178E-03    3.42      16.2  T
   6    -21.7210096 -0.136149E-07  0.642E-04    3.42      45.0  T
   7    -21.7210096 -0.150289E-08  0.316E-04    3.42      91.2  T
     SCC iter.                  ...        0 min,  0.002 sec
     gradient                   ...        0 min,  0.001 sec
 * total energy  :   -21.5130502 Eh     change       -0.1572883E-04 Eh
   gradient norm :     0.0015626 Eh/α   predicted    -0.1053868E-04 ( -33.00%)
   displ. norm   :     0.1838738 α      lambda       -0.1864027E-04
   maximum displ.:     0.1373401 α      in ANC's #2, #3, #9, ...

........................................................................
.............................. CYCLE   53 ..............................
........................................................................
   1    -21.7207495 -0.217207E+02  0.250E-01    3.43       0.0  T
   2    -21.7207531 -0.365300E-05  0.155E-01    3.42       1.0  T
   3    -21.7207552 -0.208379E-05  0.104E-02    3.42       2.8  T
   4    -21.7207554 -0.158470E-06  0.648E-03    3.42       4.5  T
   5    -21.7207555 -0.836099E-07  0.245E-03    3.42      11.8  T
   6    -21.7207555 -0.306979E-07  0.100E-03    3.42      28.9  T
   7    -21.7207555 -0.443838E-08  0.501E-04    3.42      57.6  T
     SCC iter.                  ...        0 min,  0.092 sec
     gradient                   ...        0 min,  0.001 sec
 * total energy  :   -21.5130663 Eh     change       -0.1615619E-04 Eh
   gradient norm :     0.0026424 Eh/α   predicted    -0.9458216E-05 ( -41.46%)
   displ. norm   :     0.0702393 α      lambda       -0.2550386E-04
   maximum displ.:     0.0427432 α      in ANC's #7, #4, #6, ...

........................................................................
.............................. CYCLE   54 ..............................
........................................................................
   1    -21.7226542 -0.217227E+02  0.644E-02    3.44       0.0  T
   2    -21.7226547 -0.546222E-06  0.391E-02    3.44       1.0  T
   3    -21.7226545  0.219933E-06  0.724E-03    3.43       4.0  T
   4    -21.7226549 -0.399346E-06  0.289E-03    3.43      10.0  T
   5    -21.7226550 -0.441495E-07  0.111E-03    3.43      25.9  T
   6    -21.7226550 -0.118421E-08  0.413E-04    3.43      69.9  T
   7    -21.7226550 -0.396923E-09  0.192E-04    3.43     150.5  T
     SCC iter.                  ...        0 min,  0.002 sec
     gradient                   ...        0 min,  0.001 sec
 * total energy  :   -21.5130633 Eh     change        0.3070570E-05 Eh
   gradient norm :     0.0041529 Eh/α   predicted    -0.1281346E-04 (-517.30%)
   displ. norm   :     0.0566393 α      lambda       -0.2421984E-04
   maximum displ.:     0.0412558 α      in ANC's #2, #3, #9, ...

........................................................................
.............................. CYCLE   55 ..............................
........................................................................
   1    -21.7213771 -0.217214E+02  0.777E-02    3.43       0.0  T
   2    -21.7213775 -0.460361E-06  0.480E-02    3.43       1.0  T
   3    -21.7213770  0.554848E-06  0.942E-03    3.43       3.1  T
   4    -21.7213778 -0.833401E-06  0.248E-03    3.43      11.6  T
   5    -21.7213778 -0.910823E-08  0.965E-04    3.43      29.9  T
     SCC iter.                  ...        0 min,  0.001 sec
     gradient                   ...        0 min,  0.091 sec
 * total energy  :   -21.5130773 Eh     change       -0.1404166E-04 Eh
   gradient norm :     0.0007865 Eh/α   predicted    -0.1214784E-04 ( -13.49%)
   displ. norm   :     0.0676188 α      lambda       -0.3279301E-05
   maximum displ.:     0.0391555 α      in ANC's #3, #2, #9, ...

........................................................................
.............................. CYCLE   56 ..............................
........................................................................
   1    -21.7209660 -0.217210E+02  0.879E-02    3.43       0.0  T
   2    -21.7209664 -0.415227E-06  0.542E-02    3.43       1.0  T
   3    -21.7209657  0.659930E-06  0.100E-02    3.43       2.9  T
   4    -21.7209667 -0.974019E-06  0.245E-03    3.43      11.8  T
   5    -21.7209667 -0.305670E-08  0.803E-04    3.43      36.0  T
   6    -21.7209667 -0.156325E-08  0.317E-04    3.43      91.1  T
     SCC iter.                  ...        0 min,  0.002 sec
     gradient                   ...        0 min,  0.002 sec
 * total energy  :   -21.5130806 Eh     change       -0.3321492E-05 Eh
   gradient norm :     0.0014785 Eh/α   predicted    -0.1641884E-05 ( -50.57%)
   displ. norm   :     0.0865848 α      lambda       -0.6264280E-05
   maximum displ.:     0.0639522 α      in ANC's #3, #4, #7, ...

........................................................................
.............................. CYCLE   57 ..............................
........................................................................
   1    -21.7209091 -0.217209E+02  0.111E-01    3.43       0.0  T
   2    -21.7209100 -0.910964E-06  0.684E-02    3.43       1.0  T
   3    -21.7209068  0.324937E-05  0.204E-02    3.43       1.4  T
   4    -21.7209109 -0.414660E-05  0.362E-03    3.43       8.0  T
   5    -21.7209109 -0.954660E-08  0.846E-04    3.43      34.1  T
   6    -21.7209109 -0.126490E-08  0.406E-04    3.43      71.1  T
     SCC iter.                  ...        0 min,  0.002 sec
     gradient                   ...        0 min,  0.091 sec
 * total energy  :   -21.5130881 Eh     change       -0.7516868E-05 Eh
   gradient norm :     0.0013431 Eh/α   predicted    -0.3143016E-05 ( -58.19%)
   displ. norm   :     0.1640938 α      lambda       -0.1208898E-04
   maximum displ.:     0.1366487 α      in ANC's #3, #4, #7, ...

........................................................................
.............................. CYCLE   58 ..............................
........................................................................
   1    -21.7208596 -0.217209E+02  0.208E-01    3.44       0.0  T
   2    -21.7208637 -0.401211E-05  0.129E-01    3.44       1.0  T
   3    -21.7208523  0.113969E-04  0.394E-02    3.43       1.0  T
   4    -21.7208675 -0.152684E-04  0.762E-03    3.43       3.8  T
   5    -21.7208676 -0.522233E-07  0.143E-03    3.43      20.1  T
   6    -21.7208676 -0.474504E-08  0.662E-04    3.43      43.6  T
   7    -21.7208676 -0.134636E-08  0.318E-04    3.43      90.8  T
     SCC iter.                  ...        0 min,  0.002 sec
     gradient                   ...        0 min,  0.001 sec
 * total energy  :   -21.5131003 Eh     change       -0.1216389E-04 Eh
   gradient norm :     0.0017123 Eh/α   predicted    -0.6117231E-05 ( -49.71%)
   displ. norm   :     0.1848500 α      lambda       -0.1462972E-04
   maximum displ.:     0.1583650 α      in ANC's #3, #4, #7, ...

........................................................................
.............................. CYCLE   59 ..............................
........................................................................
   1    -21.7212406 -0.217212E+02  0.213E-01    3.46       0.0  T
   2    -21.7212455 -0.481042E-05  0.132E-01    3.46       1.0  T
   3    -21.7212340  0.114861E-04  0.408E-02    3.45       1.0  T
   4    -21.7212501 -0.161366E-04  0.878E-03    3.45       3.3  T
   5    -21.7212502 -0.752155E-07  0.218E-03    3.46      13.3  T
   6    -21.7212502 -0.156561E-07  0.110E-03    3.46      26.3  T
   7    -21.7212502 -0.511848E-08  0.607E-04    3.46      47.6  T
   8    -21.7212502 -0.168563E-08  0.214E-04    3.46     134.9  T
     SCC iter.                  ...        0 min,  0.002 sec
     gradient                   ...        0 min,  0.091 sec
 * total energy  :   -21.5131043 Eh     change       -0.4017924E-05 Eh
   gradient norm :     0.0040389 Eh/α   predicted    -0.7425707E-05 (  84.81%)
   displ. norm   :     0.1509347 α      lambda       -0.2047086E-04
   maximum displ.:     0.1281700 α      in ANC's #3, #4, #2, ...

........................................................................
.............................. CYCLE   60 ..............................
........................................................................
   1    -21.7200530 -0.217201E+02  0.176E-01    3.44       0.0  T
   2    -21.7200550 -0.200117E-05  0.108E-01    3.44       1.0  T
   3    -21.7200528  0.218687E-05  0.203E-02    3.44       1.4  T
   4    -21.7200566 -0.383203E-05  0.575E-03    3.44       5.0  T
   5    -21.7200567 -0.294894E-07  0.112E-03    3.44      25.7  T
   6    -21.7200567 -0.174866E-08  0.505E-04    3.44      57.2  T
     SCC iter.                  ...        0 min,  0.002 sec
     gradient                   ...        0 min,  0.001 sec
 * total energy  :   -21.5131143 Eh     change       -0.9968419E-05 Eh
   gradient norm :     0.0039029 Eh/α   predicted    -0.1047038E-04 (   5.04%)
   displ. norm   :     0.0505481 α      lambda       -0.3793954E-04
   maximum displ.:     0.0264121 α      in ANC's #7, #9, #8, ...

........................................................................
.............................. CYCLE   61 ..............................
........................................................................
   1    -21.7218769 -0.217219E+02  0.625E-02    3.44       0.0  T
   2    -21.7218775 -0.673537E-06  0.386E-02    3.44       1.0  T
   3    -21.7218742  0.335073E-05  0.221E-02    3.44       1.3  T
   4    -21.7218784 -0.420853E-05  0.249E-03    3.44      11.6  T
   5    -21.7218784 -0.682473E-08  0.116E-03    3.44      24.8  T
   6    -21.7218784 -0.178177E-08  0.279E-04    3.44     103.3  T
   7    -21.7218784 -0.280771E-09  0.168E-04    3.44     171.9  T
     SCC iter.                  ...        0 min,  0.002 sec
     gradient                   ...        0 min,  0.001 sec
 * total energy  :   -21.5131228 Eh     change       -0.8541859E-05 Eh
   gradient norm :     0.0035449 Eh/α   predicted    -0.1901889E-04 ( 122.66%)
   displ. norm   :     0.0760561 α      lambda       -0.1692559E-04
   maximum displ.:     0.0668475 α      in ANC's #3, #4, #7, ...

........................................................................
.............................. CYCLE   62 ..............................
........................................................................
   1    -21.7212469 -0.217212E+02  0.892E-02    3.45       0.0  T
   2    -21.7212475 -0.667974E-06  0.549E-02    3.45       1.0  T
   3    -21.7212456  0.192036E-05  0.162E-02    3.44       1.8  T
   4    -21.7212482 -0.257125E-05  0.332E-03    3.45       8.7  T
   5    -21.7212482 -0.935168E-08  0.766E-04    3.45      37.7  T
   6    -21.7212482 -0.157223E-08  0.374E-04    3.45      77.1  T
     SCC iter.                  ...        0 min,  0.003 sec
     gradient                   ...        0 min,  0.001 sec
 * total energy  :   -21.5131354 Eh     change       -0.1253275E-04 Eh
   gradient norm :     0.0016586 Eh/α   predicted    -0.8511129E-05 ( -32.09%)
   displ. norm   :     0.2643747 α      lambda       -0.1816235E-04
   maximum displ.:     0.2412086 α      in ANC's #3, #4, #22, ...

........................................................................
.............................. CYCLE   63 ..............................
........................................................................
   1    -21.7193464 -0.217193E+02  0.282E-01    3.44       0.0  T
   2    -21.7193525 -0.606767E-05  0.173E-01    3.44       1.0  T
   3    -21.7193403  0.122327E-04  0.429E-02    3.45       1.0  T
   4    -21.7193580 -0.177766E-04  0.104E-02    3.45       2.8  T
   5    -21.7193581 -0.886022E-07  0.221E-03    3.45      13.1  T
[...]
   3    -21.7221145  0.523130E-06  0.847E-03    3.50       3.4  T
   4    -21.7221152 -0.701950E-06  0.184E-03    3.50      15.7  T
   5    -21.7221152 -0.538193E-09  0.874E-04    3.50      33.0  T
   6    -21.7221152 -0.309633E-08  0.255E-04    3.50     113.2  T
     SCC iter.                  ...        0 min,  0.003 sec
     gradient                   ...        0 min,  0.001 sec
 * total energy  :   -21.5131908 Eh     change        0.1968437E-04 Eh
   gradient norm :     0.0040205 Eh/α   predicted    -0.8036407E-05 (-140.83%)
   displ. norm   :     0.1847179 α      lambda       -0.1040141E-03
   maximum displ.:     0.1359328 α      in ANC's #2, #1, #6, ...

........................................................................
.............................. CYCLE   70 ..............................
........................................................................
   1    -21.7237621 -0.217238E+02  0.198E-01    3.49       0.0  T
   2    -21.7237650 -0.294182E-05  0.123E-01    3.49       1.0  T
   3    -21.7237538  0.112470E-04  0.374E-02    3.48       1.0  T
   4    -21.7237678 -0.140070E-04  0.612E-03    3.49       4.7  T
   5    -21.7237678 -0.194493E-07  0.311E-03    3.49       9.3  T
   6    -21.7237678 -0.253642E-07  0.980E-04    3.49      29.5  T
   7    -21.7237678 -0.248442E-08  0.350E-04    3.49      82.4  T
     SCC iter.                  ...        0 min,  0.002 sec
     gradient                   ...        0 min,  0.001 sec
 * total energy  :   -21.5131869 Eh     change        0.3852060E-05 Eh
   gradient norm :     0.0066524 Eh/α   predicted    -0.5378346E-04 (*******%)
   displ. norm   :     0.0700036 α      lambda       -0.8482418E-04
   maximum displ.:     0.0368216 α      in ANC's #2, #1, #6, ...

........................................................................
.............................. CYCLE   71 ..............................
........................................................................
   1    -21.7220888 -0.217221E+02  0.641E-02    3.48       0.0  T
   2    -21.7220893 -0.527598E-06  0.397E-02    3.48       1.0  T
   3    -21.7220865  0.274856E-05  0.188E-02    3.48       1.5  T
   4    -21.7220899 -0.331655E-05  0.231E-03    3.48      12.5  T
   5    -21.7220899 -0.438126E-08  0.126E-03    3.48      22.8  T
   6    -21.7220899 -0.231572E-08  0.505E-04    3.48      57.2  T
     SCC iter.                  ...        0 min,  0.001 sec
     gradient                   ...        0 min,  0.001 sec
 * total energy  :   -21.5132389 Eh     change       -0.5200064E-04 Eh
   gradient norm :     0.0018894 Eh/α   predicted    -0.4261849E-04 ( -18.04%)
   displ. norm   :     0.0259694 α      lambda       -0.1011111E-04
   maximum displ.:     0.0139468 α      in ANC's #2, #7, #4, ...

........................................................................
.............................. CYCLE   72 ..............................
........................................................................
   1    -21.7211598 -0.217212E+02  0.217E-02    3.47       0.0  T
   2    -21.7211599 -0.906211E-07  0.135E-02    3.48       2.1  T
   3    -21.7211595  0.444236E-06  0.836E-03    3.48       3.5  T
   4    -21.7211601 -0.566166E-06  0.735E-04    3.48      39.3  T
   5    -21.7211601 -0.737845E-09  0.335E-04    3.48      86.1  T
     SCC iter.                  ...        0 min,  0.091 sec
     gradient                   ...        0 min,  0.001 sec
 * total energy  :   -21.5132455 Eh     change       -0.6608689E-05 Eh
   gradient norm :     0.0009513 Eh/α   predicted    -0.5056118E-05 ( -23.49%)
   displ. norm   :     0.0322893 α      lambda       -0.4162964E-05
   maximum displ.:     0.0285873 α      in ANC's #2, #1, #6, ...

........................................................................
.............................. CYCLE   73 ..............................
........................................................................
   1    -21.7211952 -0.217212E+02  0.375E-02    3.48       0.0  T
   2    -21.7211952 -0.462856E-07  0.231E-02    3.48       1.3  T
   3    -21.7211952 -0.284618E-07  0.113E-03    3.48      25.5  T
   4    -21.7211952  0.443734E-10  0.544E-04    3.48      53.1  T
   5    -21.7211952 -0.100285E-08  0.136E-04    3.48     211.7  T
     SCC iter.                  ...        0 min,  0.001 sec
     gradient                   ...        0 min,  0.001 sec
 * total energy  :   -21.5132505 Eh     change       -0.4975631E-05 Eh
   gradient norm :     0.0008582 Eh/α   predicted    -0.2081541E-05 ( -58.17%)
   displ. norm   :     0.0549267 α      lambda       -0.6073586E-05
   maximum displ.:     0.0466112 α      in ANC's #2, #1, #7, ...

   *** GEOMETRY OPTIMIZATION CONVERGED AFTER 73 ITERATIONS ***

------------------------------------------------------------------------
 total energy gain   :        -0.0236042 Eh      -14.8118 kcal/mol
 total RMSD          :         1.4625946 a0        0.7740 Å
 total power (kW/mol):        -0.8489413 (step)  -12.9159 (real)
------------------------------------------------------------------------

 ANCopt (total)                0 d,  0 h,  0 min,  4.798 sec
 optimizer setup                ...        0 min,  0.000 sec (  0.006%)
 model hessian                  ...        0 min,  0.099 sec (  2.061%)
 ANC generation                 ...        0 min,  0.095 sec (  1.982%)
 coordinate transformation      ...        0 min,  0.003 sec (  0.061%)
 single point calculation       ...        0 min,  4.386 sec ( 91.413%)
 optimization log               ...        0 min,  0.007 sec (  0.148%)
 hessian update                 ...        0 min,  0.188 sec (  3.908%)
 rational function              ...        0 min,  0.007 sec (  0.137%)

================
 final structure:
================
12
 xtb: 6.2.3 (830e466)
C         0.11004721250754    1.38693155661839   -2.45830515893055
C        -0.41119731318982    1.03459837770798   -1.29947395018967
C         2.46701908074763   -0.20849557480353   -0.82567913306460
O         1.10127446172519    2.28631537339265   -2.70089301959552
O         1.63497188502212    2.88331669064621   -1.52936568237023
O         2.10440852094695   -1.01306034597328   -0.02057383746401
H         1.54085024615281    3.83210847521531   -1.69512885884486
H         2.75963216940456    0.81841181252649   -0.55779750615604
H        -0.19254442259986    0.99259836795914   -3.41877410378832
H         2.53828558867373   -0.43813951479989   -1.90280691763284
H        -1.19520385359670    0.30488117515886   -1.25352893065531
H        -0.06854357579157    1.46012360635057   -0.37346290130887
 
 Bond Distances (Angstroems)
 ---------------------------
C1-C2=1.3186         C1-O4=1.3602         C1-H9=1.0815         C2-C1=1.3186         C2-H11=1.0720        C2-H12=1.0752        
C3-O6=1.1946         C3-H8=1.1009         C3-H10=1.1036        O4-C1=1.3602         O4-O5=1.4191         O5-O4=1.4191         
O5-H7=0.9678         O6-C3=1.1946         H7-O5=0.9678         H8-C3=1.1009         H9-C1=1.0815         H10-C3=1.1036        
H11-C2=1.0720        H12-C2=1.0752        
 C  H  Rav=1.0866 sigma=0.0131  Rmin=1.0720  Rmax=1.1036     5
 C  C  Rav=1.3186 sigma=0.0000  Rmin=1.3186  Rmax=1.3186     1
 O  H  Rav=0.9678 sigma=0.0000  Rmin=0.9678  Rmax=0.9678     1
 O  C  Rav=1.2774 sigma=0.0828  Rmin=1.1946  Rmax=1.3602     2
 O  O  Rav=1.4191 sigma=0.0000  Rmin=1.4191  Rmax=1.4191     1
 
 selected bond angles (degree)
 --------------------
O4-C1-C2=128.42                H9-C1-C2=124.92                H9-C1-O4=106.65                H11-C2-C1=120.57               
H12-C2-C1=121.68               H12-C2-H11=117.75              H8-C3-O6=123.02                H10-C3-O6=122.50               
H10-C3-H8=114.48               O5-O4-C1=113.89                H7-O5-O4=103.56                
 
 selected dihedral angles (degree)
 ---------------------------------
H11-C2-C1-O4=180.06           H11-C2-C1-H9=  0.12           H12-C2-C1-O4=359.84           H12-C2-C1-H9=179.90           
O5-O4-C1-C2=  1.27            O5-O4-C1-H9=181.22            H7-O5-O4-C1=234.75            
 
 CMA Distance (Angstroems)
 ---------------------------
R(CMA):  3.4263
           -------------------------------------------------
          |                Final Singlepoint                |
           -------------------------------------------------

          ...................................................
          :                      SETUP                      :
          :.................................................:
          :  # basis functions                  30          :
          :  # atomic orbitals                  30          :
          :  # shells                           18          :
          :  # electrons                        36          :
          :  max. iterations                   100          :
          :  Hamiltonian                  GFN2-xTB          :
          :  restarted?                      false          :
          :  GBSA solvation                  false          :
          :  PC potential                    false          :
          :  electronic temp.          300.0000000     K    :
          :  accuracy                    1.0000000          :
          :  -> integral cutoff          0.2500000E+02      :
          :  -> integral neglect         0.1000000E-07      :
          :  -> SCF convergence          0.1000000E-05 Eh   :
          :  -> wf. convergence          0.1000000E-03 e    :
          :  Broyden damping             0.4000000          :
          ...................................................

 iter      E             dE          RMSdq      gap      omega  full diag
   1    -21.7211952 -0.217212E+02  0.600E-05    3.48       0.0  T
   2    -21.7211952 -0.662936E-11  0.382E-05    3.48     755.1  T
   3    -21.7211952 -0.121645E-10  0.219E-05    3.48    1316.5  T

   *** convergence criteria satisfied after 3 iterations ***

         #    Occupation            Energy/Eh            Energy/eV
      -------------------------------------------------------------
         1        2.0000           -0.7471159             -20.3301
       ...           ...                  ...                  ...
        12        2.0000           -0.5280066             -14.3678
        13        2.0000           -0.5254784             -14.2990
        14        2.0000           -0.4927221             -13.4077
        15        2.0000           -0.4733492             -12.8805
        16        2.0000           -0.4628404             -12.5945
        17        2.0000           -0.4084410             -11.1142
        18        2.0000           -0.4037196             -10.9858 (HOMO)
        19                         -0.2759364              -7.5086 (LUMO)
        20                         -0.2072737              -5.6402
        21                         -0.1660501              -4.5185
        22                          0.0843754               2.2960
        23                          0.0968314               2.6349
       ...                                ...                  ...
        30                          0.6224416              16.9375
      -------------------------------------------------------------
                  HL-Gap            0.1277832 Eh            3.4772 eV
             Fermi-level           -0.3398280 Eh           -9.2472 eV

 SCC (total)                   0 d,  0 h,  0 min,  0.097 sec
 SCC setup                      ...        0 min,  0.000 sec (  0.253%)
 Dispersion                     ...        0 min,  0.000 sec (  0.043%)
 integral evaluation            ...        0 min,  0.090 sec ( 93.273%)
 zeroth order Hamiltonian       ...        0 min,  0.000 sec (  0.108%)
 iterations                     ...        0 min,  0.005 sec (  4.913%)
 molecular gradient             ...        0 min,  0.001 sec (  0.977%)
 printout                       ...        0 min,  0.000 sec (  0.200%)

         :::::::::::::::::::::::::::::::::::::::::::::::::::::
         ::                     SUMMARY                     ::
         :::::::::::::::::::::::::::::::::::::::::::::::::::::
         :: total energy             -21.513250490494 Eh    ::
         :: gradient norm              0.000858855231 Eh/a0 ::
         :: HOMO-LUMO gap              3.477158263845 eV    ::
         ::.................................................::
         :: SCC energy               -21.721195246366 Eh    ::
         :: -> isotropic ES            0.040498910482 Eh    ::
         :: -> anisotropic ES         -0.002249858028 Eh    ::
         :: -> anisotropic XC         -0.000772584143 Eh    ::
         :: -> dispersion             -0.005962157306 Eh    ::
         :: repulsion energy           0.207928664891 Eh    ::
         :: add. restraining           0.000000000000 Eh    ::
         :::::::::::::::::::::::::::::::::::::::::::::::::::::

           -------------------------------------------------
          |                Property Printout                |
           -------------------------------------------------

    * Orbital Energies and Occupations

         #    Occupation            Energy/Eh            Energy/eV
      -------------------------------------------------------------
         1        2.0000           -0.7471159             -20.3301
       ...           ...                  ...                  ...
         6        2.0000           -0.6193689             -16.8539
         7        2.0000           -0.6089651             -16.5708
         8        2.0000           -0.5863994             -15.9567
         9        2.0000           -0.5697872             -15.5047
        10        2.0000           -0.5465646             -14.8728
        11        2.0000           -0.5418830             -14.7454
        12        2.0000           -0.5280066             -14.3678
        13        2.0000           -0.5254784             -14.2990
        14        2.0000           -0.4927221             -13.4077
        15        2.0000           -0.4733492             -12.8805
        16        2.0000           -0.4628404             -12.5945
        17        2.0000           -0.4084410             -11.1142
        18        2.0000           -0.4037196             -10.9858 (HOMO)
        19                         -0.2759364              -7.5086 (LUMO)
        20                         -0.2072737              -5.6402
        21                         -0.1660501              -4.5185
        22                          0.0843754               2.2960
        23                          0.0968314               2.6349
        24                          0.1237188               3.3666
        25                          0.1300698               3.5394
        26                          0.2193476               5.9688
        27                          0.2387563               6.4969
        28                          0.4013759              10.9220
        29                          0.5884117              16.0115
        30                          0.6224416              16.9375
      -------------------------------------------------------------
                  HL-Gap            0.1277832 Eh            3.4772 eV
             Fermi-level           -0.3398280 Eh           -9.2472 eV

     #   Z        covCN         q      C6AA      α(0)
     1   6 C      2.761     0.099    25.782     8.315
     2   6 C      2.834    -0.124    31.133     9.144
     3   6 C      2.701     0.183    24.059     8.028
     4   8 O      1.786    -0.164    16.756     5.527
     5   8 O      1.739    -0.316    19.264     5.926
     6   8 O      0.856    -0.283    19.485     5.918
     7   1 H      0.805     0.323     0.657     1.273
     8   1 H      0.923     0.056     2.249     2.345
     9   1 H      0.925     0.066     2.126     2.280
    10   1 H      0.923     0.037     2.486     2.466
    11   1 H      0.926     0.054     2.273     2.358
    12   1 H      0.926     0.068     2.108     2.270

 Mol. C6AA /au·bohr⁶  :       1341.461536
 Mol. C8AA /au·bohr⁸  :      28862.124952
 Mol. α(0) /au        :         55.851418


Wiberg/Mayer (AO) data.
largest (>0.10) Wiberg bond orders for each atom
          total WBO             WBO to atom ...
     1  C   3.923        C    2 1.893    O    4 1.059    H    9 0.937
     2  C   3.983        C    1 1.893    H   11 0.975    H   12 0.969    O    4 0.124
     3  C   3.899        O    6 2.003    H   10 0.944    H    8 0.942
     4  O   2.176        C    1 1.059    O    5 0.965    C    2 0.124
     5  O   1.920        O    4 0.965    H    7 0.889
     6  O   2.106        C    3 2.003
     7  H   0.896        O    5 0.889
     8  H   0.997        C    3 0.942
     9  H   0.996        C    1 0.937
    10  H   0.999        C    3 0.944
    11  H   0.997        C    2 0.975
    12  H   0.995        C    2 0.969

molecular dipole:
                 x           y           z       tot (Debye)
 q only:       -0.217       0.795      -0.515
   full:       -0.223       1.105      -0.720       3.400
molecular quadrupole (traceless):
                xx          xy          yy          xz          yz          zz
 q only:       -2.152       3.358       3.111      -0.859      -0.622      -0.959
  q+dip:       -3.941       4.582       4.488      -2.082      -1.314      -0.547
   full:       -3.005       3.979       4.453      -1.419      -1.219      -1.449

           -------------------------------------------------
          |                Geometry Summary                 |
           -------------------------------------------------

      molecular mass/u    :       90.0780670
   center of mass at/Å    :        1.2088014       1.1113491      -1.4691264
  moments of inertia/u·Å² :        0.1019117E+03   0.2757875E+03   0.3284287E+03
rotational constants/cm⁻¹ :        0.1654142E+00   0.6112545E-01   0.5132813E-01

 * 9 selected distances

     #   Z        #   Z                                     value/Å
     1   6 C      2   6 C                                 1.3186070
     1   6 C      4   8 O                                 1.3602469
     4   8 O      5   8 O                                 1.4190560 (max)
     3   6 C      6   8 O                                 1.1945733
     5   8 O      7   1 H                                 0.9677511 (min)
     3   6 C      8   1 H                                 1.1008732
     1   6 C      9   1 H                                 1.0814624
     2   6 C     11   1 H                                 1.0720375
     2   6 C     12   1 H                                 1.0751650

 * 5 distinct bonds (by element types)

   Z      Z             #   av. dist./Å        max./Å        min./Å
   1 H    6 C           4     1.0823845     1.1008732     1.0720375
   6 C    6 C           1     1.3186070     1.3186070     1.3186070
   1 H    8 O           1     0.9677511     0.9677511     0.9677511
   6 C    8 O           2     1.2774101     1.3602469     1.1945733
   8 O    8 O           1     1.4190560     1.4190560     1.4190560


optimized geometry written to: xtbopt.xyz


           -------------------------------------------------
          | TOTAL ENERGY              -21.513250490494 Eh   |
          | GRADIENT NORM               0.000858855231 Eh/α |
          | HOMO-LUMO GAP               3.477158263845 eV   |
           -------------------------------------------------

------------------------------------------------------------------------
 * finished run on 2020/12/23 at 21:40:14.561     
------------------------------------------------------------------------
 total:
 * wall-time:     0 d,  0 h,  0 min,  5.184 sec
 *  cpu-time:     0 d,  0 h,  0 min, 20.886 sec
 * ratio c/w:     4.029 speedup
 SCF:
 * wall-time:     0 d,  0 h,  0 min,  0.090 sec
 *  cpu-time:     0 d,  0 h,  0 min,  0.269 sec
 * ratio c/w:     2.975 speedup
 ANC optimizer:
 * wall-time:     0 d,  0 h,  0 min,  4.899 sec
 *  cpu-time:     0 d,  0 h,  0 min, 19.624 sec
 * ratio c/w:     4.006 speedup

