12
 energy: -21.549524242013 gnorm: 0.168935574807 xtb: 6.2.3 (830e466)
C         0.71430000000000    1.26821000000000   -1.98677000000000
C         0.08170000000000    0.45584000000000   -0.86466000000000
C         0.74069000000000    1.14055000000000    0.23891000000000
O         1.05866000000000    2.53024000000000   -1.44725000000000
O         1.29263000000000    2.27868000000000   -0.18977000000000
O         0.66896000000000    0.82540000000000    1.41545000000000
H         3.22358000000000    1.63750000000000   -4.24850000000000
H         1.66903000000000    0.78478000000000   -2.29473000000000
H         0.04475000000000    1.33832000000000   -2.86974000000000
H         3.59328000000000    1.06498000000000   -4.05656000000000
H        -1.00870000000000    0.64099000000000   -0.75830000000000
H         0.31011000000000   -0.62588000000000   -0.97388000000000
12
 energy: -21.567179773574 gnorm: 0.064984811551 xtb: 6.2.3 (830e466)
C         0.71453088102493    1.24889382081230   -2.01984916674942
C         0.08194750662520    0.46309033707361   -0.87485855766360
C         0.71796369245626    1.15560730441759    0.28526115736729
O         1.03532877211361    2.51351103086748   -1.46031498089769
O         1.29664488482570    2.28278239204639   -0.14478607805435
O         0.70363244204954    0.82542368792430    1.44111132635112
H         3.21054936901073    1.66014498718829   -4.25384685427256
H         1.65705628659010    0.76516152608940   -2.32988572923711
H         0.06231388198351    1.37135643327800   -2.89041894023233
H         3.61442316416497    1.04340149737641   -4.05611828758432
H        -1.00186203740833    0.61582078249912   -0.78455219543785
H         0.29646115656378   -0.60558379957291   -0.94754169358915
12
 energy: -21.570821223747 gnorm: 0.014391164585 xtb: 6.2.3 (830e466)
C         0.72082361859375    1.23200931491838   -2.03083284627836
C         0.07856769980001    0.46142612902114   -0.88265298113533
C         0.71258950793992    1.15817890571237    0.30875678536650
O         1.02217725998784    2.50447472382826   -1.47301004070659
O         1.29288115186941    2.29329454397274   -0.11698183463701
O         0.71836322529866    0.82691668284172    1.45112300433892
H         3.20587291940737    1.67048392406368   -4.24751860584892
H         1.64898289073561    0.74517239074072   -2.35830010748001
H         0.06887829034453    1.40460937202149   -2.88510321008658
H         3.63493396175742    1.04017563430392   -4.07859823138922
H        -1.00182369883900    0.60744040098403   -0.81643596934647
H         0.28674317310439   -0.60457202240856   -0.90624596279675
12
 energy: -21.571167437274 gnorm: 0.004940345606 xtb: 6.2.3 (830e466)
C         0.71764257294223    1.22662870890525   -2.03079380809899
C         0.07242100378648    0.46040886063439   -0.88338550535320
C         0.70531909135492    1.16203625796294    0.31502540635314
O         1.02098087773055    2.50091277084497   -1.47947501016460
O         1.28811246877854    2.29948081765967   -0.10890893697080
O         0.73206946715675    0.82042989392136    1.45537854863285
H         3.21550624741284    1.67314424452989   -4.24471011839228
H         1.63946099798607    0.73584405300908   -2.36826958914585
H         0.06359703704101    1.41828892030901   -2.88032106469286
H         3.65536343122994    1.04221630807920   -4.09883774781368
H        -1.00812168494191    0.60564779145324   -0.82826494672980
H         0.28663848952243   -0.60542862730917   -0.88323722762364
12
 energy: -21.571240771470 gnorm: 0.003199151578 xtb: 6.2.3 (830e466)
C         0.71355497951301    1.22425566268686   -2.02872735773075
C         0.06791449041691    0.46076498092949   -0.88101708253693
C         0.70546578694884    1.16184686362243    0.31648884061211
O         1.02186732425225    2.49834801296314   -1.48113861538728
O         1.28212067176611    2.30315662980068   -0.10487582923527
O         0.73637297552190    0.81715116338660    1.45525665331480
H         3.22929219588583    1.67484529090405   -4.24877414284525
H         1.63169944787138    0.73024692043810   -2.37248344581831
H         0.05661241050777    1.42064648314156   -2.87554113259279
H         3.67203141961157    1.04624836028282   -4.11407838399771
H        -1.01249119246326    0.60632344317371   -0.82848583717894
H         0.28454949016752   -0.60422381132965   -0.87242366660337
12
 energy: -21.571299316433 gnorm: 0.003216855997 xtb: 6.2.3 (830e466)
C         0.70581610688501    1.22240813858984   -2.02593261160061
C         0.06199564531236    0.46148041914044   -0.87643253381261
C         0.70393656740484    1.16319777286727    0.31763428384421
O         1.02390144300298    2.49529312146144   -1.48246633335252
O         1.27514139659020    2.30652844222164   -0.10233893562080
O         0.74231788980513    0.81353417738891    1.45510437881339
H         3.24789586329004    1.67700401032292   -4.24760557444263
H         1.61950553656117    0.72390671316378   -2.37659519771180
H         0.04445200158598    1.42041983354220   -2.86947722352479
H         3.70131754579282    1.05165471448116   -4.14180081024468
H        -1.01814544919037    0.60669768967378   -0.82290385861187
H         0.28085545295964   -0.60251503285368   -0.86298558373485
12
 energy: -21.571342147915 gnorm: 0.002774017791 xtb: 6.2.3 (830e466)
C         0.69711710409560    1.22053355537904   -2.02395088043338
C         0.05707358904122    0.46188743668912   -0.87084284884885
C         0.70327188203654    1.16438243815531    0.31893136523031
O         1.02573184873955    2.49190642917771   -1.48322618450653
O         1.26973357635395    2.30804256314563   -0.10195442628134
O         0.74615002136320    0.81296617349593    1.45567738554136
H         3.26823749788234    1.68021521475469   -4.24419398213751
H         1.60645250811677    0.71780653268672   -2.38073041248496
H         0.03038501206904    1.41884117916975   -2.86364681013675
H         3.73211973476108    1.05768789065450   -4.17147633545373
H        -1.02278074568836    0.60733319470474   -0.81336703020026
H         0.27549797122880   -0.60199260801352   -0.85701984028775
12
 energy: -21.571374444197 gnorm: 0.002060785669 xtb: 6.2.3 (830e466)
C         0.68701717463968    1.21804699156280   -2.02277624339411
C         0.05239065930113    0.46166508191601   -0.86468043267389
C         0.70283619226112    1.16558548819293    0.32096280063568
O         1.02640433264032    2.48808779982626   -1.48417620889697
O         1.26673872508581    2.30786152417512   -0.10343928017777
O         0.74982872353249    0.81482991387633    1.45790551601762
H         3.29275664099371    1.68410500059511   -4.24212641433240
H         1.59161386080032    0.71150240099001   -2.38611921544159
H         0.01409475283208    1.41746433490994   -2.85739468926378
H         3.76385753440840    1.06528949319475   -4.19983506982878
H        -1.02718588967073    0.60796849139742   -0.80139581344480
H         0.26863729317530   -0.60279652063716   -0.85272494919843
12
 energy: -21.571394481174 gnorm: 0.002795580075 xtb: 6.2.3 (830e466)
C         0.67703093326155    1.21477982477846   -2.02221692164303
C         0.04797019248752    0.46085598192499   -0.85905861824584
C         0.70322689623514    1.16622673871972    0.32330331286682
O         1.02559591089822    2.48413033753053   -1.48577385079771
O         1.26676881234399    2.30644031377810   -0.10606194269606
O         0.75235261367171    0.81901101095810    1.46106989191913
H         3.31575441350929    1.68912663324031   -4.23638441927954
H         1.57698184842139    0.70518888974220   -2.39203643761074
H        -0.00178624300788    1.41671126379515   -2.85123535433276
H         3.79493332472463    1.07273611148158   -4.22887105225333
H        -1.03125004583015    0.60885891100502   -0.78999123051193
H         0.26141134328411   -0.60445601695476   -0.84854337741403
12
 energy: -21.571405211876 gnorm: 0.003522684840 xtb: 6.2.3 (830e466)
C         0.66173096780711    1.20976693827544   -2.02179269010958
C         0.04149836773527    0.45920530389071   -0.85112811345546
C         0.70451384760102    1.16649055217075    0.32663018304484
O         1.02314749976572    2.47825250806281   -1.48831069229303
O         1.27065998477283    2.30237186499560   -0.11134609117790
O         0.75615152927220    0.82608021814559    1.46626651704582
H         3.35559947837008    1.69610811973434   -4.24130216048549
H         1.55495666591568    0.69620931292315   -2.40111743081076
H        -0.02553837793896    1.41602286463193   -2.84233086023924
H         3.83270229111681    1.08642105691759   -4.25540197749145
H        -1.03708096434619    0.61002508749919   -0.77267753455139
H         0.25064870992791   -0.60734382724780   -0.84328914947526
12
 energy: -21.571421310062 gnorm: 0.002468298434 xtb: 6.2.3 (830e466)
C         0.65524445841507    1.20720658350083   -2.02149297023427
C         0.03785209293397    0.45877770305398   -0.84825110105330
C         0.70509196901740    1.16674571436645    0.32742167997014
O         1.02135925280124    2.47566844449527   -1.49058106608726
O         1.27391322135404    2.30063183570875   -0.11398077213343
O         0.75825213469010    0.82905101895547    1.46784844485115
H         3.36866285948509    1.70093698282714   -4.23232084921885
H         1.54568056068833    0.69173361049775   -2.40460983637379
H        -0.03483139242373    1.41549420288310   -2.83894155925331
H         3.85141238362211    1.09051560666995   -4.27520449242075
H        -1.04033765771146    0.61061734662243   -0.76692408517765
H         0.24669011712722   -0.60776904958193   -0.83876339286737
12
 energy: -21.571429783030 gnorm: 0.001589488640 xtb: 6.2.3 (830e466)
C         0.65480002989357    1.20677106075710   -2.02156768972032
C         0.03690533611492    0.45904722838019   -0.84863297180013
C         0.70591837233821    1.16641692520796    0.32642451741723
O         1.02013639816752    2.47538855839024   -1.49185701604198
O         1.27764360831969    2.29930948173172   -0.11535659197582
O         0.75875723698895    0.82932992124185    1.46697037511431
H         3.36860940522371    1.70249952391793   -4.23025605722164
H         1.54531496375505    0.69102943338654   -2.40415022124818
H        -0.03445320759486    1.41500804034095   -2.83960341566491
H         3.84954321969073    1.09103162269828   -4.27312027345408
H        -1.04106989072921    0.61085263362635   -0.76763718468669
H         0.24688452783108   -0.60707442967993   -0.83701347071647
12
 energy: -21.571439899604 gnorm: 0.001780258589 xtb: 6.2.3 (830e466)
C         0.64421388272031    1.20218584858872   -2.02212511911666
C         0.02956726648283    0.45966952450502   -0.84464021746228
C         0.70979554421806    1.16621871541098    0.32431980386995
O         1.01532326596919    2.47055959569323   -1.49845769187232
O         1.29268114459621    2.29239573249688   -0.12431971969940
O         0.76416470179905    0.83413454097540    1.46632213603117
H         3.39013332707073    1.71322474719580   -4.21944977553106
H         1.53119512488321    0.68202114304745   -2.40775968326012
H        -0.04761354069624    1.41128453650621   -2.83788344243589
H         3.86697691800513    1.10108499337207   -4.28486050761056
H        -1.04747859924932    0.61292618189506   -0.75857821151060
H         0.24003096420008   -0.60609555968778   -0.82836757140068
12
 energy: -21.571444450761 gnorm: 0.000738411981 xtb: 6.2.3 (830e466)
C         0.64178564719705    1.20091745360857   -2.02259870533668
C         0.02833277346848    0.45994591371656   -0.84299556551094
C         0.71099687109022    1.16663369868850    0.32395979832616
O         1.01571384336101    2.46891691473197   -1.50008998110685
O         1.29377064166831    2.29145875016148   -0.12662483065895
O         0.76646024522815    0.83500850218329    1.46603029052697
H         3.39585405097273    1.71578919979972   -4.21730150510156
H         1.52751767267459    0.67901487778170   -2.40888793689599
H        -0.05130192170745    1.40944564539011   -2.83756465730126
H         3.87159831504496    1.10451079495105   -4.28700446248306
H        -1.04847686714510    0.61437183855640   -0.75501630546970
H         0.23673872814627   -0.60640358957035   -0.82770613898656
