      -----------------------------------------------------------      
     |                   =====================                   |     
     |                           x T B                           |     
     |                   =====================                   |     
     |                         S. Grimme                         |     
     |          Mulliken Center for Theoretical Chemistry        |     
     |                    University of Bonn                     |     
      -----------------------------------------------------------      

   * xtb version 6.2.3 (830e466) compiled by 'ehlert@majestix' on 2020-03-16

   xtb is free software: you can redistribute it and/or modify it under
   the terms of the GNU Lesser General Public License as published by
   the Free Software Foundation, either version 3 of the License, or
   (at your option) any later version.
   
   xtb is distributed in the hope that it will be useful,
   but WITHOUT ANY WARRANTY; without even the implied warranty of
   MERCHANTABILITY or FITNESS FOR A PARTICULAR PURPOSE.  See the
   GNU Lesser General Public License for more details.
   
   Cite this work as:
   * S. Grimme, C. Bannwarth, P. Shushkov, J. Chem. Theory Comput., 2017,
     13, 1989-2009. DOI: 10.1021/acs.jctc.7b00118
   * C. Bannwarth, S. Ehlert and S. Grimme., J. Chem. Theory Comput., 2019,
     15, 1652-1671. DOI: 10.1021/acs.jctc.8b01176
   * P. Pracht, E. Caldeweyher, S. Ehlert, S. Grimme, ChemRxiv, 2019, preprint.
     DOI: 10.26434/chemrxiv.8326202.v1
   
   for DFT-D4:
   * E. Caldeweyher, C. Bannwarth and S. Grimme, J. Chem. Phys., 2017,
     147, 034112. DOI: 10.1063/1.4993215
   * E. Caldeweyher, S. Ehlert, A. Hansen, H. Neugebauer, S. Spicher,
     C. Bannwarth and S. Grimme, J. Chem. Phys., 2019, 150, 154122.
     DOI: 10.1063/1.5090222
   
   for sTDA-xTB:
   * S. Grimme and C. Bannwarth, J. Chem. Phys., 2016, 145, 054103.
     DOI: 10.1063/1.4959605
   
   in the mass-spec context:
   * V. Asgeirsson, C. Bauer and S. Grimme, Chem. Sci., 2017, 8, 4879.
     DOI: 10.1039/c7sc00601b
   
   for metadynamics refer to:
   * S. Grimme, J. Chem. Theory Comput., 2019, 155, 2847-2862
     DOI: 10.1021/acs.jctc.9b00143
   
   with help from (in alphabetical order)
   C. Bannwarth, F. Bohle, G. Brandenburg, E. Caldeweyher, M. Checinski,
   S. Dohm, S. Ehlert, S. Ehrlich, F. März, H. Neugebauer, J. Pisarek,
   P. Pracht, P. Shushkov, and S. Spicher.
   
 * started run on 2020/12/23 at 21:43:59.246     

           -------------------------------------------------
          |                Calculation Setup                |
           -------------------------------------------------

          program call               : xtb -c 0 -u 0 -a 1.0 --iterations 100 --opt normal --namespace product_38 /scratch/bell/zhao922/YARP/paper-example/potential_product/test/reaction_channel/pp_0/pp_9_3.xyz
          hostname                   : bell-fe05.rcac.purdue.edu
          calculation namespace      : product_38
          coordinate file            : /scratch/bell/zhao922/YARP/paper-example/potential_product/test/reaction_channel/pp_0/pp_9_3.xyz
          omp threads                :                    32
          number of atoms            :                    12
          number of electrons        :                    36
          charge                     :                     0
          spin                       :                   0.0
          first test random number   :      0.72050809592157

           ------------------------------------------------- 
          |                 G F N 2 - x T B                 |
          | Geometry, Frequencies, Noncovalent interactions |
          |            JCTC 2019 parametrisation            |
           ------------------------------------------------- 
             k(s)              :                1.8500
             k(p)              :                2.2300
             k(d)              :                2.2300
             k(f)              :                2.0000
             kEN (H0ij)        :               -2.0000
             D4 a1             :                0.5200
             D4 a2             :                5.0000
             D4 s6             :                1.0000
             D4 s8             :                2.7000
             D4 s9             :                5.0000
             alphaj            :                2.0000

  Z AO/shell   Hii/eV     exponent
  1     Wed Apr 25 08:07:45 CEST 2018   EN: 2.200 GM2: 0.406  GM3: 0.0800  RAES: 1.40
     1s    -10.707211    1.230000
  6     Wed Apr 25 08:07:45 CEST 2018   EN: 2.550 GM2: 0.538  GM3: 0.1500  RAES: 3.00
     2s    -13.970922    2.096432
     2p    -10.063292    1.800000
  8     Wed Apr 25 08:07:45 CEST 2018   EN: 3.440 GM2: 0.452  GM3:-0.0517  RAES: 1.80
     2s    -20.229985    2.439742
     2p    -15.503117    2.137023

           ------------------------------------------------- 
          |        Self-Consistent Charge Iterations        |
           ------------------------------------------------- 

          ...................................................
          :                      SETUP                      :
          :.................................................:
          :  # basis functions                  30          :
          :  # atomic orbitals                  30          :
          :  # shells                           18          :
          :  # electrons                        36          :
          :  max. iterations                   100          :
          :  Hamiltonian                  GFN2-xTB          :
          :  restarted?                      false          :
          :  GBSA solvation                  false          :
          :  PC potential                    false          :
          :  electronic temp.          300.0000000     K    :
          :  accuracy                    1.0000000          :
          :  -> integral cutoff          0.2500000E+02      :
          :  -> integral neglect         0.1000000E-07      :
          :  -> SCF convergence          0.1000000E-05 Eh   :
          :  -> wf. convergence          0.1000000E-03 e    :
          :  Broyden damping             0.4000000          :
          ...................................................

 iter      E             dE          RMSdq      gap      omega  full diag
   1    -21.6767530 -0.216768E+02  0.507E+00    3.88       0.0  T
   2    -21.7037990 -0.270460E-01  0.275E+00    3.11       1.0  T
   3    -21.7027508  0.104820E-02  0.170E+00    3.55       1.0  T
   4    -21.7118312 -0.908037E-02  0.163E-01    3.27       1.0  T
   5    -21.7118826 -0.514439E-04  0.768E-02    3.32       1.0  T
   6    -21.7118943 -0.117172E-04  0.315E-02    3.31       1.0  T
   7    -21.7118950 -0.650155E-06  0.912E-03    3.31       3.2  T
   8    -21.7118953 -0.322201E-06  0.382E-03    3.31       7.6  T
   9    -21.7118953 -0.495748E-08  0.115E-03    3.31      25.1  T
  10    -21.7118953 -0.981131E-08  0.454E-04    3.31      63.6  T
  11    -21.7118953 -0.110857E-08  0.147E-04    3.31     195.8  T

   *** convergence criteria satisfied after 11 iterations ***

         #    Occupation            Energy/Eh            Energy/eV
      -------------------------------------------------------------
         1        2.0000           -0.7545247             -20.5317
       ...           ...                  ...                  ...
        12        2.0000           -0.5301389             -14.4258
        13        2.0000           -0.5176394             -14.0857
        14        2.0000           -0.4867772             -13.2459
        15        2.0000           -0.4764526             -12.9649
        16        2.0000           -0.4632412             -12.6054
        17        2.0000           -0.4403014             -11.9812
        18        2.0000           -0.4162426             -11.3265 (HOMO)
        19                         -0.2946127              -8.0168 (LUMO)
        20                         -0.0539677              -1.4685
        21                          0.0511000               1.3905
        22                          0.0731597               1.9908
        23                          0.0826376               2.2487
       ...                                ...                  ...
        30                          0.5162876              14.0489
      -------------------------------------------------------------
                  HL-Gap            0.1216299 Eh            3.3097 eV
             Fermi-level           -0.3554277 Eh           -9.6717 eV

 SCC (total)                   0 d,  0 h,  0 min,  0.092 sec
 SCC setup                      ...        0 min,  0.000 sec (  0.170%)
 Dispersion                     ...        0 min,  0.000 sec (  0.068%)
 integral evaluation            ...        0 min,  0.082 sec ( 88.538%)
 zeroth order Hamiltonian       ...        0 min,  0.000 sec (  0.074%)
 iterations                     ...        0 min,  0.007 sec (  8.060%)
 molecular gradient             ...        0 min,  0.003 sec (  2.809%)
 printout                       ...        0 min,  0.000 sec (  0.076%)

         :::::::::::::::::::::::::::::::::::::::::::::::::::::
         ::                     SUMMARY                     ::
         :::::::::::::::::::::::::::::::::::::::::::::::::::::
         :: total energy             -21.552424903197 Eh    ::
         :: gradient norm              0.122610550748 Eh/a0 ::
         :: HOMO-LUMO gap              3.309718159881 eV    ::
         ::.................................................::
         :: SCC energy               -21.711895303142 Eh    ::
         :: -> isotropic ES            0.045380900867 Eh    ::
         :: -> anisotropic ES         -0.002035524128 Eh    ::
         :: -> anisotropic XC         -0.007848663635 Eh    ::
         :: -> dispersion             -0.005981457364 Eh    ::
         :: repulsion energy           0.159461183553 Eh    ::
         :: add. restraining           0.000000000000 Eh    ::
         :::::::::::::::::::::::::::::::::::::::::::::::::::::

      ----------------------------------------------------------- 
     |                   =====================                   |
     |                        A N C O P T                        |
     |                   =====================                   |
     |               Approximate Normal Coordinate               |
     |                Rational Function Optimizer                |
      ----------------------------------------------------------- 

          ...................................................
          :                      SETUP                      :
          :.................................................:
          :   optimization level            normal          :
          :   max. optcycles                   200          :
          :   ANC micro-cycles                  20          :
          :   degrees of freedom                30          :
          :.................................................:
          :   RF solver                   davidson          :
          :   write xtbopt.log                true          :
          :   linear?                        false          :
          :   energy convergence         0.5000000E-05 Eh   :
          :   grad. convergence          0.1000000E-02 Eh/α :
          :   maximium RF displ.         1.0000000          :
          :   Hlow (freq-cutoff)         0.1000000E-01      :
          :   Hmax (freq-cutoff)         5.0000000          :
          :   S6 in model hess.         20.0000000          :
          ...................................................

generating ANC from model Hessian ...
Using Lindh-Hessian (1995)
 Shifting diagonal of input Hessian by   2.242865041032332E-003
 Lowest  eigenvalues of input Hessian
   -0.000000   -0.000000    0.000000    0.000000    0.000000    0.000000
    0.010000    0.011516    0.012926    0.015586    0.019931    0.032525
    0.044642    0.053742    0.060247    0.071141    0.076342    0.094919
 Highest eigenvalues
    1.170380    1.174294    1.348161    1.393718    1.632001    2.104472
 

........................................................................
.............................. CYCLE    1 ..............................
........................................................................
   1    -21.7118953 -0.217119E+02  0.692E-05    3.31       0.0  T
   2    -21.7118953 -0.180123E-10  0.457E-05    3.31     631.1  T
   3    -21.7118953 -0.829914E-11  0.313E-05    3.31     923.3  T
     SCC iter.                  ...        0 min,  0.001 sec
     gradient                   ...        0 min,  0.002 sec
 * total energy  :   -21.5524249 Eh     change       -0.3783168E-08 Eh
   gradient norm :     0.1226101 Eh/α   predicted     0.0000000E+00 (-100.00%)
   displ. norm   :     0.2137928 α      lambda       -0.1416001E-01
   maximum displ.:     0.0842190 α      in ANC's #4, #9, #19, ...

........................................................................
.............................. CYCLE    2 ..............................
........................................................................
   1    -21.7313096 -0.217313E+02  0.350E-01    3.51       0.0  T
   2    -21.7315015 -0.191895E-03  0.216E-01    3.46       1.0  T
   3    -21.7315219 -0.204242E-04  0.760E-02    3.45       1.0  T
   4    -21.7315276 -0.572297E-05  0.198E-02    3.45       1.5  T
   5    -21.7315292 -0.157294E-05  0.930E-03    3.45       3.1  T
   6    -21.7315293 -0.141159E-06  0.571E-03    3.45       5.1  T
   7    -21.7315294 -0.703138E-07  0.217E-03    3.45      13.3  T
     SCC iter.                  ...        0 min,  0.003 sec
     gradient                   ...        0 min,  0.087 sec
 * total energy  :   -21.5617276 Eh     change       -0.9302661E-02 Eh
   gradient norm :     0.0439819 Eh/α   predicted    -0.7403613E-02 ( -20.41%)
   displ. norm   :     0.2129696 α      lambda       -0.3131030E-02
   maximum displ.:     0.1692006 α      in ANC's #4, #6, #7, ...

........................................................................
.............................. CYCLE    3 ..............................
........................................................................
   1    -21.7376606 -0.217377E+02  0.325E-01    3.54       0.0  T
   2    -21.7377348 -0.742032E-04  0.201E-01    3.52       1.0  T
   3    -21.7377456 -0.108315E-04  0.439E-02    3.50       1.0  T
   4    -21.7377497 -0.403280E-05  0.153E-02    3.51       1.9  T
   5    -21.7377507 -0.997118E-06  0.802E-03    3.51       3.6  T
   6    -21.7377508 -0.125742E-06  0.477E-03    3.51       6.1  T
   7    -21.7377509 -0.676328E-07  0.152E-03    3.51      18.9  T
     SCC iter.                  ...        0 min,  0.003 sec
     gradient                   ...        0 min,  0.001 sec
 * total energy  :   -21.5635892 Eh     change       -0.1861641E-02 Eh
   gradient norm :     0.0090091 Eh/α   predicted    -0.1636515E-02 ( -12.09%)
   displ. norm   :     0.1556176 α      lambda       -0.4650216E-03
   maximum displ.:     0.1350309 α      in ANC's #4, #1, #6, ...

........................................................................
.............................. CYCLE    4 ..............................
........................................................................
   1    -21.7371970 -0.217372E+02  0.232E-01    3.52       0.0  T
   2    -21.7372060 -0.898815E-05  0.145E-01    3.52       1.0  T
   3    -21.7372112 -0.526858E-05  0.128E-02    3.51       2.3  T
   4    -21.7372115 -0.263941E-06  0.671E-03    3.52       4.3  T
   5    -21.7372116 -0.105137E-06  0.371E-03    3.51       7.8  T
   6    -21.7372116 -0.410533E-07  0.966E-04    3.52      29.9  T
   7    -21.7372116 -0.265317E-08  0.557E-04    3.52      51.8  T
     SCC iter.                  ...        0 min,  0.002 sec
     gradient                   ...        0 min,  0.001 sec
 * total energy  :   -21.5638982 Eh     change       -0.3089475E-03 Eh
   gradient norm :     0.0102761 Eh/α   predicted    -0.2381408E-03 ( -22.92%)
   displ. norm   :     0.2281861 α      lambda       -0.4396633E-03
   maximum displ.:     0.1950021 α      in ANC's #4, #3, #6, ...

........................................................................
.............................. CYCLE    5 ..............................
........................................................................
   1    -21.7363096 -0.217363E+02  0.289E-01    3.54       0.0  T
   2    -21.7363207 -0.111324E-04  0.180E-01    3.53       1.0  T
   3    -21.7363274 -0.669971E-05  0.146E-02    3.53       2.0  T
   4    -21.7363277 -0.299596E-06  0.743E-03    3.53       3.9  T
   5    -21.7363278 -0.884903E-07  0.403E-03    3.53       7.2  T
   6    -21.7363279 -0.578606E-07  0.112E-03    3.53      25.8  T
   7    -21.7363279 -0.382390E-08  0.630E-04    3.53      45.8  T
     SCC iter.                  ...        0 min,  0.088 sec
     gradient                   ...        0 min,  0.002 sec
 * total energy  :   -21.5641401 Eh     change       -0.2419035E-03 Eh
   gradient norm :     0.0141987 Eh/α   predicted    -0.2312813E-03 (  -4.39%)
   displ. norm   :     0.1855900 α      lambda       -0.4449021E-03
   maximum displ.:     0.1557726 α      in ANC's #4, #1, #3, ...

........................................................................
.............................. CYCLE    6 ..............................
........................................................................
   1    -21.7359807 -0.217360E+02  0.270E-01    3.53       0.0  T
   2    -21.7359917 -0.109961E-04  0.169E-01    3.53       1.0  T
   3    -21.7359974 -0.567567E-05  0.153E-02    3.54       1.9  T
   4    -21.7359982 -0.841740E-06  0.866E-03    3.54       3.3  T
   5    -21.7359983 -0.602668E-07  0.355E-03    3.54       8.1  T
   6    -21.7359983 -0.387610E-07  0.110E-03    3.53      26.2  T
   7    -21.7359983 -0.421652E-08  0.402E-04    3.54      71.8  T
     SCC iter.                  ...        0 min,  0.002 sec
     gradient                   ...        0 min,  0.001 sec
 * total energy  :   -21.5644601 Eh     change       -0.3200737E-03 Eh
   gradient norm :     0.0145936 Eh/α   predicted    -0.2301142E-03 ( -28.11%)
   displ. norm   :     0.2156853 α      lambda       -0.6513722E-03
   maximum displ.:     0.1661829 α      in ANC's #4, #3, #1, ...

........................................................................
.............................. CYCLE    7 ..............................
........................................................................
   1    -21.7388011 -0.217388E+02  0.291E-01    3.58       0.0  T
   2    -21.7388112 -0.100384E-04  0.181E-01    3.58       1.0  T
   3    -21.7388162 -0.505464E-05  0.179E-02    3.58       1.6  T
   4    -21.7388178 -0.157356E-05  0.970E-03    3.58       3.0  T
   5    -21.7388179 -0.119370E-06  0.360E-03    3.58       8.0  T
   6    -21.7388180 -0.280404E-07  0.108E-03    3.58      26.7  T
   7    -21.7388180 -0.292217E-08  0.330E-04    3.58      87.6  T
     SCC iter.                  ...        0 min,  0.002 sec
     gradient                   ...        0 min,  0.002 sec
 * total energy  :   -21.5648348 Eh     change       -0.3746851E-03 Eh
   gradient norm :     0.0102863 Eh/α   predicted    -0.3408370E-03 (  -9.03%)
   displ. norm   :     0.3775635 α      lambda       -0.4914193E-03
   maximum displ.:     0.3077274 α      in ANC's #4, #3, #1, ...

........................................................................
.............................. CYCLE    8 ..............................
........................................................................
   1    -21.7329474 -0.217329E+02  0.479E-01    3.51       0.0  T
   2    -21.7329968 -0.494629E-04  0.300E-01    3.53       1.0  T
   3    -21.7330106 -0.137374E-04  0.396E-02    3.52       1.0  T
   4    -21.7330186 -0.799632E-05  0.166E-02    3.53       1.7  T
   5    -21.7330189 -0.379391E-06  0.983E-03    3.53       2.9  T
   6    -21.7330191 -0.182607E-06  0.317E-03    3.53       9.1  T
   7    -21.7330192 -0.326075E-07  0.799E-04    3.53      36.1  T
   8    -21.7330192 -0.162428E-08  0.393E-04    3.53      73.4  T
     SCC iter.                  ...        0 min,  0.088 sec
     gradient                   ...        0 min,  0.001 sec
 * total energy  :   -21.5648064 Eh     change        0.2839654E-04 Eh
   gradient norm :     0.0314856 Eh/α   predicted    -0.2807377E-03 (*******%)
   displ. norm   :     0.1218836 α      lambda       -0.8683879E-03
   maximum displ.:     0.1147750 α      in ANC's #4, #3, #15, ...

........................................................................
.............................. CYCLE    9 ..............................
........................................................................
   1    -21.7399310 -0.217399E+02  0.167E-01    3.61       0.0  T
   2    -21.7399465 -0.155310E-04  0.103E-01    3.59       1.0  T
   3    -21.7399463  0.214950E-06  0.276E-02    3.60       1.0  T
   4    -21.7399498 -0.352464E-05  0.748E-03    3.59       3.9  T
   5    -21.7399500 -0.169128E-06  0.420E-03    3.60       6.9  T
   6    -21.7399501 -0.392931E-07  0.200E-03    3.60      14.4  T
     SCC iter.                  ...        0 min,  0.002 sec
     gradient                   ...        0 min,  0.001 sec
 * total energy  :   -21.5652161 Eh     change       -0.4096499E-03 Eh
   gradient norm :     0.0057270 Eh/α   predicted    -0.4406444E-03 (   7.57%)
   displ. norm   :     0.1409485 α      lambda       -0.1768124E-03
   maximum displ.:     0.1001974 α      in ANC's #4, #1, #3, ...

........................................................................
.............................. CYCLE   10 ..............................
........................................................................
   1    -21.7401083 -0.217401E+02  0.183E-01    3.61       0.0  T
   2    -21.7401131 -0.481134E-05  0.115E-01    3.61       1.0  T
   3    -21.7401153 -0.221015E-05  0.123E-02    3.61       2.3  T
   4    -21.7401162 -0.837529E-06  0.635E-03    3.61       4.5  T
   5    -21.7401162 -0.556684E-07  0.296E-03    3.61       9.8  T
   6    -21.7401163 -0.203386E-07  0.665E-04    3.61      43.4  T
     SCC iter.                  ...        0 min,  0.002 sec
     gradient                   ...        0 min,  0.088 sec
 * total energy  :   -21.5653678 Eh     change       -0.1517403E-03 Eh
   gradient norm :     0.0048667 Eh/α   predicted    -0.9016438E-04 ( -40.58%)
   displ. norm   :     0.3901515 α      lambda       -0.3898924E-03
   maximum displ.:     0.3021535 α      in ANC's #4, #3, #1, ...

........................................................................
.............................. CYCLE   11 ..............................
........................................................................
   1    -21.7360270 -0.217360E+02  0.498E-01    3.58       0.0  T
   2    -21.7360750 -0.479969E-04  0.311E-01    3.59       1.0  T
   3    -21.7360940 -0.190205E-04  0.317E-02    3.59       1.0  T
   4    -21.7360977 -0.372389E-05  0.163E-02    3.60       1.8  T
   5    -21.7360980 -0.273125E-06  0.667E-03    3.59       4.3  T
   6    -21.7360981 -0.760088E-07  0.209E-03    3.59      13.8  T
   7    -21.7360981 -0.111977E-07  0.897E-04    3.59      32.2  T
     SCC iter.                  ...        0 min,  0.003 sec
     gradient                   ...        0 min,  0.002 sec
 * total energy  :   -21.5654616 Eh     change       -0.9380629E-04 Eh
   gradient norm :     0.0215085 Eh/α   predicted    -0.2246109E-03 ( 139.44%)
   displ. norm   :     0.1238583 α      lambda       -0.3491716E-03
   maximum displ.:     0.0920241 α      in ANC's #4, #3, #1, ...

........................................................................
.............................. CYCLE   12 ..............................
........................................................................
   1    -21.7401812 -0.217402E+02  0.163E-01    3.65       0.0  T
   2    -21.7401905 -0.924951E-05  0.102E-01    3.64       1.0  T
   3    -21.7401914 -0.936009E-06  0.186E-02    3.64       1.6  T
   4    -21.7401931 -0.167076E-05  0.584E-03    3.64       4.9  T
   5    -21.7401931 -0.723941E-07  0.348E-03    3.64       8.3  T
     SCC iter.                  ...        0 min,  0.002 sec
     gradient                   ...        0 min,  0.001 sec
 * total energy  :   -21.5655949 Eh     change       -0.1332620E-03 Eh
   gradient norm :     0.0039414 Eh/α   predicted    -0.1772645E-03 (  33.02%)
   displ. norm   :     0.0867500 α      lambda       -0.8225227E-04
   maximum displ.:     0.0646223 α      in ANC's #4, #3, #5, ...

........................................................................
.............................. CYCLE   13 ..............................
........................................................................
   1    -21.7404368 -0.217404E+02  0.117E-01    3.64       0.0  T
   2    -21.7404391 -0.222778E-05  0.736E-02    3.64       1.0  T
   3    -21.7404404 -0.134567E-05  0.665E-03    3.64       4.3  T
   4    -21.7404405 -0.100938E-06  0.395E-03    3.64       7.3  T
   5    -21.7404405 -0.156998E-07  0.127E-03    3.64      22.7  T
   6    -21.7404405 -0.446238E-08  0.451E-04    3.64      64.0  T
   7    -21.7404405 -0.627807E-09  0.209E-04    3.64     137.9  T
     SCC iter.                  ...        0 min,  0.006 sec
     gradient                   ...        0 min,  0.002 sec
 * total energy  :   -21.5656613 Eh     change       -0.6645865E-04 Eh
   gradient norm :     0.0042685 Eh/α   predicted    -0.4143457E-04 ( -37.65%)
   displ. norm   :     0.3501781 α      lambda       -0.2346862E-03
   maximum displ.:     0.2789727 α      in ANC's #4, #3, #1, ...

........................................................................
.............................. CYCLE   14 ..............................
........................................................................
   1    -21.7365590 -0.217366E+02  0.456E-01    3.62       0.0  T
   2    -21.7365937 -0.346761E-04  0.284E-01    3.63       1.0  T
   3    -21.7366092 -0.155621E-04  0.287E-02    3.62       1.0  T
   4    -21.7366124 -0.318082E-05  0.149E-02    3.63       1.9  T
   5    -21.7366126 -0.195470E-06  0.718E-03    3.62       4.0  T
   6    -21.7366127 -0.105013E-06  0.204E-03    3.62      14.1  T
   7    -21.7366127 -0.183489E-07  0.651E-04    3.62      44.3  T
     SCC iter.                  ...        0 min,  0.089 sec
     gradient                   ...        0 min,  0.002 sec
 * total energy  :   -21.5656376 Eh     change        0.2371905E-04 Eh
   gradient norm :     0.0200862 Eh/α   predicted    -0.1317319E-03 (-655.38%)
   displ. norm   :     0.1751806 α      lambda       -0.3930567E-03
   maximum displ.:     0.1411932 α      in ANC's #4, #1, #3, ...

........................................................................
.............................. CYCLE   15 ..............................
........................................................................
   1    -21.7409390 -0.217409E+02  0.234E-01    3.67       0.0  T
   2    -21.7409530 -0.140185E-04  0.145E-01    3.66       1.0  T
   3    -21.7409559 -0.287200E-05  0.195E-02    3.66       1.5  T
   4    -21.7409576 -0.175104E-05  0.751E-03    3.66       3.8  T
   5    -21.7409577 -0.787987E-07  0.414E-03    3.66       7.0  T
   6    -21.7409577 -0.251126E-07  0.159E-03    3.66      18.1  T
     SCC iter.                  ...        0 min,  0.003 sec
     gradient                   ...        0 min,  0.003 sec
 * total energy  :   -21.5657789 Eh     change       -0.1412428E-03 Eh
   gradient norm :     0.0027595 Eh/α   predicted    -0.2025592E-03 (  43.41%)
   displ. norm   :     0.0692191 α      lambda       -0.4622524E-04
   maximum displ.:     0.0498834 α      in ANC's #4, #2, #20, ...

........................................................................
.............................. CYCLE   16 ..............................
........................................................................
   1    -21.7408484 -0.217408E+02  0.918E-02    3.66       0.0  T
   2    -21.7408496 -0.129771E-05  0.571E-02    3.66       1.0  T
   3    -21.7408504 -0.720616E-06  0.526E-03    3.66       5.5  T
   4    -21.7408504 -0.798349E-07  0.306E-03    3.66       9.4  T
   5    -21.7408505 -0.961983E-08  0.103E-03    3.66      28.1  T
   6    -21.7408505 -0.195140E-08  0.310E-04    3.66      93.2  T
   7    -21.7408505 -0.396273E-09  0.114E-04    3.66     252.2  T
     SCC iter.                  ...        0 min,  0.004 sec
     gradient                   ...        0 min,  0.001 sec
 * total energy  :   -21.5658184 Eh     change       -0.3954618E-04 Eh
   gradient norm :     0.0030157 Eh/α   predicted    -0.2322290E-04 ( -41.28%)
   displ. norm   :     0.3583946 α      lambda       -0.1905687E-03
   maximum displ.:     0.2490296 α      in ANC's #4, #3, #2, ...

........................................................................
.............................. CYCLE   17 ..............................
........................................................................
   1    -21.7365742 -0.217366E+02  0.440E-01    3.63       0.0  T
   2    -21.7366024 -0.282032E-04  0.274E-01    3.64       1.0  T
   3    -21.7366172 -0.148369E-04  0.288E-02    3.64       1.0  T
   4    -21.7366207 -0.340656E-05  0.155E-02    3.64       1.9  T
   5    -21.7366209 -0.214409E-06  0.724E-03    3.64       4.0  T
   6    -21.7366210 -0.131732E-06  0.163E-03    3.64      17.7  T
   7    -21.7366210 -0.998924E-08  0.576E-04    3.64      50.1  T
   8    -21.7366210 -0.545469E-09  0.258E-04    3.64     111.7  T
     SCC iter.                  ...        0 min,  0.092 sec
     gradient                   ...        0 min,  0.002 sec
 * total energy  :   -21.5657533 Eh     change        0.6511433E-04 Eh
   gradient norm :     0.0169177 Eh/α   predicted    -0.1075183E-03 (-265.12%)
   displ. norm   :     0.2015179 α      lambda       -0.4323161E-03
   maximum displ.:     0.1511130 α      in ANC's #4, #3, #20, ...

........................................................................
.............................. CYCLE   18 ..............................
........................................................................
   1    -21.7410285 -0.217410E+02  0.255E-01    3.68       0.0  T
   2    -21.7410404 -0.118882E-04  0.158E-01    3.67       1.0  T
   3    -21.7410445 -0.409974E-05  0.193E-02    3.68       1.5  T
   4    -21.7410464 -0.183134E-05  0.898E-03    3.67       3.2  T
   5    -21.7410465 -0.938821E-07  0.481E-03    3.67       6.0  T
   6    -21.7410465 -0.451457E-07  0.147E-03    3.67      19.6  T
   7    -21.7410465 -0.682295E-08  0.427E-04    3.67      67.6  T
     SCC iter.                  ...        0 min,  0.003 sec
     gradient                   ...        0 min,  0.002 sec
 * total energy  :   -21.5658986 Eh     change       -0.1452903E-03 Eh
   gradient norm :     0.0021054 Eh/α   predicted    -0.2249335E-03 (  54.82%)
   displ. norm   :     0.0644764 α      lambda       -0.3198485E-04
   maximum displ.:     0.0323124 α      in ANC's #4, #2, #3, ...

........................................................................
.............................. CYCLE   19 ..............................
........................................................................
   1    -21.7408998 -0.217409E+02  0.783E-02    3.67       0.0  T
   2    -21.7409007 -0.891905E-06  0.488E-02    3.67       1.0  T
   3    -21.7409012 -0.562810E-06  0.444E-03    3.67       6.5  T
   4    -21.7409013 -0.457590E-07  0.265E-03    3.67      10.9  T
   5    -21.7409013 -0.736154E-08  0.624E-04    3.67      46.3  T
   6    -21.7409013 -0.773284E-09  0.223E-04    3.67     129.5  T
     SCC iter.                  ...        0 min,  0.002 sec
     gradient                   ...        0 min,  0.001 sec
 * total energy  :   -21.5659275 Eh     change       -0.2892112E-04 Eh
   gradient norm :     0.0024540 Eh/α   predicted    -0.1606029E-04 ( -44.47%)
   displ. norm   :     0.3640425 α      lambda       -0.1576754E-03
   maximum displ.:     0.1892451 α      in ANC's #4, #2, #3, ...

........................................................................
.............................. CYCLE   20 ..............................
........................................................................
   1    -21.7364789 -0.217365E+02  0.437E-01    3.63       0.0  T
   2    -21.7365105 -0.316053E-04  0.273E-01    3.64       1.0  T
   3    -21.7365265 -0.159808E-04  0.291E-02    3.63       1.0  T
   4    -21.7365297 -0.314358E-05  0.157E-02    3.64       1.8  T
   5    -21.7365299 -0.204045E-06  0.686E-03    3.64       4.2  T
   6    -21.7365300 -0.116108E-06  0.212E-03    3.64      13.6  T
   7    -21.7365300 -0.186827E-07  0.764E-04    3.64      37.8  T
   8    -21.7365300 -0.148615E-08  0.431E-04    3.64      67.0  T
     SCC iter.                  ...        0 min,  0.003 sec
     gradient                   ...        0 min,  0.001 sec
 * total energy  :   -21.5658781 Eh     change        0.4938406E-04 Eh
   gradient norm :     0.0165179 Eh/α   predicted    -0.8928925E-04 (-280.81%)
   displ. norm   :     0.2096767 α      lambda       -0.3587725E-03
   maximum displ.:     0.1267293 α      in ANC's #4, #2, #3, ...
 * RMSD in coord.:     0.6360446 α      energy gain  -0.1345322E-01 Eh

generating ANC from model Hessian ...
Using Lindh-Hessian (1995)
 Shifting diagonal of input Hessian by   3.413313696824747E-003
 Lowest  eigenvalues of input Hessian
   -0.000000   -0.000000   -0.000000   -0.000000    0.000000    0.000000
    0.010000    0.012367    0.013609    0.016037    0.019949    0.028581
    0.043579    0.056409    0.064293    0.073841    0.077652    0.101079
 Highest eigenvalues
    1.144100    1.182226    1.283760    1.344843    1.478641    2.225892
 

........................................................................
.............................. CYCLE   21 ..............................
........................................................................
   1    -21.7409798 -0.217410E+02  0.263E-01    3.68       0.0  T
   2    -21.7409937 -0.138987E-04  0.163E-01    3.67       1.0  T
   3    -21.7409986 -0.496073E-05  0.199E-02    3.68       1.4  T
   4    -21.7410004 -0.172135E-05  0.951E-03    3.67       3.0  T
   5    -21.7410005 -0.101614E-06  0.481E-03    3.67       6.0  T
   6    -21.7410005 -0.422878E-07  0.168E-03    3.67      17.2  T
   7    -21.7410005 -0.104432E-07  0.490E-04    3.67      58.9  T
   8    -21.7410005 -0.744432E-09  0.274E-04    3.67     105.4  T
     SCC iter.                  ...        0 min,  0.003 sec
     gradient                   ...        0 min,  0.001 sec
 * total energy  :   -21.5659936 Eh     change       -0.1154984E-03 Eh
   gradient norm :     0.0025586 Eh/α   predicted     0.0000000E+00 (-100.00%)
   displ. norm   :     0.0470301 α      lambda       -0.4410969E-04
   maximum displ.:     0.0353517 α      in ANC's #2, #1, #6, ...

........................................................................
.............................. CYCLE   22 ..............................
........................................................................
   1    -21.7410718 -0.217411E+02  0.768E-02    3.67       0.0  T
   2    -21.7410727 -0.896305E-06  0.490E-02    3.67       1.0  T
   3    -21.7410733 -0.596550E-06  0.342E-03    3.67       8.4  T
   4    -21.7410733 -0.215864E-07  0.189E-03    3.67      15.3  T
   5    -21.7410733 -0.416438E-08  0.519E-04    3.67      55.6  T
   6    -21.7410733 -0.598174E-09  0.261E-04    3.67     110.5  T
     SCC iter.                  ...        0 min,  0.001 sec
     gradient                   ...        0 min,  0.001 sec
 * total energy  :   -21.5660119 Eh     change       -0.1828545E-04 Eh
   gradient norm :     0.0025628 Eh/α   predicted    -0.2210414E-04 (  20.88%)
   displ. norm   :     0.0469993 α      lambda       -0.4177414E-04
   maximum displ.:     0.0242098 α      in ANC's #6, #1, #2, ...

........................................................................
.............................. CYCLE   23 ..............................
........................................................................
   1    -21.7411340 -0.217411E+02  0.105E-01    3.66       0.0  T
   2    -21.7411359 -0.182782E-05  0.673E-02    3.66       1.0  T
   3    -21.7411371 -0.120467E-05  0.492E-03    3.66       5.9  T
   4    -21.7411372 -0.720845E-07  0.277E-03    3.66      10.4  T
   5    -21.7411372 -0.986876E-08  0.101E-03    3.66      28.5  T
   6    -21.7411372 -0.357764E-08  0.460E-04    3.66      62.8  T
   7    -21.7411372 -0.835097E-09  0.254E-04    3.66     113.7  T
     SCC iter.                  ...        0 min,  0.002 sec
     gradient                   ...        0 min,  0.001 sec
 * total energy  :   -21.5660424 Eh     change       -0.3046696E-04 Eh
   gradient norm :     0.0017658 Eh/α   predicted    -0.2093409E-04 ( -31.29%)
   displ. norm   :     0.1259637 α      lambda       -0.3863811E-04
   maximum displ.:     0.0719033 α      in ANC's #2, #6, #4, ...

........................................................................
.............................. CYCLE   24 ..............................
........................................................................
   1    -21.7406293 -0.217406E+02  0.255E-01    3.65       0.0  T
   2    -21.7406396 -0.102522E-04  0.163E-01    3.65       1.0  T
   3    -21.7406466 -0.704004E-05  0.121E-02    3.65       2.4  T
   4    -21.7406470 -0.377589E-06  0.713E-03    3.65       4.0  T
   5    -21.7406471 -0.542495E-07  0.212E-03    3.65      13.6  T
   6    -21.7406471 -0.228624E-07  0.107E-03    3.65      27.1  T
   7    -21.7406471 -0.449197E-08  0.518E-04    3.65      55.8  T
   8    -21.7406471 -0.112504E-08  0.188E-04    3.65     153.9  T
     SCC iter.                  ...        0 min,  0.002 sec
     gradient                   ...        0 min,  0.001 sec
 * total energy  :   -21.5660686 Eh     change       -0.2620056E-04 Eh
   gradient norm :     0.0054965 Eh/α   predicted    -0.1945559E-04 ( -25.74%)
   displ. norm   :     0.0267385 α      lambda       -0.2629315E-04
   maximum displ.:     0.0159568 α      in ANC's #4, #2, #5, ...

........................................................................
.............................. CYCLE   25 ..............................
........................................................................
   1    -21.7408374 -0.217408E+02  0.345E-02    3.65       0.0  T
   2    -21.7408376 -0.167830E-06  0.214E-02    3.65       1.4  T
   3    -21.7408377 -0.112355E-06  0.190E-03    3.65      15.2  T
   4    -21.7408377 -0.354552E-08  0.948E-04    3.65      30.4  T
     SCC iter.                  ...        0 min,  0.002 sec
     gradient                   ...        0 min,  0.001 sec
 * total energy  :   -21.5660901 Eh     change       -0.2152252E-04 Eh
   gradient norm :     0.0032162 Eh/α   predicted    -0.1315500E-04 ( -38.88%)
   displ. norm   :     0.1218650 α      lambda       -0.5503152E-04
   maximum displ.:     0.0767596 α      in ANC's #2, #4, #6, ...

........................................................................
.............................. CYCLE   26 ..............................
........................................................................
   1    -21.7406306 -0.217406E+02  0.179E-01    3.65       0.0  T
   2    -21.7406348 -0.425789E-05  0.113E-01    3.65       1.0  T
   3    -21.7406378 -0.296024E-05  0.929E-03    3.65       3.1  T
   4    -21.7406380 -0.151787E-06  0.552E-03    3.65       5.2  T
   5    -21.7406380 -0.310780E-07  0.136E-03    3.65      21.3  T
   6    -21.7406380 -0.859342E-08  0.631E-04    3.65      45.8  T
   7    -21.7406380 -0.104604E-08  0.263E-04    3.65     109.9  T
     SCC iter.                  ...        0 min,  0.002 sec
     gradient                   ...        0 min,  0.001 sec
 * total energy  :   -21.5661257 Eh     change       -0.3564189E-04 Eh
   gradient norm :     0.0024846 Eh/α   predicted    -0.2792407E-04 ( -21.65%)
   displ. norm   :     0.0847521 α      lambda       -0.2207584E-04
   maximum displ.:     0.0521234 α      in ANC's #2, #4, #6, ...

........................................................................
.............................. CYCLE   27 ..............................
........................................................................
   1    -21.7405593 -0.217406E+02  0.135E-01    3.65       0.0  T
   2    -21.7405618 -0.243571E-05  0.855E-02    3.65       1.0  T
   3    -21.7405635 -0.171681E-05  0.676E-03    3.65       4.3  T
   4    -21.7405636 -0.766361E-07  0.404E-03    3.65       7.2  T
   5    -21.7405636 -0.155937E-07  0.874E-04    3.65      33.0  T
   6    -21.7405636 -0.380818E-08  0.441E-04    3.65      65.5  T
     SCC iter.                  ...        0 min,  0.091 sec
     gradient                   ...        0 min,  0.001 sec
 * total energy  :   -21.5661429 Eh     change       -0.1718794E-04 Eh
   gradient norm :     0.0030915 Eh/α   predicted    -0.1111640E-04 ( -35.32%)
   displ. norm   :     0.1308127 α      lambda       -0.4146022E-04
   maximum displ.:     0.0797089 α      in ANC's #2, #4, #6, ...

........................................................................
.............................. CYCLE   28 ..............................
........................................................................
   1    -21.7407963 -0.217408E+02  0.205E-01    3.65       0.0  T
   2    -21.7408017 -0.538074E-05  0.129E-01    3.65       1.0  T
   3    -21.7408055 -0.378130E-05  0.101E-02    3.65       2.9  T
   4    -21.7408057 -0.152615E-06  0.595E-03    3.65       4.9  T
   5    -21.7408057 -0.349051E-07  0.114E-03    3.65      25.4  T
   6    -21.7408057 -0.345667E-08  0.593E-04    3.65      48.7  T
   7    -21.7408057 -0.124698E-08  0.282E-04    3.65     102.4  T
     SCC iter.                  ...        0 min,  0.005 sec
     gradient                   ...        0 min,  0.093 sec
 * total energy  :   -21.5661730 Eh     change       -0.3008915E-04 Eh
   gradient norm :     0.0026991 Eh/α   predicted    -0.2108481E-04 ( -29.93%)
   displ. norm   :     0.1243219 α      lambda       -0.3549316E-04
   maximum displ.:     0.0819733 α      in ANC's #2, #4, #6, ...

........................................................................
.............................. CYCLE   29 ..............................
........................................................................
   1    -21.7409113 -0.217409E+02  0.186E-01    3.65       0.0  T
   2    -21.7409154 -0.409527E-05  0.116E-01    3.65       1.0  T
   3    -21.7409182 -0.278894E-05  0.918E-03    3.65       3.1  T
   4    -21.7409183 -0.153706E-06  0.548E-03    3.65       5.3  T
   5    -21.7409183 -0.271949E-07  0.958E-04    3.65      30.1  T
   6    -21.7409183 -0.171068E-08  0.473E-04    3.65      61.0  T
     SCC iter.                  ...        0 min,  0.002 sec
     gradient                   ...        0 min,  0.001 sec
 * total energy  :   -21.5662014 Eh     change       -0.2836494E-04 Eh
   gradient norm :     0.0022460 Eh/α   predicted    -0.1801988E-04 ( -36.47%)
   displ. norm   :     0.1845926 α      lambda       -0.5214832E-04
   maximum displ.:     0.1274273 α      in ANC's #2, #1, #4, ...

........................................................................
.............................. CYCLE   30 ..............................
........................................................................
   1    -21.7410664 -0.217411E+02  0.249E-01    3.65       0.0  T
   2    -21.7410730 -0.659803E-05  0.155E-01    3.65       1.0  T
   3    -21.7410774 -0.440529E-05  0.121E-02    3.65       2.4  T
   4    -21.7410776 -0.271295E-06  0.728E-03    3.65       4.0  T
   5    -21.7410777 -0.505197E-07  0.147E-03    3.65      19.7  T
   6    -21.7410777 -0.330285E-08  0.622E-04    3.65      46.4  T
   7    -21.7410777 -0.165520E-08  0.270E-04    3.65     106.8  T
     SCC iter.                  ...        0 min,  0.002 sec
     gradient                   ...        0 min,  0.091 sec
 * total energy  :   -21.5662410 Eh     change       -0.3959208E-04 Eh
   gradient norm :     0.0015563 Eh/α   predicted    -0.2696055E-04 ( -31.90%)
   displ. norm   :     0.6318968 α      lambda       -0.7592411E-04
   maximum displ.:     0.4495346 α      in ANC's #2, #4, #1, ...

........................................................................
.............................. CYCLE   31 ..............................
........................................................................
   1    -21.7254533 -0.217255E+02  0.901E-01    3.53       0.0  T
   2    -21.7255809 -0.127593E-03  0.564E-01    3.56       1.0  T
   3    -21.7256201 -0.392133E-04  0.745E-02    3.55       1.0  T
   4    -21.7256528 -0.326138E-04  0.323E-02    3.57       1.0  T
   5    -21.7256541 -0.132030E-05  0.165E-02    3.56       1.7  T
   6    -21.7256546 -0.502573E-06  0.544E-03    3.56       5.3  T
   7    -21.7256547 -0.964006E-07  0.182E-03    3.56      15.9  T
   8    -21.7256547 -0.892074E-08  0.889E-04    3.56      32.5  T
   9    -21.7256547 -0.301063E-08  0.372E-04    3.56      77.6  T
     SCC iter.                  ...        0 min,  0.002 sec
     gradient                   ...        0 min,  0.001 sec
 * total energy  :   -21.5641897 Eh     change        0.2051308E-02 Eh
   gradient norm :     0.0571626 Eh/α   predicted    -0.4469677E-04 (-102.18%)
   displ. norm   :     0.2143507 α      lambda       -0.4100465E-02
   maximum displ.:     0.1292212 α      in ANC's #4, #2, #6, ...

........................................................................
.............................. CYCLE   32 ..............................
........................................................................
   1    -21.7396276 -0.217396E+02  0.380E-01    3.69       0.0  T
   2    -21.7396900 -0.624843E-04  0.238E-01    3.67       1.0  T
   3    -21.7396981 -0.808907E-05  0.529E-02    3.68       1.0  T
   4    -21.7397107 -0.125236E-04  0.192E-02    3.67       1.5  T
   5    -21.7397117 -0.101576E-05  0.951E-03    3.67       3.0  T
   6    -21.7397118 -0.161650E-06  0.440E-03    3.67       6.6  T
   7    -21.7397119 -0.526613E-07  0.147E-03    3.67      19.7  T
     SCC iter.                  ...        0 min,  0.002 sec
     gradient                   ...        0 min,  0.001 sec
 * total energy  :   -21.5662848 Eh     change       -0.2095094E-02 Eh
   gradient norm :     0.0064829 Eh/α   predicted    -0.2144430E-02 (   2.35%)
   displ. norm   :     0.0568098 α      lambda       -0.1093545E-03
   maximum displ.:     0.0445053 α      in ANC's #5, #4, #1, ...

........................................................................
.............................. CYCLE   33 ..............................
........................................................................
   1    -21.7404789 -0.217405E+02  0.844E-02    3.63       0.0  T
   2    -21.7404833 -0.446104E-05  0.520E-02    3.64       1.0  T
   3    -21.7404842 -0.861550E-06  0.129E-02    3.64       2.2  T
   4    -21.7404846 -0.451809E-06  0.509E-03    3.64       5.7  T
   5    -21.7404847 -0.972779E-07  0.248E-03    3.64      11.6  T
   6    -21.7404847 -0.101791E-07  0.114E-03    3.64      25.3  T
     SCC iter.                  ...        0 min,  0.003 sec
     gradient                   ...        0 min,  0.001 sec
 * total energy  :   -21.5662527 Eh     change        0.3210380E-04 Eh
   gradient norm :     0.0121143 Eh/α   predicted    -0.5485284E-04 (-270.86%)
   displ. norm   :     0.0414389 α      lambda       -0.1633569E-03
   maximum displ.:     0.0251886 α      in ANC's #5, #3, #6, ...

........................................................................
.............................. CYCLE   34 ..............................
........................................................................
   1    -21.7423466 -0.217423E+02  0.782E-02    3.68       0.0  T
   2    -21.7423494 -0.277751E-05  0.490E-02    3.68       1.0  T
   3    -21.7423495 -0.941015E-07  0.113E-02    3.68       2.6  T
   4    -21.7423501 -0.608755E-06  0.329E-03    3.67       8.8  T
   5    -21.7423501 -0.333926E-07  0.180E-03    3.68      16.1  T
   6    -21.7423501 -0.504198E-08  0.825E-04    3.68      35.0  T
     SCC iter.                  ...        0 min,  0.002 sec
     gradient                   ...        0 min,  0.001 sec
 * total energy  :   -21.5663106 Eh     change       -0.5793717E-04 Eh
   gradient norm :     0.0038770 Eh/α   predicted    -0.8182039E-04 (  41.22%)
   displ. norm   :     0.0341530 α      lambda       -0.4620884E-04
   maximum displ.:     0.0232712 α      in ANC's #2, #3, #1, ...

........................................................................
.............................. CYCLE   35 ..............................
........................................................................
   1    -21.7412613 -0.217413E+02  0.324E-02    3.68       0.0  T
   2    -21.7412617 -0.457260E-06  0.201E-02    3.68       1.4  T
   3    -21.7412618 -0.684344E-07  0.338E-03    3.68       8.5  T
   4    -21.7412618 -0.201119E-07  0.149E-03    3.68      19.4  T
   5    -21.7412618 -0.109651E-07  0.660E-04    3.68      43.7  T
   6    -21.7412618 -0.922068E-09  0.232E-04    3.68     124.2  T
     SCC iter.                  ...        0 min,  0.002 sec
     gradient                   ...        0 min,  0.001 sec
 * total energy  :   -21.5663186 Eh     change       -0.7986730E-05 Eh
   gradient norm :     0.0033524 Eh/α   predicted    -0.2313039E-04 ( 189.61%)
   displ. norm   :     0.0223762 α      lambda       -0.2093950E-04
   maximum displ.:     0.0119481 α      in ANC's #1, #3, #4, ...

........................................................................
.............................. CYCLE   36 ..............................
........................................................................
   1    -21.7412190 -0.217412E+02  0.301E-02    3.66       0.0  T
   2    -21.7412194 -0.369772E-06  0.184E-02    3.67       1.6  T
   3    -21.7412195 -0.529746E-07  0.313E-03    3.67       9.2  T
   4    -21.7412195 -0.267667E-07  0.119E-03    3.67      24.2  T
   5    -21.7412195 -0.628883E-08  0.570E-04    3.67      50.6  T
   6    -21.7412195 -0.361425E-09  0.307E-04    3.67      93.9  T
     SCC iter.                  ...        0 min,  0.001 sec
     gradient                   ...        0 min,  0.001 sec
 * total energy  :   -21.5663296 Eh     change       -0.1104983E-04 Eh
   gradient norm :     0.0010102 Eh/α   predicted    -0.1047554E-04 (  -5.20%)
   displ. norm   :     0.0465954 α      lambda       -0.5814975E-05
   maximum displ.:     0.0311135 α      in ANC's #2, #1, #5, ...

........................................................................
.............................. CYCLE   37 ..............................
........................................................................
   1    -21.7416080 -0.217416E+02  0.644E-02    3.67       0.0  T
   2    -21.7416085 -0.452741E-06  0.402E-02    3.67       1.0  T
   3    -21.7416088 -0.319484E-06  0.297E-03    3.67       9.7  T
   4    -21.7416088 -0.553920E-08  0.150E-03    3.67      19.2  T
   5    -21.7416088 -0.166069E-08  0.373E-04    3.67      77.4  T
   6    -21.7416088 -0.500467E-09  0.163E-04    3.67     177.1  T
     SCC iter.                  ...        0 min,  0.002 sec
     gradient                   ...        0 min,  0.001 sec
 * total energy  :   -21.5663362 Eh     change       -0.6579757E-05 Eh
   gradient norm :     0.0010447 Eh/α   predicted    -0.2911035E-05 ( -55.76%)
   displ. norm   :     0.2308479 α      lambda       -0.2270042E-04
   maximum displ.:     0.1565721 α      in ANC's #2, #1, #5, ...

........................................................................
.............................. CYCLE   38 ..............................
........................................................................
   1    -21.7403092 -0.217403E+02  0.319E-01    3.67       0.0  T
   2    -21.7403202 -0.109820E-04  0.199E-01    3.67       1.0  T
   3    -21.7403275 -0.732366E-05  0.167E-02    3.67       1.7  T
   4    -21.7403282 -0.643719E-06  0.996E-03    3.67       2.9  T
   5    -21.7403283 -0.106010E-06  0.266E-03    3.67      10.8  T
   6    -21.7403283 -0.261938E-07  0.863E-04    3.67      33.5  T
   7    -21.7403283 -0.172323E-08  0.355E-04    3.67      81.3  T
     SCC iter.                  ...        0 min,  0.003 sec
     gradient                   ...        0 min,  0.001 sec
 * total energy  :   -21.5663565 Eh     change       -0.2030721E-04 Eh
   gradient norm :     0.0045024 Eh/α   predicted    -0.1161998E-04 ( -42.78%)
   displ. norm   :     0.0155563 α      lambda       -0.1311258E-04
   maximum displ.:     0.0089531 α      in ANC's #3, #2, #1, ...

........................................................................
.............................. CYCLE   39 ..............................
........................................................................
   1    -21.7410702 -0.217411E+02  0.203E-02    3.68       0.0  T
   2    -21.7410704 -0.191831E-06  0.124E-02    3.68       2.3  T
   3    -21.7410704 -0.205137E-07  0.258E-03    3.68      11.2  T
   4    -21.7410704 -0.197718E-07  0.943E-04    3.67      30.6  T
     SCC iter.                  ...        0 min,  0.001 sec
     gradient                   ...        0 min,  0.002 sec
 * total energy  :   -21.5663649 Eh     change       -0.8354564E-05 Eh
   gradient norm :     0.0018463 Eh/α   predicted    -0.6559288E-05 ( -21.49%)
   displ. norm   :     0.1077062 α      lambda       -0.1122945E-04
   maximum displ.:     0.0693184 α      in ANC's #2, #1, #4, ...

........................................................................
.............................. CYCLE   40 ..............................
........................................................................
   1    -21.7411766 -0.217412E+02  0.153E-01    3.68       0.0  T
   2    -21.7411794 -0.273787E-05  0.954E-02    3.68       1.0  T
   3    -21.7411811 -0.176111E-05  0.757E-03    3.68       3.8  T
   4    -21.7411812 -0.898961E-07  0.451E-03    3.68       6.4  T
   5    -21.7411812 -0.130618E-07  0.156E-03    3.68      18.5  T
   6    -21.7411812 -0.104457E-07  0.400E-04    3.68      72.2  T
   7    -21.7411812 -0.301501E-09  0.185E-04    3.68     156.1  T
     SCC iter.                  ...        0 min,  0.002 sec
     gradient                   ...        0 min,  0.001 sec
 * total energy  :   -21.5663732 Eh     change       -0.8364554E-05 Eh
   gradient norm :     0.0028823 Eh/α   predicted    -0.5642964E-05 ( -32.54%)
   displ. norm   :     0.0328981 α      lambda       -0.1540507E-04
   maximum displ.:     0.0140397 α      in ANC's #6, #2, #4, ...

........................................................................
.............................. CYCLE   41 ..............................
........................................................................
   1    -21.7417276 -0.217417E+02  0.636E-02    3.68       0.0  T
   2    -21.7417282 -0.598831E-06  0.404E-02    3.68       1.0  T
   3    -21.7417286 -0.387885E-06  0.274E-03    3.68      10.5  T
   4    -21.7417286 -0.657844E-08  0.152E-03    3.68      19.0  T
   5    -21.7417286 -0.860602E-09  0.471E-04    3.68      61.2  T
   6    -21.7417286 -0.639460E-09  0.150E-04    3.68     192.5  T
     SCC iter.                  ...        0 min,  0.092 sec
     gradient                   ...        0 min,  0.001 sec
 * total energy  :   -21.5663852 Eh     change       -0.1198042E-04 Eh
   gradient norm :     0.0021225 Eh/α   predicted    -0.7711545E-05 ( -35.63%)
   displ. norm   :     0.1533570 α      lambda       -0.3218471E-04
   maximum displ.:     0.0825109 α      in ANC's #2, #6, #5, ...

........................................................................
.............................. CYCLE   42 ..............................
........................................................................
   1    -21.7409161 -0.217409E+02  0.259E-01    3.67       0.0  T
   2    -21.7409251 -0.905200E-05  0.163E-01    3.68       1.0  T
   3    -21.7409308 -0.572572E-05  0.139E-02    3.67       2.1  T
   4    -21.7409315 -0.605819E-06  0.781E-03    3.68       3.7  T
   5    -21.7409315 -0.528670E-07  0.243E-03    3.68      11.9  T
   6    -21.7409315 -0.174722E-07  0.750E-04    3.68      38.5  T
   7    -21.7409315 -0.161828E-08  0.283E-04    3.68     102.1  T
     SCC iter.                  ...        0 min,  0.002 sec
     gradient                   ...        0 min,  0.001 sec
 * total energy  :   -21.5664030 Eh     change       -0.1776456E-04 Eh
   gradient norm :     0.0038851 Eh/α   predicted    -0.1646996E-04 (  -7.29%)
   displ. norm   :     0.0276949 α      lambda       -0.2060184E-04
   maximum displ.:     0.0150145 α      in ANC's #3, #1, #19, ...
 * RMSD in coord.:     0.5226919 α      energy gain  -0.5248574E-03 Eh

generating ANC from model Hessian ...
Using Lindh-Hessian (1995)
 Shifting diagonal of input Hessian by   3.628445103277036E-003
 Lowest  eigenvalues of input Hessian
   -0.000000   -0.000000    0.000000    0.000000    0.000000    0.000000
    0.010000    0.013049    0.014542    0.017836    0.020930    0.026128
    0.046983    0.054705    0.062849    0.072227    0.076279    0.097018
 Highest eigenvalues
    1.144341    1.178532    1.291074    1.343533    1.482825    2.220371
 

........................................................................
.............................. CYCLE   43 ..............................
........................................................................
   1    -21.7414143 -0.217414E+02  0.490E-02    3.68       0.0  T
   2    -21.7414148 -0.513652E-06  0.312E-02    3.68       1.0  T
   3    -21.7414151 -0.263197E-06  0.280E-03    3.68      10.3  T
   4    -21.7414151 -0.120735E-07  0.123E-03    3.68      23.4  T
   5    -21.7414151 -0.273714E-08  0.641E-04    3.68      45.0  T
   6    -21.7414151 -0.703618E-09  0.199E-04    3.68     145.0  T
     SCC iter.                  ...        0 min,  0.002 sec
     gradient                   ...        0 min,  0.001 sec
 * total energy  :   -21.5664131 Eh     change       -0.1012067E-04 Eh
   gradient norm :     0.0016448 Eh/α   predicted     0.0000000E+00 (-100.00%)
   displ. norm   :     0.0185784 α      lambda       -0.6296789E-05
   maximum displ.:     0.0130924 α      in ANC's #6, #5, #3, ...

........................................................................
.............................. CYCLE   44 ..............................
........................................................................
   1    -21.7415900 -0.217416E+02  0.402E-02    3.68       0.0  T
   2    -21.7415903 -0.282991E-06  0.255E-02    3.68       1.1  T
   3    -21.7415904 -0.134517E-06  0.192E-03    3.68      15.1  T
   4    -21.7415905 -0.512670E-08  0.905E-04    3.68      31.9  T
   5    -21.7415905 -0.508855E-09  0.423E-04    3.68      68.3  T
     SCC iter.                  ...        0 min,  0.002 sec
     gradient                   ...        0 min,  0.001 sec
 * total energy  :   -21.5664175 Eh     change       -0.4377836E-05 Eh
   gradient norm :     0.0009677 Eh/α   predicted    -0.3147966E-05 ( -28.09%)
   displ. norm   :     0.0340860 α      lambda       -0.8309164E-05
   maximum displ.:     0.0233709 α      in ANC's #6, #5, #2, ...

   *** GEOMETRY OPTIMIZATION CONVERGED AFTER 44 ITERATIONS ***

------------------------------------------------------------------------
 total energy gain   :        -0.0139926 Eh       -8.7805 kcal/mol
 total RMSD          :         1.0551244 a0        0.5583 Å
 total power (kW/mol):        -0.8349432 (step)  -15.3240 (real)
------------------------------------------------------------------------

 ANCopt (total)                0 d,  0 h,  0 min,  2.397 sec
 optimizer setup                ...        0 min,  0.000 sec (  0.016%)
 model hessian                  ...        0 min,  0.180 sec (  7.493%)
 ANC generation                 ...        0 min,  0.003 sec (  0.127%)
 coordinate transformation      ...        0 min,  0.002 sec (  0.071%)
 single point calculation       ...        0 min,  1.814 sec ( 75.680%)
 optimization log               ...        0 min,  0.004 sec (  0.161%)
 hessian update                 ...        0 min,  0.384 sec ( 16.002%)
 rational function              ...        0 min,  0.004 sec (  0.146%)

================
 final structure:
================
12
 xtb: 6.2.3 (830e466)
C         1.30341013392109    1.09627112176137   -1.26911146220828
C        -0.19617558010939    0.79216713139740   -1.21480894579182
C         2.10837014763481   -0.15869049848514   -1.52911663344208
O         1.64892912533318    2.00719013463151   -2.28751001561799
O         1.19725205505511    3.31144394696841   -1.91855340069849
O         1.97320650474485   -1.18444357503166   -0.92958529021786
H         1.53172369951756    3.85307557569571   -2.64512902064273
H         1.62545527648216    1.50460925720880   -0.29702812837597
H        -0.53576161806413    0.44176996713717   -2.18644133398122
H         2.85234481913529   -0.03706370655669   -2.33658452825046
H        -0.37547820129993    0.02125274982140   -0.47175850213871
H        -0.74426636235056    1.69202789545170   -0.95017273863441
 
 Bond Distances (Angstroems)
 ---------------------------
C1-C2=1.5311         C1-C3=1.5134         C1-O4=1.4094         C1-H8=1.1025         C2-C1=1.5311         C2-H9=1.0873         
C2-H11=1.0856        C2-H12=1.0864        C3-C1=1.5134         C3-O6=1.1958         C3-H10=1.1047        O4-C1=1.4094         
O4-O5=1.4287         O5-O4=1.4287         O5-H7=0.9660         O6-C3=1.1958         H7-O5=0.9660         H8-C1=1.1025         
H9-C2=1.0873         H10-C3=1.1047        H11-C2=1.0856        H12-C2=1.0864        
 C  H  Rav=1.0933 sigma=0.0084  Rmin=1.0856  Rmax=1.1047     5
 C  C  Rav=1.5223 sigma=0.0088  Rmin=1.5134  Rmax=1.5311     2
 O  H  Rav=0.9660 sigma=0.0000  Rmin=0.9660  Rmax=0.9660     1
 O  C  Rav=1.3026 sigma=0.1068  Rmin=1.1958  Rmax=1.4094     2
 O  O  Rav=1.4287 sigma=0.0000  Rmin=1.4287  Rmax=1.4287     1
 
 selected bond angles (degree)
 --------------------
C3-C1-C2=111.24                O4-C1-C2=113.21                O4-C1-C3=106.34                H8-C1-C2=109.17                
H8-C1-C3=107.65                H8-C1-O4=109.03                H9-C2-C1=109.77                H11-C2-C1=109.09               
H11-C2-H9=109.34               H12-C2-C1=109.77               H12-C2-H9=109.09               H12-C2-H11=109.76              
O6-C3-C1=124.41                H10-C3-C1=113.11               H10-C3-O6=122.48               O5-O4-C1=109.02                
H7-O5-O4=102.01                
 
 selected dihedral angles (degree)
 ---------------------------------
H9-C2-C1-C3=295.47            H9-C2-C1-O4= 55.15            H9-C2-C1-H8=176.81            H11-C2-C1-C3= 55.26           
H11-C2-C1-O4=174.95           H11-C2-C1-H8=296.60           H12-C2-C1-C3=175.57           H12-C2-C1-O4=295.25           
H12-C2-C1-H8= 56.91           O6-C3-C1-C2=310.91            O6-C3-C1-O4=187.22            O6-C3-C1-H8= 70.48            
H10-C3-C1-C2=131.25           H10-C3-C1-O4=  7.56           H10-C3-C1-H8=250.82           O5-O4-C1-C2= 72.18            
O5-O4-C1-C3=194.63            O5-O4-C1-H8=310.45            H7-O5-O4-C1=176.48            
           -------------------------------------------------
          |                Final Singlepoint                |
           -------------------------------------------------

          ...................................................
          :                      SETUP                      :
          :.................................................:
          :  # basis functions                  30          :
          :  # atomic orbitals                  30          :
          :  # shells                           18          :
          :  # electrons                        36          :
          :  max. iterations                   100          :
          :  Hamiltonian                  GFN2-xTB          :
          :  restarted?                      false          :
          :  GBSA solvation                  false          :
          :  PC potential                    false          :
          :  electronic temp.          300.0000000     K    :
          :  accuracy                    1.0000000          :
          :  -> integral cutoff          0.2500000E+02      :
          :  -> integral neglect         0.1000000E-07      :
          :  -> SCF convergence          0.1000000E-05 Eh   :
          :  -> wf. convergence          0.1000000E-03 e    :
          :  Broyden damping             0.4000000          :
          ...................................................

 iter      E             dE          RMSdq      gap      omega  full diag
   1    -21.7415905 -0.217416E+02  0.110E-04    3.68       0.0  T
   2    -21.7415905 -0.572307E-10  0.557E-05    3.68     518.3  T
   3    -21.7415905 -0.188258E-10  0.308E-05    3.68     935.8  T

   *** convergence criteria satisfied after 3 iterations ***

         #    Occupation            Energy/Eh            Energy/eV
      -------------------------------------------------------------
         1        2.0000           -0.7383720             -20.0921
       ...           ...                  ...                  ...
        12        2.0000           -0.5324016             -14.4874
        13        2.0000           -0.5177998             -14.0900
        14        2.0000           -0.4960015             -13.4969
        15        2.0000           -0.4800295             -13.0623
        16        2.0000           -0.4719862             -12.8434
        17        2.0000           -0.4253879             -11.5754
        18        2.0000           -0.4167957             -11.3416 (HOMO)
        19                         -0.2815186              -7.6605 (LUMO)
        20                         -0.1677526              -4.5648
        21                          0.0429607               1.1690
        22                          0.0743354               2.0228
        23                          0.1193488               3.2476
       ...                                ...                  ...
        30                          0.6085175              16.5586
      -------------------------------------------------------------
                  HL-Gap            0.1352771 Eh            3.6811 eV
             Fermi-level           -0.3491572 Eh           -9.5010 eV

 SCC (total)                   0 d,  0 h,  0 min,  0.004 sec
 SCC setup                      ...        0 min,  0.000 sec (  6.363%)
 Dispersion                     ...        0 min,  0.000 sec (  1.338%)
 integral evaluation            ...        0 min,  0.000 sec ( 12.829%)
 zeroth order Hamiltonian       ...        0 min,  0.000 sec (  2.217%)
 iterations                     ...        0 min,  0.002 sec ( 42.398%)
 molecular gradient             ...        0 min,  0.001 sec ( 27.441%)
 printout                       ...        0 min,  0.000 sec (  1.790%)

         :::::::::::::::::::::::::::::::::::::::::::::::::::::
         ::                     SUMMARY                     ::
         :::::::::::::::::::::::::::::::::::::::::::::::::::::
         :: total energy             -21.566417485223 Eh    ::
         :: gradient norm              0.000967352400 Eh/a0 ::
         :: HOMO-LUMO gap              3.681076620673 eV    ::
         ::.................................................::
         :: SCC energy               -21.741590452701 Eh    ::
         :: -> isotropic ES            0.046135619950 Eh    ::
         :: -> anisotropic ES         -0.004389838034 Eh    ::
         :: -> anisotropic XC         -0.004143363794 Eh    ::
         :: -> dispersion             -0.005936193840 Eh    ::
         :: repulsion energy           0.175165366351 Eh    ::
         :: add. restraining           0.000000000000 Eh    ::
         :::::::::::::::::::::::::::::::::::::::::::::::::::::

           -------------------------------------------------
          |                Property Printout                |
           -------------------------------------------------

    * Orbital Energies and Occupations

         #    Occupation            Energy/Eh            Energy/eV
      -------------------------------------------------------------
         1        2.0000           -0.7383720             -20.0921
       ...           ...                  ...                  ...
         6        2.0000           -0.6177755             -16.8105
         7        2.0000           -0.6098354             -16.5945
         8        2.0000           -0.5985820             -16.2882
         9        2.0000           -0.5731845             -15.5971
        10        2.0000           -0.5547584             -15.0957
        11        2.0000           -0.5491337             -14.9427
        12        2.0000           -0.5324016             -14.4874
        13        2.0000           -0.5177998             -14.0900
        14        2.0000           -0.4960015             -13.4969
        15        2.0000           -0.4800295             -13.0623
        16        2.0000           -0.4719862             -12.8434
        17        2.0000           -0.4253879             -11.5754
        18        2.0000           -0.4167957             -11.3416 (HOMO)
        19                         -0.2815186              -7.6605 (LUMO)
        20                         -0.1677526              -4.5648
        21                          0.0429607               1.1690
        22                          0.0743354               2.0228
        23                          0.1193488               3.2476
        24                          0.1216311               3.3098
        25                          0.1522720               4.1435
        26                          0.1657380               4.5100
        27                          0.1927450               5.2449
        28                          0.2460974               6.6967
        29                          0.2484817               6.7615
        30                          0.6085175              16.5586
      -------------------------------------------------------------
                  HL-Gap            0.1352771 Eh            3.6811 eV
             Fermi-level           -0.3491572 Eh           -9.5010 eV

     #   Z        covCN         q      C6AA      α(0)
     1   6 C      3.727     0.105    18.946     6.215
     2   6 C      3.753    -0.115    22.756     6.803
     3   6 C      2.759     0.208    23.588     7.953
     4   8 O      1.778    -0.219    17.620     5.668
     5   8 O      1.733    -0.318    19.310     5.933
     6   8 O      0.856    -0.297    19.727     5.955
     7   1 H      0.805     0.324     0.653     1.269
     8   1 H      0.923     0.076     2.017     2.221
     9   1 H      0.925     0.057     2.231     2.336
    10   1 H      0.922     0.046     2.376     2.411
    11   1 H      0.925     0.065     2.146     2.291
    12   1 H      0.925     0.068     2.107     2.270

 Mol. C6AA /au·bohr⁶  :       1230.544129
 Mol. C8AA /au·bohr⁸  :      26142.721254
 Mol. α(0) /au        :         51.324786


Wiberg/Mayer (AO) data.
largest (>0.10) Wiberg bond orders for each atom
          total WBO             WBO to atom ...
     1  C   3.942        C    2 0.979    O    4 0.977    C    3 0.973    H    8 0.926
     2  C   3.987        H    9 0.986    H   12 0.982    H   11 0.982    C    1 0.979
     3  C   3.915        O    6 1.944    C    1 0.973    H   10 0.929
     4  O   2.013        C    1 0.977    O    5 0.974
     5  O   1.901        O    4 0.974    H    7 0.888
     6  O   2.113        C    3 1.944
     7  H   0.895        O    5 0.888
     8  H   0.994        C    1 0.926
     9  H   0.997        C    2 0.986
    10  H   0.998        C    3 0.929
    11  H   0.996        C    2 0.982
    12  H   0.995        C    2 0.982

molecular dipole:
                 x           y           z       tot (Debye)
 q only:       -0.161       0.667      -0.247
   full:       -0.028       0.905      -0.438       2.556
molecular quadrupole (traceless):
                xx          xy          yy          xz          yz          zz
 q only:       -1.195       4.286      -0.274      -1.590      -4.190       1.469
  q+dip:       -1.087       6.499      -2.080      -2.916      -5.629       3.166
   full:       -1.229       6.523      -1.679      -2.611      -5.517       2.908

           -------------------------------------------------
          |                Geometry Summary                 |
           -------------------------------------------------

      molecular mass/u    :       90.0780670
   center of mass at/Å    :        1.3334845       1.0485923      -1.5467088
  moments of inertia/u·Å² :        0.6457143E+02   0.2313593E+03   0.2793315E+03
rotational constants/cm⁻¹ :        0.2610695E+00   0.7286343E-01   0.6034991E-01

 * 9 selected distances

     #   Z        #   Z                                     value/Å
     1   6 C      2   6 C                                 1.5310733 (max)
     1   6 C      4   8 O                                 1.4093589
     4   8 O      5   8 O                                 1.4287124
     3   6 C      6   8 O                                 1.1957744
     5   8 O      7   1 H                                 0.9659960 (min)
     1   6 C      8   1 H                                 1.1024514
     2   6 C      9   1 H                                 1.0872747
     2   6 C     11   1 H                                 1.0856253
     2   6 C     12   1 H                                 1.0863633

 * 5 distinct bonds (by element types)

   Z      Z             #   av. dist./Å        max./Å        min./Å
   1 H    6 C           4     1.0904287     1.1024514     1.0856253
   6 C    6 C           1     1.5310733     1.5310733     1.5310733
   1 H    8 O           1     0.9659960     0.9659960     0.9659960
   6 C    8 O           2     1.3025666     1.4093589     1.1957744
   8 O    8 O           1     1.4287124     1.4287124     1.4287124


optimized geometry written to: xtbopt.xyz


           -------------------------------------------------
          | TOTAL ENERGY              -21.566417485223 Eh   |
          | GRADIENT NORM               0.000967352400 Eh/α |
          | HOMO-LUMO GAP               3.681076620673 eV   |
           -------------------------------------------------

------------------------------------------------------------------------
 * finished run on 2020/12/23 at 21:44:01.969     
------------------------------------------------------------------------
 total:
 * wall-time:     0 d,  0 h,  0 min,  2.723 sec
 *  cpu-time:     0 d,  0 h,  0 min, 11.288 sec
 * ratio c/w:     4.146 speedup
 SCF:
 * wall-time:     0 d,  0 h,  0 min,  0.093 sec
 *  cpu-time:     0 d,  0 h,  0 min,  0.281 sec
 * ratio c/w:     3.025 speedup
 ANC optimizer:
 * wall-time:     0 d,  0 h,  0 min,  2.494 sec
 *  cpu-time:     0 d,  0 h,  0 min,  9.910 sec
 * ratio c/w:     3.973 speedup

