12
 energy: -21.510061298070 gnorm: 0.000435896686 xtb: 6.2.3 (830e466)
C         1.67750413534446    1.35449250508241   -1.33656622247595
C         1.14675808544200    0.12340345917871   -1.36206322192740
C         1.89574971015659   -0.99548697865240   -0.81670216205467
O         1.03140169561488    2.41626554477085   -1.82033963303191
O         1.79154381954601    3.60758848290093   -1.67851316720679
O         2.99899937781828   -0.93289694622601   -0.33031091075105
H         1.22041246517245    4.28020378167537   -2.07602020689263
H         2.66101485910001    1.53073048090408   -0.91569288308252
H        -2.15665513670695    1.97973597157407   -2.62233146715886
H         1.35741398490010   -1.95980449482029   -0.87887196460722
H         0.16936040645825   -0.05863312577103   -1.77828396203537
H        -1.40450340284901    1.99400131937996   -2.42010419877800
