12
 energy: -21.540881666005 gnorm: 0.127646178363 xtb: 6.2.3 (830e466)
C         1.26400000000000    1.46557000000000   -2.31300000000000
C         0.52198000000000    0.25550000000000   -1.80584000000000
C         0.80092000000000   -0.43511000000000   -0.68426000000000
O         0.36959000000000    2.54371000000000   -2.45584000000000
O         0.52609000000000    3.32043000000000   -1.39898000000000
O         1.80314000000000   -0.12833000000000    0.17367000000000
H         1.00425000000000    4.11908000000000   -1.74294000000000
H         2.15389000000000    1.74197000000000   -1.70804000000000
H         1.66853000000000    1.22458000000000   -3.31737000000000
H         0.18304000000000   -1.29562000000000   -0.44802000000000
H        -0.31191000000000   -0.09005000000000   -2.41103000000000
H         2.40548000000000    0.61787000000000    0.07585000000000
12
 energy: -21.554253489538 gnorm: 0.051662100448 xtb: 6.2.3 (830e466)
C         1.26831639334193    1.43723963893637   -2.33982715647975
C         0.54223344625243    0.23588157553601   -1.80874021735860
C         0.81227858700147   -0.42768952939415   -0.68397729189679
O         0.39906537727619    2.54744041780920   -2.48178065968461
O         0.50525746953227    3.37429485932467   -1.38700492678216
O         1.79799497551168   -0.15915742191882    0.19551159188430
H         1.00165544157995    4.15667047274290   -1.70514091684147
H         2.12565245135298    1.72171127468517   -1.70943293455805
H         1.66228580577292    1.21399853420823   -3.34544245421706
H         0.20908232499158   -1.28228366278382   -0.41671827481970
H        -0.29965853600074   -0.08557377545339   -2.40345755954199
H         2.36483626338735    0.60706761630762    0.05021080029588
12
 energy: -21.557979664636 gnorm: 0.010894991742 xtb: 6.2.3 (830e466)
C         1.28286661133449    1.42097717206492   -2.34710347208823
C         0.54924125352966    0.23067122993920   -1.80563975632683
C         0.81618834098108   -0.41891183315311   -0.68024236092023
O         0.43949878054279    2.55588492544563   -2.51129558954688
O         0.48983727459893    3.39907282166701   -1.37922176600413
O         1.79865401578764   -0.19171993903356    0.21076033702993
H         0.97478448953036    4.18230396765871   -1.67706933729231
H         2.13272581291241    1.70405388393955   -1.71533467037877
H         1.65154827455394    1.21183369257866   -3.35825730954507
H         0.22672506404951   -1.27337938998238   -0.38414121865869
H        -0.29363490698903   -0.08198052489998   -2.39832348979142
H         2.32056498916822    0.60079399377533    0.01006863352263
12
 energy: -21.558469527254 gnorm: 0.010243016798 xtb: 6.2.3 (830e466)
C         1.29490720775612    1.41506838891594   -2.35363793018543
C         0.55106140818540    0.23253151778572   -1.80578046193934
C         0.81628774667886   -0.41506840711508   -0.67841686894370
O         0.46698078780838    2.56217106055011   -2.52390390875190
O         0.48653256624006    3.38702178198113   -1.36723616704734
O         1.79918279902362   -0.19169512821381    0.21459023790649
H         0.94480547539614    4.19105618334591   -1.65111567827614
H         2.15400323150983    1.68945894478116   -1.73114550544547
H         1.64736918363855    1.20279925548862   -3.36958691233175
H         0.22413941538247   -1.26576838208404   -0.37055696689447
H        -0.29574027411393   -0.07750555795147   -2.39428446282697
H         2.29947045249451    0.60953034251579   -0.00472537526396
12
 energy: -21.559036902378 gnorm: 0.014746242286 xtb: 6.2.3 (830e466)
C         1.31758669442597    1.40372547639572   -2.36879437179549
C         0.55257997695533    0.23954070918402   -1.80569036738122
C         0.81079891717425   -0.40328835518626   -0.67278948280641
O         0.52086988138511    2.57264263278698   -2.53982670390512
O         0.49077511979116    3.34757800465229   -1.33776539567091
O         1.79792622420334   -0.17720952141567    0.21889740754569
H         0.87787259062044    4.20265756937467   -1.59929555414942
H         2.20016293922853    1.65797949520081   -1.76869846338075
H         1.63782216853928    1.18101539242661   -3.39435512104553
H         0.21444383811564   -1.24944200532192   -0.35462230167555
H        -0.29849056740731   -0.06886713732214   -2.38906658073514
H         2.26665221696826    0.63326773922488   -0.02379306500016
12
 energy: -21.559435349937 gnorm: 0.017373048961 xtb: 6.2.3 (830e466)
C         1.33180386978140    1.39518901729127   -2.38067562907677
C         0.55499425501947    0.24347600409919   -1.80834163024444
C         0.80687341986179   -0.39454456122733   -0.67068712733602
O         0.55963821765200    2.57906891788059   -2.53873341512556
O         0.50636260157761    3.31106139174036   -1.30909233311347
O         1.79332886219416   -0.15450044304577    0.22085443022000
H         0.82655279156665    4.20089486573386   -1.56359901557106
H         2.23659497750265    1.62949232282054   -1.80224757279117
H         1.62416342825151    1.16701440847685   -3.41467143705483
H         0.20464135936488   -1.23486725433979   -0.34783956759085
H        -0.29728037303662   -0.06470178829158   -2.39035554002601
H         2.24132659026450    0.66201711886179   -0.03041116228982
12
 energy: -21.560000840009 gnorm: 0.012664520191 xtb: 6.2.3 (830e466)
C         1.34064931010331    1.38705078665348   -2.39377882902303
C         0.55522388997150    0.24759523546158   -1.81318623921000
C         0.80008011780956   -0.38040442897146   -0.66788072078796
O         0.59908299688136    2.58688140507591   -2.52930792421273
O         0.52584898205048    3.26737909913196   -1.27581839887732
O         1.78615486125274   -0.11522345106382    0.21940039596852
H         0.78708616584074    4.17338728641656   -1.52145139542566
H         2.27022937531322    1.59375993484185   -1.83961189106924
H         1.60417736098814    1.15670451977931   -3.43512193796076
H         0.19780071828726   -1.21904929211608   -0.34658665642211
H        -0.29228969336944   -0.06626743661100   -2.39908087144393
H         2.21495591487112    0.70778634140166   -0.03337553153579
12
 energy: -21.560445565050 gnorm: 0.013603288806 xtb: 6.2.3 (830e466)
C         1.35325830499360    1.37331012148746   -2.41708641027169
C         0.55643451687659    0.24817545025312   -1.82528912450906
C         0.79312634655611   -0.35834363927500   -0.66585916055052
O         0.64803753309565    2.59372808403767   -2.52544334954014
O         0.54165142180507    3.21165034799967   -1.23776595142404
O         1.77580473357348   -0.06597949101257    0.21675991071765
H         0.74304798868548    4.13957470463713   -1.45140856870494
H         2.30131786150496    1.54716021400126   -1.88093872608379
H         1.58864978452205    1.14649120973191   -3.46449601133919
H         0.18775845428593   -1.18938489927790   -0.33323590964984
H        -0.29065757798527   -0.07018604042275   -2.41032953487746
H         2.19057063208634    0.76340393783991   -0.04070716376699
12
 energy: -21.561002854691 gnorm: 0.009725399406 xtb: 6.2.3 (830e466)
C         1.36529943620247    1.35659511347714   -2.44748650463187
C         0.55871007220353    0.24426665812333   -1.84671236452218
C         0.78512279357722   -0.32591848633965   -0.66597298045962
O         0.69643135235665    2.59678407947560   -2.50623303153788
O         0.56823956879413    3.14710222660928   -1.19308750140257
O         1.75543879611075   -0.00054217524383    0.21581406519318
H         0.70313817277055    4.08792804415525   -1.36834109195696
H         2.33078301796218    1.48878416987081   -1.93150737933763
H         1.56429389907726    1.14614505124807   -3.50442368790900
H         0.17938628201598   -1.14822563837438   -0.31584008461413
H        -0.28389771344180   -0.08563626180943   -2.43231513765264
H         2.16605432237108    0.83231721880770   -0.03969430116873
12
 energy: -21.560886661195 gnorm: 0.036257962554 xtb: 6.2.3 (830e466)
C         1.39196715060524    1.32725528880387   -2.49692955705589
C         0.56359436048459    0.23860148076648   -1.87821364932594
C         0.76866299043346   -0.27150150373691   -0.66296127839067
O         0.78487627044813    2.60517162923658   -2.48115734310806
O         0.62090433554648    3.04123891137298   -1.11725365913715
O         1.72009496927047    0.09561069018408    0.22025025569854
H         0.60786876504935    4.03126869902546   -1.23317368969874
H         2.39173288742136    1.39164119843136   -2.02162440568987
H         1.52394374807851    1.14183054213175   -3.57178903204199
H         0.16256775744539   -1.08037438442314   -0.28233600716889
H        -0.26976857781798   -0.11243696239469   -2.46416888334788
H         2.12255534303501    0.93129441060200   -0.04644275073349
12
 energy: -21.561721342226 gnorm: 0.005757842957 xtb: 6.2.3 (830e466)
C         1.38258145814553    1.33186334456211   -2.49167632512763
C         0.56337540790974    0.23350660371616   -1.87953184621598
C         0.77072662914476   -0.27094999822073   -0.66584052974537
O         0.76413617013359    2.60325333191993   -2.47847568278919
O         0.61260305812204    3.05578646190748   -1.12819698570593
O         1.71477191289346    0.09495786227516    0.22235298985790
H         0.65009506312484    4.01364902470465   -1.23801015884041
H         2.37398756070508    1.40469998573215   -2.01476409308584
H         1.52278599165751    1.15677574532952   -3.56327145437788
H         0.16970566365694   -1.08314965915525   -0.28241574214033
H        -0.26282609997983   -0.12833395988540   -2.46761891110729
H         2.12705718448635    0.92754125711403   -0.04835126072209
12
 energy: -21.562021073573 gnorm: 0.007309062993 xtb: 6.2.3 (830e466)
C         1.38868385514906    1.32228426719545   -2.50987306065004
C         0.56925911040416    0.22566313297221   -1.89497042252162
C         0.76464739753695   -0.24843254852585   -0.66719713925574
O         0.78612602264771    2.60239090901049   -2.45445472453092
O         0.64608996133621    3.01667281713764   -1.09655309829788
O         1.68963783860466    0.14229900640641    0.22957022778207
H         0.63087660116280    3.97926464662738   -1.18885258533739
H         2.39206033086078    1.37143270000082   -2.05592110569989
H         1.49786240282367    1.16823432910562   -3.58935637171873
H         0.16536317784620   -1.05667894292072   -0.27116478793421
H        -0.24725571452172   -0.15432818662185   -2.48502415151430
H         2.10564901614950    0.97079786961219   -0.05200278032142
12
 energy: -21.562310423784 gnorm: 0.022236369281 xtb: 6.2.3 (830e466)
C         1.40477592887567    1.30056171038951   -2.55506890282577
C         0.58164486973522    0.21227219614289   -1.92661511473116
C         0.74522626446964   -0.18952212940482   -0.66549036902307
O         0.84916426966141    2.60458170446919   -2.41463530340244
O         0.71526942819860    2.91386406590505   -1.02057196572850
O         1.63205588798643    0.26035620231012    0.24368820436500
H         0.58359839675314    3.88591053559850   -1.05248202183113
H         2.43581111352185    1.29605387621772   -2.15708178820578
H         1.44366718461706    1.18770176260344   -3.64635645801885
H         0.15289332376020   -0.99147098308880   -0.24366093337689
H        -0.20935607240397   -0.21508000324437   -2.52129084203532
H         2.05424940482471    1.07437106210129   -0.07623450518616
12
 energy: -21.562665000938 gnorm: 0.012729739255 xtb: 6.2.3 (830e466)
C         1.40061687144949    1.30585845490110   -2.54823958980000
C         0.58415961741826    0.21231299762250   -1.91957987921733
C         0.74562857824821   -0.19618616891734   -0.66633694206656
O         0.83374541131783    2.59896826116391   -2.41045512632987
O         0.72364818234943    2.92376448230623   -1.02656577771210
O         1.62862996535030    0.25652072183040    0.24347798264579
H         0.60061704935299    3.88659662308108   -1.06942172650513
H         2.42687362932067    1.31497299976583   -2.15392404353753
H         1.44219954531473    1.19158047313407   -3.63457064604728
H         0.15554344015475   -1.00255678381082   -0.25322066878899
H        -0.20220435784600   -0.22001161107328   -2.51516072705725
H         2.04954206756931    1.06777954999606   -0.08180285558383
12
 energy: -21.562959480136 gnorm: 0.010312955319 xtb: 6.2.3 (830e466)
C         1.40031573848131    1.30193524079173   -2.56503769442376
C         0.59498625429701    0.20317135505052   -1.93044871811688
C         0.74024072005985   -0.17860636755755   -0.66655656094188
O         0.84570574863399    2.59649431683094   -2.38770223912175
O         0.76350167612931    2.88602269133174   -0.99308880002041
O         1.59867595582487    0.31412443430174    0.24891554240993
H         0.60951344252105    3.83687519490952   -1.01326157004326
H         2.44063844207812    1.29501284720938   -2.20198766093966
H         1.40626266039126    1.20250529747236   -3.65491553825079
H         0.15397772741618   -0.98559020023843   -0.24826002548824
H        -0.17362984064726   -0.25625132917447   -2.52935382456172
H         2.00881147481428    1.12390651907223   -0.09410291050166
12
 energy: -21.563173402707 gnorm: 0.011318126312 xtb: 6.2.3 (830e466)
C         1.39773180451861    1.29651555966227   -2.58657927238807
C         0.60778012955759    0.19087963870697   -1.94137577133744
C         0.73031522209572   -0.15499074439652   -0.66342304312848
O         0.86455655049669    2.59243601988304   -2.36066362939751
O         0.83079076658023    2.83789750585815   -0.95334447927367
O         1.56258493460416    0.38364246199535    0.24836934102131
H         0.61207157091299    3.78186061986946   -0.94154172781329
H         2.44855982671047    1.27376206837461   -2.26206916272628
H         1.36311861961157    1.21632176072965   -3.67335921186281
H         0.15284171090515   -0.96576323437743   -0.24134069787359
H        -0.13365170626842   -0.30696235372099   -2.54568317857918
H         1.95230057027521    1.19400069741509   -0.11478916664109
12
 energy: -21.563387149789 gnorm: 0.007727060148 xtb: 6.2.3 (830e466)
C         1.38754193642383    1.30156155207990   -2.58372107358415
C         0.61025787934113    0.18753373539273   -1.93556648661605
C         0.73637127324159   -0.16847070808280   -0.66150225175300
O         0.85503977487457    2.59394474203626   -2.36745548481712
O         0.84267183442534    2.85732480722243   -0.96226958783358
O         1.56744417444158    0.37162394113765    0.24314277516428
H         0.63334037337124    3.79525638280730   -0.94643551007791
H         2.43968741460525    1.28625682529057   -2.26206668442698
H         1.34998329645887    1.21332375602344   -3.66781692568568
H         0.16232648581485   -0.98466327757799   -0.24634111657758
H        -0.12480242441202   -0.31219744409701   -2.54072009766405
H         1.92913798141372    1.19810568776718   -0.10504755612828
12
 energy: -21.563640773986 gnorm: 0.009815147839 xtb: 6.2.3 (830e466)
C         1.37508229474359    1.30090746186975   -2.58694408869399
C         0.61218586403287    0.17728542243266   -1.93453522765415
C         0.74624130152498   -0.18253416385158   -0.66448172467990
O         0.85054901906809    2.59464058880000   -2.35523879139090
O         0.89129562838340    2.87248972315857   -0.95483193919987
O         1.55670323769418    0.38196764072160    0.24620028720889
H         0.65665355096207    3.80533394204605   -0.93898908692326
H         2.43811728008173    1.28274006210728   -2.28484983253339
H         1.31217239140998    1.21639297509727   -3.67578921264110
H         0.18521816746069   -1.01033770352719   -0.25598599685649
H        -0.10942409690953   -0.33549996825917   -2.54339563268185
H         1.87420536154790    1.23621401940441   -0.08695875395411
12
 energy: -21.564050255755 gnorm: 0.007787689335 xtb: 6.2.3 (830e466)
C         1.34782363634022    1.30071077153902   -2.59256835371047
C         0.61316040923905    0.15600045015339   -1.93933984050929
C         0.76006705987556   -0.20198145848102   -0.66511032096159
O         0.82874257424712    2.59254034868443   -2.33990493923197
O         0.97881036665950    2.91043957398293   -0.95048466634433
O         1.53860703092491    0.39207802732877    0.25577656589675
H         0.70257696320170    3.83621879196021   -0.93526152525039
H         2.41242841056525    1.28716128831536   -2.30856833985946
H         1.26304915274317    1.22989127031057   -3.68043427478714
H         0.22800425258312   -1.05473281681316   -0.26386490164254
H        -0.08527201463138   -0.38349831911480   -2.55467540300638
H         1.80100215825173    1.27477207213394   -0.06136400059334
12
 energy: -21.564244208244 gnorm: 0.009762545765 xtb: 6.2.3 (830e466)
C         1.33059379983701    1.30291296420106   -2.58974720572106
C         0.61030712739085    0.14755294652363   -1.93913612475299
C         0.76602646520691   -0.21202013765367   -0.66572111534318
O         0.80138986717551    2.58611471602219   -2.33137522222303
O         1.03078344781410    2.94645190057578   -0.95672350752394
O         1.52188828263931    0.39220350438622    0.26764780692516
H         0.72954332644304    3.86826091821627   -0.94782624312629
H         2.39726424676500    1.29548908160861   -2.31780737346623
H         1.23802349777707    1.24022077267329   -3.67557482379474
H         0.25991392780842   -1.08588076783447   -0.27227636322257
H        -0.06943117309241   -0.41326080292381   -2.56208827857207
H         1.77269718423512    1.27155490420452   -0.04517154917922
12
 energy: -21.564337129886 gnorm: 0.006729122756 xtb: 6.2.3 (830e466)
C         1.32848496890131    1.30179824982970   -2.58713179283762
C         0.61046149762856    0.14435387790668   -1.94090851759826
C         0.76450469926971   -0.21290861721910   -0.66715360160519
O         0.79245590506704    2.58128305749796   -2.32648858250178
O         1.03961785594710    2.95021428207423   -0.95743893746252
O         1.51489184613846    0.39920997032827    0.26635899815952
H         0.73999747010648    3.86823181219313   -0.94474674958130
H         2.39473922703284    1.29558373553496   -2.31772477705755
H         1.23753418227584    1.24263501925065   -3.67141796853087
H         0.26599229256234   -1.08990441341516   -0.27136794801205
H        -0.06517185588150   -0.41915667034503   -2.56311021528534
H         1.76549191095175    1.27825969636332   -0.05466990768720
12
 energy: -21.564482307600 gnorm: 0.003813607127 xtb: 6.2.3 (830e466)
C         1.32782253270798    1.30215914931135   -2.58602997046898
C         0.61388705301854    0.14181722661851   -1.94145100475045
C         0.75984954034799   -0.21159443991690   -0.66707815803601
O         0.78153466438456    2.57790771343029   -2.32152957924025
O         1.06342379117199    2.95387727589551   -0.96382632990674
O         1.50732390876970    0.40265380621065    0.26592116739664
H         0.73023054838045    3.85998119733866   -0.93751312754038
H         2.39497970121690    1.30272611848672   -2.31718367798185
H         1.23693052786892    1.24192259202149   -3.67198122868787
H         0.25884047538484   -1.08440324276939   -0.26887277872606
H        -0.05766482302998   -0.42346567902442   -2.56449776197327
H         1.77184207977804    1.27601828239714   -0.06175755008493
12
 energy: -21.564607146713 gnorm: 0.009111133480 xtb: 6.2.3 (830e466)
C         1.32495587912878    1.30163434807148   -2.58730006073586
C         0.61835400502227    0.13701847862268   -1.94335980600054
C         0.75045127987428   -0.20891825261522   -0.66594036611854
O         0.76469185043347    2.57192049203386   -2.31181591366190
O         1.11994484030880    2.96576740292011   -0.97771473012906
O         1.48951696464374    0.41150397601575    0.26820616723370
H         0.70682420082726    3.84307983925222   -0.91898157004494
H         2.39251504784595    1.31629777444805   -2.31960946586632
H         1.23602564842212    1.23996203049903   -3.67517610582932
H         0.24950156046430   -1.07809090344001   -0.26389633855713
H        -0.04406536965757   -0.43437790553217   -2.56905037907797
H         1.78028409268653    1.27380271972384   -0.07116143121228
12
 energy: -21.564661160707 gnorm: 0.004144436617 xtb: 6.2.3 (830e466)
C         1.32259065861324    1.30145141736225   -2.58819335836187
C         0.61842980017487    0.13555531232409   -1.94417726627945
C         0.75031802674849   -0.20925680614612   -0.66622903704461
O         0.76379573450108    2.57222338686274   -2.30990729393375
O         1.12564393234705    2.96853669915981   -0.97984018749596
O         1.48443227336098    0.41529469907343    0.26939216377877
H         0.71199295521484    3.84088782913238   -0.91470488102528
H         2.38981963128165    1.31784507736368   -2.32108025868689
H         1.23420797713607    1.24005853437552   -3.67576805151852
H         0.25183091072656   -1.07985965584283   -0.26378302359385
H        -0.04024829513212   -0.43963308775757   -2.57087338218997
H         1.77618639502723    1.27649659409225   -0.07063542364877
12
 energy: -21.564735713011 gnorm: 0.003127771050 xtb: 6.2.3 (830e466)
C         1.31723152762777    1.30059178724211   -2.59115508436733
C         0.62029783943225    0.13095764368509   -1.94660947794814
C         0.74788684362611   -0.20903023749999   -0.66652173139886
O         0.75866838052160    2.57080269187527   -2.30288717481807
O         1.16625752248553    2.98123690090855   -0.99088867029352
O         1.46629310743869    0.42744355702916    0.27405488634359
H         0.70967506084648    3.82832851239938   -0.89641659761881
H         2.38483890907019    1.32209401941205   -2.32894298232339
H         1.22556950374634    1.24067320525982   -3.67767119187196
H         0.25497507149403   -1.08287256406520   -0.26326214078756
H        -0.02690935474986   -0.45512191654283   -2.57644286069048
H         1.76421558846081    1.28449640029620   -0.06905697422566
12
 energy: -21.564784857352 gnorm: 0.004337885470 xtb: 6.2.3 (830e466)
C         1.31332310603717    1.29972562236393   -2.59465387242286
C         0.62233459257726    0.12728177841615   -1.94840699380055
C         0.74533120359312   -0.20697972770311   -0.66614470883140
O         0.75809919157723    2.56971571711120   -2.29676163579794
O         1.20425980705986    2.99143999421984   -1.00082712890235
O         1.44819431292426    0.44113977090866    0.27884643467816
H         0.70802650845914    3.81299958197828   -0.87582490497937
H         2.38266152972094    1.32076542675617   -2.34094658140357
H         1.21224954260511    1.24335025398523   -3.67976918040872
H         0.25999353417374   -1.08632835573776   -0.26416933974781
H        -0.01222329075717   -0.47043138718904   -2.58101026096397
H         1.74674996202926    1.29692132489006   -0.06613182741978
12
 energy: -21.564832492674 gnorm: 0.002823972450 xtb: 6.2.3 (830e466)
C         1.31017176531407    1.29905689475406   -2.59916919692401
C         0.62606533550775    0.12328336841889   -1.95008776217652
C         0.74392901487765   -0.20373458594200   -0.66530100653684
O         0.76212033999764    2.56920101723402   -2.29081711726557
O         1.23495221098993    2.99716490322556   -1.00786958571691
O         1.42890297412910    0.45779738508118    0.28395494667116
H         0.71270342155720    3.79431946915026   -0.85198527769177
H         2.38274900783885    1.31494735972927   -2.35887407934019
H         1.19350422985086    1.24846125237854   -3.68254047129588
H         0.26534723564694   -1.08841167884620   -0.26522502982070
H         0.00585084669543   -0.48734933813236   -2.58498077127076
H         1.72270361759452    1.31486395294841   -0.06290464863217
12
 energy: -21.564828045736 gnorm: 0.008607606042 xtb: 6.2.3 (830e466)
C         1.30687602995556    1.29829817498297   -2.60567227518226
C         0.63376731831961    0.11728070088483   -1.95232666940611
C         0.73941470017728   -0.19770178904295   -0.66330254460211
O         0.76371388562869    2.56652584092119   -2.28128974863000
O         1.28161256549800    3.00282445884515   -1.01688152510917
O         1.40264642251124    0.47986176241287    0.28978613611683
H         0.71022950426773    3.76374366792704   -0.81708409936866
H         2.38380662747056    1.31250112085517   -2.38385381388682
H         1.17167927753202    1.25356492165969   -3.68790013194453
H         0.26436777458186   -1.08375662027775   -0.26299574837665
H         0.03193784510471   -0.50875496843282   -2.58974098994479
H         1.69894804895268    1.33521272926423   -0.06453858966591
12
 energy: -21.564873222664 gnorm: 0.001332799323 xtb: 6.2.3 (830e466)
C         1.30888837051466    1.29881650975805   -2.60523909082136
C         0.63456195635415    0.11877195242265   -1.95130193450209
C         0.73929463488429   -0.19643668138697   -0.66258030221001
O         0.76539286940167    2.56649674603387   -2.28308129544733
O         1.26445398260341    2.99542092198113   -1.01091426947373
O         1.40757472221339    0.47685081059616    0.28814197053751
H         0.71461797716899    3.76551666349545   -0.82217219053147
H         2.38618984065970    1.31216675140876   -2.38451283774482
H         1.17334148330356    1.25344158571093   -3.68778465446606
H         0.26196658567523   -1.08061683207624   -0.26232600587778
H         0.03043397481743   -0.50428103766363   -2.58769375358210
H         1.70228360240345    1.33345260971945   -0.06633563588094
12
 energy: -21.564881831468 gnorm: 0.001118460836 xtb: 6.2.3 (830e466)
C         1.30771628608797    1.29866256477430   -2.60831647697314
C         0.63805051994995    0.11716909733717   -1.95185342205022
C         0.73687952053541   -0.19303066699218   -0.66158627634714
O         0.76672453988410    2.56550573336975   -2.27938378239499
O         1.28145386898666    2.99613187055383   -1.01305220259408
O         1.39626183855672    0.48629795377337    0.29086728435648
H         0.71588835633433    3.75190008596960   -0.80808119789189
H         2.38701492426465    1.31200599608500   -2.39750667045526
H         1.16343530546041    1.25448930188131   -3.68995756053272
H         0.26212857733688   -1.07881185467034   -0.26181902632554
H         0.04221790441457   -0.51291155840399   -2.58937656199645
H         1.69122835818830    1.34219147632180   -0.06573410679522
12
 energy: -21.564884672833 gnorm: 0.001036248267 xtb: 6.2.3 (830e466)
C         1.30705128562420    1.29872989261184   -2.61082819454814
C         0.64106537245319    0.11628812306609   -1.95226162802530
C         0.73590060458757   -0.19099517782978   -0.66104255119894
O         0.76903189276965    2.56567941269447   -2.27773410106881
O         1.29071653850371    2.99610571146827   -1.01426334492329
O         1.38848782767956    0.49243362341404    0.29333255338839
H         0.71610175263262    3.74217960378451   -0.79873235621627
H         2.38739631238773    1.31182114896416   -2.40692140304727
H         1.15652454645090    1.25513721523438   -3.69150528359147
H         0.26120333838838   -1.07677240736224   -0.26106729003619
H         0.05004258808513   -0.51802043256774   -2.59000581675934
H         1.68547794043730    1.34701328652161   -0.06477058397354
12
 energy: -21.564886003540 gnorm: 0.000344987637 xtb: 6.2.3 (830e466)
C         1.30700600849450    1.29889128600766   -2.61171637588274
C         0.64149889536892    0.11699610360750   -1.95202597639557
C         0.73460218367352   -0.18967020414225   -0.66056325760450
O         0.76996739765594    2.56618563733699   -2.27814478096350
O         1.29303806773479    2.99648863368462   -1.01510173170415
O         1.38573304356464    0.49382912708279    0.29460755157995
H         0.71555220071906    3.73851941452757   -0.79633343039591
H         2.38755866272196    1.31204616342308   -2.40993999777937
H         1.15436800224865    1.25508145775784   -3.69185277858859
H         0.26142124954964   -1.07667012408171   -0.26119731771395
H         0.05261147749912   -0.51928173342930   -2.59004583450605
H         1.68564281076918    1.34718423822482   -0.06348607004579
