      -----------------------------------------------------------      
     |                   =====================                   |     
     |                           x T B                           |     
     |                   =====================                   |     
     |                         S. Grimme                         |     
     |          Mulliken Center for Theoretical Chemistry        |     
     |                    University of Bonn                     |     
      -----------------------------------------------------------      

   * xtb version 6.2.3 (830e466) compiled by 'ehlert@majestix' on 2020-03-16

   xtb is free software: you can redistribute it and/or modify it under
   the terms of the GNU Lesser General Public License as published by
   the Free Software Foundation, either version 3 of the License, or
   (at your option) any later version.
   
   xtb is distributed in the hope that it will be useful,
   but WITHOUT ANY WARRANTY; without even the implied warranty of
   MERCHANTABILITY or FITNESS FOR A PARTICULAR PURPOSE.  See the
   GNU Lesser General Public License for more details.
   
   Cite this work as:
   * S. Grimme, C. Bannwarth, P. Shushkov, J. Chem. Theory Comput., 2017,
     13, 1989-2009. DOI: 10.1021/acs.jctc.7b00118
   * C. Bannwarth, S. Ehlert and S. Grimme., J. Chem. Theory Comput., 2019,
     15, 1652-1671. DOI: 10.1021/acs.jctc.8b01176
   * P. Pracht, E. Caldeweyher, S. Ehlert, S. Grimme, ChemRxiv, 2019, preprint.
     DOI: 10.26434/chemrxiv.8326202.v1
   
   for DFT-D4:
   * E. Caldeweyher, C. Bannwarth and S. Grimme, J. Chem. Phys., 2017,
     147, 034112. DOI: 10.1063/1.4993215
   * E. Caldeweyher, S. Ehlert, A. Hansen, H. Neugebauer, S. Spicher,
     C. Bannwarth and S. Grimme, J. Chem. Phys., 2019, 150, 154122.
     DOI: 10.1063/1.5090222
   
   for sTDA-xTB:
   * S. Grimme and C. Bannwarth, J. Chem. Phys., 2016, 145, 054103.
     DOI: 10.1063/1.4959605
   
   in the mass-spec context:
   * V. Asgeirsson, C. Bauer and S. Grimme, Chem. Sci., 2017, 8, 4879.
     DOI: 10.1039/c7sc00601b
   
   for metadynamics refer to:
   * S. Grimme, J. Chem. Theory Comput., 2019, 155, 2847-2862
     DOI: 10.1021/acs.jctc.9b00143
   
   with help from (in alphabetical order)
   C. Bannwarth, F. Bohle, G. Brandenburg, E. Caldeweyher, M. Checinski,
   S. Dohm, S. Ehlert, S. Ehrlich, F. März, H. Neugebauer, J. Pisarek,
   P. Pracht, P. Shushkov, and S. Spicher.
   
 * started run on 2020/12/23 at 21:40:41.209     

           -------------------------------------------------
          |                Calculation Setup                |
           -------------------------------------------------

          program call               : xtb -c 0 -u 0 -a 1.0 --iterations 100 --opt normal --namespace product_6 /scratch/bell/zhao922/YARP/paper-example/potential_product/test/reaction_channel/pp_0/pp_13_2.xyz
          hostname                   : bell-fe05.rcac.purdue.edu
          calculation namespace      : product_6
          coordinate file            : /scratch/bell/zhao922/YARP/paper-example/potential_product/test/reaction_channel/pp_0/pp_13_2.xyz
          omp threads                :                    32
          number of atoms            :                    12
          number of electrons        :                    36
          charge                     :                     0
          spin                       :                   0.0
          first test random number   :      0.49832356784376


molecular fragmentation (1/2 indicates fragments):
111111112121
# atoms in fragment 1/2:    10     2
 fragment masses (1/2) :       88.06        2.02
CMA distance (Bohr)    :   6.225
constraining FC (au)   :  0.0500
           ------------------------------------------------- 
          |                 G F N 2 - x T B                 |
          | Geometry, Frequencies, Noncovalent interactions |
          |            JCTC 2019 parametrisation            |
           ------------------------------------------------- 
             k(s)              :                1.8500
             k(p)              :                2.2300
             k(d)              :                2.2300
             k(f)              :                2.0000
             kEN (H0ij)        :               -2.0000
             D4 a1             :                0.5200
             D4 a2             :                5.0000
             D4 s6             :                1.0000
             D4 s8             :                2.7000
             D4 s9             :                5.0000
             alphaj            :                2.0000

  Z AO/shell   Hii/eV     exponent
  1     Wed Apr 25 08:07:45 CEST 2018   EN: 2.200 GM2: 0.406  GM3: 0.0800  RAES: 1.40
     1s    -10.707211    1.230000
  6     Wed Apr 25 08:07:45 CEST 2018   EN: 2.550 GM2: 0.538  GM3: 0.1500  RAES: 3.00
     2s    -13.970922    2.096432
     2p    -10.063292    1.800000
  8     Wed Apr 25 08:07:45 CEST 2018   EN: 3.440 GM2: 0.452  GM3:-0.0517  RAES: 1.80
     2s    -20.229985    2.439742
     2p    -15.503117    2.137023

           ------------------------------------------------- 
          |        Self-Consistent Charge Iterations        |
           ------------------------------------------------- 

          ...................................................
          :                      SETUP                      :
          :.................................................:
          :  # basis functions                  30          :
          :  # atomic orbitals                  30          :
          :  # shells                           18          :
          :  # electrons                        36          :
          :  max. iterations                   100          :
          :  Hamiltonian                  GFN2-xTB          :
          :  restarted?                      false          :
          :  GBSA solvation                  false          :
          :  PC potential                    false          :
          :  electronic temp.          300.0000000     K    :
          :  accuracy                    1.0000000          :
          :  -> integral cutoff          0.2500000E+02      :
          :  -> integral neglect         0.1000000E-07      :
          :  -> SCF convergence          0.1000000E-05 Eh   :
          :  -> wf. convergence          0.1000000E-03 e    :
          :  Broyden damping             0.4000000          :
          ...................................................

 iter      E             dE          RMSdq      gap      omega  full diag
   1    -21.6653615 -0.216654E+02  0.579E+00    3.62       0.0  T
   2    -21.7023140 -0.369526E-01  0.340E+00    2.81       1.0  T
   3    -21.7024715 -0.157481E-03  0.210E+00    3.34       1.0  T
   4    -21.7138920 -0.114205E-01  0.553E-01    3.02       1.0  T
   5    -21.7163265 -0.243445E-02  0.130E-01    3.04       1.0  T
   6    -21.7163903 -0.638110E-04  0.580E-02    3.06       1.0  T
   7    -21.7164021 -0.118509E-04  0.179E-02    3.06       1.6  T
   8    -21.7164025 -0.377979E-06  0.460E-03    3.06       6.3  T
   9    -21.7164026 -0.108228E-06  0.138E-03    3.06      20.9  T
  10    -21.7164026 -0.679053E-08  0.348E-04    3.06      82.9  T
  11    -21.7164026 -0.285276E-09  0.162E-04    3.06     178.2  T

   *** convergence criteria satisfied after 11 iterations ***

         #    Occupation            Energy/Eh            Energy/eV
      -------------------------------------------------------------
         1        2.0000           -0.7835547             -21.3216
       ...           ...                  ...                  ...
        12        2.0000           -0.5236336             -14.2488
        13        2.0000           -0.5178183             -14.0906
        14        2.0000           -0.4875292             -13.2663
        15        2.0000           -0.4836657             -13.1612
        16        2.0000           -0.4685994             -12.7512
        17        2.0000           -0.4189598             -11.4005
        18        2.0000           -0.4058300             -11.0432 (HOMO)
        19                         -0.2935065              -7.9867 (LUMO)
        20                         -0.1856629              -5.0521
        21                         -0.0703575              -1.9145
        22                          0.0620536               1.6886
        23                          0.0924068               2.5145
       ...                                ...                  ...
        30                          0.6127648              16.6742
      -------------------------------------------------------------
                  HL-Gap            0.1123235 Eh            3.0565 eV
             Fermi-level           -0.3496683 Eh           -9.5150 eV

 SCC (total)                   0 d,  0 h,  0 min,  0.096 sec
 SCC setup                      ...        0 min,  0.000 sec (  0.147%)
 Dispersion                     ...        0 min,  0.000 sec (  0.065%)
 integral evaluation            ...        0 min,  0.001 sec (  1.415%)
 zeroth order Hamiltonian       ...        0 min,  0.000 sec (  0.091%)
 iterations                     ...        0 min,  0.008 sec (  8.557%)
 molecular gradient             ...        0 min,  0.086 sec ( 89.400%)
 printout                       ...        0 min,  0.000 sec (  0.107%)

         :::::::::::::::::::::::::::::::::::::::::::::::::::::
         ::                     SUMMARY                     ::
         :::::::::::::::::::::::::::::::::::::::::::::::::::::
         :: total energy             -21.490508154937 Eh    ::
         :: gradient norm              0.160921733257 Eh/a0 ::
         :: HOMO-LUMO gap              3.056476828056 eV    ::
         ::.................................................::
         :: SCC energy               -21.716402605208 Eh    ::
         :: -> isotropic ES            0.043017251305 Eh    ::
         :: -> anisotropic ES          0.009055282039 Eh    ::
         :: -> anisotropic XC         -0.001107832243 Eh    ::
         :: -> dispersion             -0.005671731846 Eh    ::
         :: repulsion energy           0.225882344974 Eh    ::
         :: add. restraining           0.000000000000 Eh    ::
         :::::::::::::::::::::::::::::::::::::::::::::::::::::

      ----------------------------------------------------------- 
     |                   =====================                   |
     |                        A N C O P T                        |
     |                   =====================                   |
     |               Approximate Normal Coordinate               |
     |                Rational Function Optimizer                |
      ----------------------------------------------------------- 

          ...................................................
          :                      SETUP                      :
          :.................................................:
          :   optimization level            normal          :
          :   max. optcycles                   200          :
          :   ANC micro-cycles                  20          :
          :   degrees of freedom                30          :
          :.................................................:
          :   RF solver                   davidson          :
          :   write xtbopt.log                true          :
          :   linear?                        false          :
          :   energy convergence         0.5000000E-05 Eh   :
          :   grad. convergence          0.1000000E-02 Eh/α :
          :   maximium RF displ.         1.0000000          :
          :   Hlow (freq-cutoff)         0.1000000E-01      :
          :   Hmax (freq-cutoff)         5.0000000          :
          :   S6 in model hess.         20.0000000          :
          ...................................................

generating ANC from model Hessian ...
Using Lindh-Hessian (1995)
 Shifting diagonal of input Hessian by   1.004591796542889E-002
 Lowest  eigenvalues of input Hessian
    0.010000   -0.000000   -0.000000   -0.000000   -0.000000    0.000000
    0.000000    0.010073    0.010464    0.010825    0.011060    0.015358
    0.018624    0.023260    0.031641    0.038602    0.060864    0.073440
 Highest eigenvalues
    1.191823    1.348934    1.623685    1.785829    2.105518    2.159103
 

........................................................................
.............................. CYCLE    1 ..............................
........................................................................
   1    -21.7164026 -0.217164E+02  0.618E-05    3.06       0.0  T
   2    -21.7164026 -0.928324E-11  0.453E-05    3.06     637.5  T
   3    -21.7164026 -0.371614E-11  0.349E-05    3.06     826.1  T
     SCC iter.                  ...        0 min,  0.001 sec
     gradient                   ...        0 min,  0.085 sec
 * total energy  :   -21.4905082 Eh     change       -0.1531372E-08 Eh
   gradient norm :     0.1609217 Eh/α   predicted     0.0000000E+00 (-100.00%)
   displ. norm   :     0.1858345 α      lambda       -0.2028845E-01
   maximum displ.:     0.0734848 α      in ANC's #23, #12, #19, ...

........................................................................
.............................. CYCLE    2 ..............................
........................................................................
   1    -21.7211066 -0.217211E+02  0.393E-01    3.04       0.0  T
   2    -21.7212677 -0.161134E-03  0.249E-01    3.05       1.0  T
   3    -21.7212576  0.101440E-04  0.788E-02    3.05       1.0  T
   4    -21.7212726 -0.150091E-04  0.458E-02    3.05       1.0  T
   5    -21.7212897 -0.171152E-04  0.101E-02    3.04       2.9  T
   6    -21.7212900 -0.236034E-06  0.559E-03    3.05       5.2  T
   7    -21.7212900 -0.561238E-07  0.246E-03    3.05      11.7  T
     SCC iter.                  ...        0 min,  0.003 sec
     gradient                   ...        0 min,  0.002 sec
 * total energy  :   -21.5038588 Eh     change       -0.1335069E-01 Eh
   gradient norm :     0.0586949 Eh/α   predicted    -0.1049456E-01 ( -21.39%)
   displ. norm   :     0.1889893 α      lambda       -0.4875826E-02
   maximum displ.:     0.0865264 α      in ANC's #5, #12, #15, ...

........................................................................
.............................. CYCLE    3 ..............................
........................................................................
   1    -21.7235125 -0.217235E+02  0.395E-01    3.04       0.0  T
   2    -21.7235716 -0.590340E-04  0.249E-01    3.03       1.0  T
   3    -21.7235629  0.869372E-05  0.619E-02    3.05       1.0  T
   4    -21.7235852 -0.223254E-04  0.252E-02    3.03       1.1  T
   5    -21.7235903 -0.515605E-05  0.866E-03    3.04       3.3  T
   6    -21.7235905 -0.140212E-06  0.374E-03    3.04       7.7  T
   7    -21.7235905 -0.371777E-07  0.154E-03    3.04      18.7  T
     SCC iter.                  ...        0 min,  0.089 sec
     gradient                   ...        0 min,  0.002 sec
 * total energy  :   -21.5068861 Eh     change       -0.3027288E-02 Eh
   gradient norm :     0.0120177 Eh/α   predicted    -0.2524988E-02 ( -16.59%)
   displ. norm   :     0.1501514 α      lambda       -0.7377038E-03
   maximum displ.:     0.1043983 α      in ANC's #5, #12, #10, ...

........................................................................
.............................. CYCLE    4 ..............................
........................................................................
   1    -21.7236379 -0.217236E+02  0.249E-01    3.04       0.0  T
   2    -21.7236484 -0.105010E-04  0.158E-01    3.04       1.0  T
   3    -21.7236059  0.425165E-04  0.754E-02    3.05       1.0  T
   4    -21.7236587 -0.528705E-04  0.931E-03    3.04       3.1  T
   5    -21.7236589 -0.111796E-06  0.430E-03    3.04       6.7  T
   6    -21.7236589 -0.397479E-07  0.115E-03    3.04      25.0  T
   7    -21.7236589 -0.426029E-08  0.722E-04    3.04      40.0  T
     SCC iter.                  ...        0 min,  0.003 sec
     gradient                   ...        0 min,  0.002 sec
 * total energy  :   -21.5073681 Eh     change       -0.4820060E-03 Eh
   gradient norm :     0.0086987 Eh/α   predicted    -0.3771672E-03 ( -21.75%)
   displ. norm   :     0.1539814 α      lambda       -0.3548957E-03
   maximum displ.:     0.1197574 α      in ANC's #5, #10, #12, ...

........................................................................
.............................. CYCLE    5 ..............................
........................................................................
   1    -21.7244233 -0.217244E+02  0.186E-01    3.05       0.0  T
   2    -21.7244281 -0.485526E-05  0.118E-01    3.05       1.0  T
   3    -21.7243957  0.324582E-04  0.668E-02    3.06       1.0  T
   4    -21.7244352 -0.395322E-04  0.638E-03    3.05       4.5  T
   5    -21.7244352 -0.239477E-07  0.190E-03    3.05      15.2  T
   6    -21.7244352 -0.626782E-08  0.679E-04    3.05      42.5  T
     SCC iter.                  ...        0 min,  0.088 sec
     gradient                   ...        0 min,  0.002 sec
 * total energy  :   -21.5076132 Eh     change       -0.2450540E-03 Eh
   gradient norm :     0.0109624 Eh/α   predicted    -0.1816548E-03 ( -25.87%)
   displ. norm   :     0.2378096 α      lambda       -0.4522892E-03
   maximum displ.:     0.1797737 α      in ANC's #5, #10, #3, ...

........................................................................
.............................. CYCLE    6 ..............................
........................................................................
   1    -21.7248882 -0.217249E+02  0.269E-01    3.07       0.0  T
   2    -21.7248989 -0.106612E-04  0.170E-01    3.06       1.0  T
   3    -21.7248390  0.598539E-04  0.892E-02    3.07       1.0  T
   4    -21.7249119 -0.728423E-04  0.961E-03    3.06       3.0  T
   5    -21.7249119 -0.295008E-07  0.525E-03    3.06       5.5  T
   6    -21.7249119 -0.219753E-07  0.107E-03    3.06      27.0  T
   7    -21.7249119 -0.408216E-08  0.361E-04    3.06      80.0  T
     SCC iter.                  ...        0 min,  0.004 sec
     gradient                   ...        0 min,  0.002 sec
 * total energy  :   -21.5078660 Eh     change       -0.2527603E-03 Eh
   gradient norm :     0.0118715 Eh/α   predicted    -0.2389342E-03 (  -5.47%)
   displ. norm   :     0.2138389 α      lambda       -0.3810111E-03
   maximum displ.:     0.1523945 α      in ANC's #5, #3, #10, ...

........................................................................
.............................. CYCLE    7 ..............................
........................................................................
   1    -21.7251617 -0.217252E+02  0.180E-01    3.07       0.0  T
   2    -21.7251661 -0.437275E-05  0.112E-01    3.07       1.0  T
   3    -21.7251469  0.191700E-04  0.504E-02    3.08       1.0  T
   4    -21.7251706 -0.237134E-04  0.679E-03    3.07       4.3  T
   5    -21.7251707 -0.298083E-07  0.356E-03    3.07       8.1  T
   6    -21.7251707 -0.170817E-07  0.111E-03    3.07      26.0  T
   7    -21.7251707 -0.713433E-08  0.432E-04    3.07      66.7  T
     SCC iter.                  ...        0 min,  0.088 sec
     gradient                   ...        0 min,  0.003 sec
 * total energy  :   -21.5081342 Eh     change       -0.2682416E-03 Eh
   gradient norm :     0.0069340 Eh/α   predicted    -0.1992197E-03 ( -25.73%)
   displ. norm   :     0.2232750 α      lambda       -0.2627102E-03
   maximum displ.:     0.1553094 α      in ANC's #5, #6, #3, ...

........................................................................
.............................. CYCLE    8 ..............................
........................................................................
   1    -21.7257844 -0.217258E+02  0.191E-01    3.08       0.0  T
   2    -21.7257880 -0.361274E-05  0.118E-01    3.07       1.0  T
   3    -21.7257703  0.177622E-04  0.464E-02    3.08       1.0  T
   4    -21.7257912 -0.209419E-04  0.602E-03    3.08       4.8  T
   5    -21.7257913 -0.479975E-07  0.319E-03    3.08       9.0  T
   6    -21.7257913 -0.103605E-07  0.123E-03    3.08      23.5  T
   7    -21.7257913 -0.652816E-08  0.387E-04    3.08      74.6  T
     SCC iter.                  ...        0 min,  0.003 sec
     gradient                   ...        0 min,  0.002 sec
 * total energy  :   -21.5083104 Eh     change       -0.1761578E-03 Eh
   gradient norm :     0.0083793 Eh/α   predicted    -0.1379052E-03 ( -21.71%)
   displ. norm   :     0.2280769 α      lambda       -0.2200908E-03
   maximum displ.:     0.1465871 α      in ANC's #5, #3, #6, ...

........................................................................
.............................. CYCLE    9 ..............................
........................................................................
   1    -21.7253438 -0.217253E+02  0.156E-01    3.08       0.0  T
   2    -21.7253472 -0.339100E-05  0.958E-02    3.08       1.0  T
   3    -21.7253450  0.221932E-05  0.225E-02    3.08       1.3  T
   4    -21.7253494 -0.443096E-05  0.734E-03    3.08       3.9  T
   5    -21.7253496 -0.149339E-06  0.386E-03    3.08       7.5  T
   6    -21.7253496 -0.317055E-07  0.118E-03    3.08      24.4  T
   7    -21.7253496 -0.643595E-08  0.663E-04    3.08      43.5  T
     SCC iter.                  ...        0 min,  0.089 sec
     gradient                   ...        0 min,  0.002 sec
 * total energy  :   -21.5083905 Eh     change       -0.8018282E-04 Eh
   gradient norm :     0.0097479 Eh/α   predicted    -0.1157687E-03 (  44.38%)
   displ. norm   :     0.2045741 α      lambda       -0.2307457E-03
   maximum displ.:     0.1317395 α      in ANC's #5, #6, #3, ...

........................................................................
.............................. CYCLE   10 ..............................
........................................................................
   1    -21.7264402 -0.217264E+02  0.191E-01    3.08       0.0  T
   2    -21.7264424 -0.215585E-05  0.117E-01    3.08       1.0  T
   3    -21.7264337  0.870867E-05  0.325E-02    3.08       1.0  T
   4    -21.7264442 -0.105157E-04  0.527E-03    3.08       5.5  T
   5    -21.7264442 -0.150561E-07  0.220E-03    3.08      13.1  T
   6    -21.7264442 -0.277232E-08  0.561E-04    3.08      51.4  T
     SCC iter.                  ...        0 min,  0.002 sec
     gradient                   ...        0 min,  0.002 sec
 * total energy  :   -21.5085161 Eh     change       -0.1255300E-03 Eh
   gradient norm :     0.0091995 Eh/α   predicted    -0.1202012E-03 (  -4.25%)
   displ. norm   :     0.1232967 α      lambda       -0.1221058E-03
   maximum displ.:     0.0756440 α      in ANC's #5, #3, #6, ...

........................................................................
.............................. CYCLE   11 ..............................
........................................................................
   1    -21.7247827 -0.217248E+02  0.124E-01    3.08       0.0  T
   2    -21.7247843 -0.162921E-05  0.763E-02    3.07       1.0  T
   3    -21.7247813  0.302988E-05  0.208E-02    3.08       1.4  T
   4    -21.7247853 -0.406730E-05  0.434E-03    3.08       6.6  T
   5    -21.7247854 -0.336142E-07  0.229E-03    3.08      12.6  T
   6    -21.7247854 -0.559462E-08  0.717E-04    3.08      40.3  T
     SCC iter.                  ...        0 min,  0.003 sec
     gradient                   ...        0 min,  0.002 sec
 * total energy  :   -21.5085750 Eh     change       -0.5892552E-04 Eh
   gradient norm :     0.0123964 Eh/α   predicted    -0.6198158E-04 (   5.19%)
   displ. norm   :     0.2212963 α      lambda       -0.4728962E-03
   maximum displ.:     0.1219042 α      in ANC's #3, #7, #8, ...

........................................................................
.............................. CYCLE   12 ..............................
........................................................................
   1    -21.7279953 -0.217280E+02  0.209E-01    3.06       0.0  T
   2    -21.7280060 -0.106673E-04  0.129E-01    3.06       1.0  T
   3    -21.7280057  0.300899E-06  0.207E-02    3.06       1.4  T
   4    -21.7280078 -0.213299E-05  0.113E-02    3.06       2.6  T
   5    -21.7280087 -0.915070E-06  0.415E-03    3.06       6.9  T
   6    -21.7280088 -0.283794E-07  0.186E-03    3.06      15.5  T
   7    -21.7280088 -0.334785E-08  0.544E-04    3.06      53.0  T
     SCC iter.                  ...        0 min,  0.003 sec
     gradient                   ...        0 min,  0.002 sec
 * total energy  :   -21.5086773 Eh     change       -0.1022597E-03 Eh
   gradient norm :     0.0118505 Eh/α   predicted    -0.2480269E-03 ( 142.55%)
   displ. norm   :     0.1843556 α      lambda       -0.2550071E-03
   maximum displ.:     0.1159200 α      in ANC's #5, #3, #6, ...

........................................................................
.............................. CYCLE   13 ..............................
........................................................................
   1    -21.7260654 -0.217261E+02  0.160E-01    3.07       0.0  T
   2    -21.7260673 -0.188775E-05  0.969E-02    3.06       1.0  T
   3    -21.7260612  0.608228E-05  0.264E-02    3.07       1.1  T
   4    -21.7260683 -0.708515E-05  0.384E-03    3.07       7.5  T
   5    -21.7260683 -0.501708E-07  0.146E-03    3.07      19.8  T
   6    -21.7260683 -0.196430E-08  0.487E-04    3.07      59.3  T
     SCC iter.                  ...        0 min,  0.002 sec
     gradient                   ...        0 min,  0.002 sec
 * total energy  :   -21.5088480 Eh     change       -0.1707663E-03 Eh
   gradient norm :     0.0078002 Eh/α   predicted    -0.1318376E-03 ( -22.80%)
   displ. norm   :     0.1298031 α      lambda       -0.1557296E-03
   maximum displ.:     0.0780494 α      in ANC's #3, #5, #8, ...

........................................................................
.............................. CYCLE   14 ..............................
........................................................................
   1    -21.7260107 -0.217260E+02  0.121E-01    3.07       0.0  T
   2    -21.7260115 -0.789448E-06  0.738E-02    3.07       1.0  T
   3    -21.7260106  0.874396E-06  0.119E-02    3.07       2.4  T
   4    -21.7260120 -0.141359E-05  0.318E-03    3.07       9.1  T
   5    -21.7260121 -0.251527E-07  0.157E-03    3.07      18.4  T
   6    -21.7260121 -0.526851E-08  0.451E-04    3.07      64.0  T
     SCC iter.                  ...        0 min,  0.088 sec
     gradient                   ...        0 min,  0.001 sec
 * total energy  :   -21.5089466 Eh     change       -0.9860205E-04 Eh
   gradient norm :     0.0051001 Eh/α   predicted    -0.7917655E-04 ( -19.70%)
   displ. norm   :     0.2194138 α      lambda       -0.1130147E-03
   maximum displ.:     0.1330685 α      in ANC's #3, #5, #7, ...

........................................................................
.............................. CYCLE   15 ..............................
........................................................................
   1    -21.7249988 -0.217250E+02  0.196E-01    3.07       0.0  T
   2    -21.7250007 -0.197557E-05  0.120E-01    3.07       1.0  T
   3    -21.7249977  0.308366E-05  0.209E-02    3.07       1.4  T
   4    -21.7250021 -0.441661E-05  0.470E-03    3.07       6.1  T
   5    -21.7250021 -0.333133E-07  0.221E-03    3.07      13.1  T
   6    -21.7250021 -0.228829E-08  0.456E-04    3.07      63.3  T
     SCC iter.                  ...        0 min,  0.002 sec
     gradient                   ...        0 min,  0.001 sec
 * total energy  :   -21.5090143 Eh     change       -0.6763021E-04 Eh
   gradient norm :     0.0096334 Eh/α   predicted    -0.5922881E-04 ( -12.42%)
   displ. norm   :     0.1706165 α      lambda       -0.1794910E-03
   maximum displ.:     0.1007545 α      in ANC's #7, #3, #2, ...

........................................................................
.............................. CYCLE   16 ..............................
........................................................................
   1    -21.7267078 -0.217267E+02  0.165E-01    3.07       0.0  T
   2    -21.7267099 -0.208318E-05  0.100E-01    3.07       1.0  T
   3    -21.7267089  0.107149E-05  0.152E-02    3.07       1.9  T
   4    -21.7267111 -0.221718E-05  0.507E-03    3.07       5.7  T
   5    -21.7267111 -0.703514E-07  0.210E-03    3.07      13.7  T
   6    -21.7267112 -0.320664E-08  0.801E-04    3.07      36.0  T
     SCC iter.                  ...        0 min,  0.091 sec
     gradient                   ...        0 min,  0.001 sec
 * total energy  :   -21.5091123 Eh     change       -0.9802369E-04 Eh
   gradient norm :     0.0055227 Eh/α   predicted    -0.9235693E-04 (  -5.78%)
   displ. norm   :     0.1888373 α      lambda       -0.1028271E-03
   maximum displ.:     0.1343114 α      in ANC's #3, #7, #5, ...

........................................................................
.............................. CYCLE   17 ..............................
........................................................................
   1    -21.7256575 -0.217257E+02  0.170E-01    3.07       0.0  T
   2    -21.7256595 -0.204156E-05  0.104E-01    3.07       1.0  T
   3    -21.7256542  0.529193E-05  0.261E-02    3.07       1.1  T
   4    -21.7256613 -0.706359E-05  0.495E-03    3.07       5.8  T
   5    -21.7256613 -0.168669E-07  0.234E-03    3.07      12.3  T
   6    -21.7256613 -0.665005E-08  0.670E-04    3.07      43.1  T
     SCC iter.                  ...        0 min,  0.002 sec
     gradient                   ...        0 min,  0.001 sec
 * total energy  :   -21.5091832 Eh     change       -0.7091586E-04 Eh
   gradient norm :     0.0059517 Eh/α   predicted    -0.5324904E-04 ( -24.91%)
   displ. norm   :     0.3083234 α      lambda       -0.1949235E-03
   maximum displ.:     0.2244760 α      in ANC's #3, #5, #7, ...

........................................................................
.............................. CYCLE   18 ..............................
........................................................................
   1    -21.7262415 -0.217262E+02  0.300E-01    3.07       0.0  T
   2    -21.7262488 -0.725118E-05  0.184E-01    3.07       1.0  T
   3    -21.7262185  0.302253E-04  0.603E-02    3.08       1.0  T
   4    -21.7262562 -0.376714E-04  0.931E-03    3.07       3.1  T
   5    -21.7262563 -0.408464E-07  0.459E-03    3.07       6.3  T
   6    -21.7262563 -0.484431E-07  0.111E-03    3.07      26.0  T
   7    -21.7262563 -0.346203E-08  0.459E-04    3.07      62.8  T
     SCC iter.                  ...        0 min,  0.095 sec
     gradient                   ...        0 min,  0.002 sec
 * total energy  :   -21.5092421 Eh     change       -0.5892647E-04 Eh
   gradient norm :     0.0120138 Eh/α   predicted    -0.1067243E-03 (  81.11%)
   displ. norm   :     0.1143805 α      lambda       -0.2488311E-03
   maximum displ.:     0.0844361 α      in ANC's #8, #5, #3, ...

........................................................................
.............................. CYCLE   19 ..............................
........................................................................
   1    -21.7286562 -0.217287E+02  0.112E-01    3.07       0.0  T
   2    -21.7286620 -0.580449E-05  0.691E-02    3.07       1.0  T
   3    -21.7286602  0.179080E-05  0.255E-02    3.07       1.1  T
   4    -21.7286644 -0.415111E-05  0.878E-03    3.07       3.3  T
   5    -21.7286647 -0.366531E-06  0.367E-03    3.07       7.9  T
   6    -21.7286648 -0.181876E-07  0.163E-03    3.07      17.7  T
   7    -21.7286648 -0.997183E-08  0.572E-04    3.07      50.5  T
     SCC iter.                  ...        0 min,  0.002 sec
     gradient                   ...        0 min,  0.091 sec
 * total energy  :   -21.5092984 Eh     change       -0.5629114E-04 Eh
   gradient norm :     0.0104544 Eh/α   predicted    -0.1260417E-03 ( 123.91%)
   displ. norm   :     0.1611754 α      lambda       -0.1786226E-03
   maximum displ.:     0.1162153 α      in ANC's #3, #7, #2, ...

........................................................................
.............................. CYCLE   20 ..............................
........................................................................
   1    -21.7257405 -0.217257E+02  0.151E-01    3.07       0.0  T
   2    -21.7257432 -0.265868E-05  0.920E-02    3.06       1.0  T
   3    -21.7257426  0.599052E-06  0.136E-02    3.06       2.1  T
   4    -21.7257440 -0.137938E-05  0.584E-03    3.07       4.9  T
   5    -21.7257442 -0.230585E-06  0.238E-03    3.06      12.1  T
   6    -21.7257442 -0.826719E-08  0.938E-04    3.07      30.8  T
     SCC iter.                  ...        0 min,  0.002 sec
     gradient                   ...        0 min,  0.001 sec
 * total energy  :   -21.5093896 Eh     change       -0.9123486E-04 Eh
   gradient norm :     0.0057753 Eh/α   predicted    -0.9162896E-04 (   0.43%)
   displ. norm   :     0.0570400 α      lambda       -0.8705873E-04
   maximum displ.:     0.0288709 α      in ANC's #3, #5, #7, ...
 * RMSD in coord.:     0.7907445 α      energy gain  -0.1888149E-01 Eh

generating ANC from model Hessian ...
Using Lindh-Hessian (1995)
 Shifting diagonal of input Hessian by   1.000667216197044E-002
 Lowest  eigenvalues of input Hessian
    0.010000   -0.000000   -0.000000   -0.000000    0.000000    0.000000
    0.000000    0.010046    0.010084    0.010259    0.010568    0.014891
    0.021207    0.023547    0.033022    0.035143    0.061979    0.066900
 Highest eigenvalues
    1.182641    1.303661    1.459372    1.728697    2.078220    2.249045
 

........................................................................
.............................. CYCLE   21 ..............................
........................................................................
   1    -21.7270817 -0.217271E+02  0.619E-02    3.07       0.0  T
   2    -21.7270829 -0.117844E-05  0.383E-02    3.06       1.0  T
   3    -21.7270807  0.223558E-05  0.194E-02    3.07       1.5  T
   4    -21.7270836 -0.294571E-05  0.335E-03    3.07       8.6  T
   5    -21.7270836 -0.522303E-07  0.163E-03    3.07      17.7  T
   6    -21.7270837 -0.402342E-08  0.818E-04    3.07      35.3  T
   7    -21.7270837 -0.151465E-08  0.208E-04    3.07     138.6  T
     SCC iter.                  ...        0 min,  0.295 sec
     gradient                   ...        0 min,  0.001 sec
 * total energy  :   -21.5094355 Eh     change       -0.4587736E-04 Eh
   gradient norm :     0.0038344 Eh/α   predicted     0.0000000E+00 (-100.00%)
   displ. norm   :     0.0444442 α      lambda       -0.5268308E-04
   maximum displ.:     0.0259984 α      in ANC's #4, #9, #6, ...

........................................................................
.............................. CYCLE   22 ..............................
........................................................................
   1    -21.7275302 -0.217275E+02  0.741E-02    3.07       0.0  T
   2    -21.7275313 -0.109919E-05  0.475E-02    3.07       1.0  T
   3    -21.7275319 -0.645380E-06  0.491E-03    3.07       5.9  T
   4    -21.7275320 -0.962233E-07  0.270E-03    3.07      10.7  T
   5    -21.7275320 -0.180768E-07  0.123E-03    3.07      23.4  T
   6    -21.7275320 -0.458441E-08  0.392E-04    3.07      73.7  T
   7    -21.7275320 -0.749854E-09  0.106E-04    3.07     272.3  T
     SCC iter.                  ...        0 min,  0.002 sec
     gradient                   ...        0 min,  0.001 sec
 * total energy  :   -21.5094798 Eh     change       -0.4429885E-04 Eh
   gradient norm :     0.0015486 Eh/α   predicted    -0.2639370E-04 ( -40.42%)
   displ. norm   :     0.2151685 α      lambda       -0.1116644E-03
   maximum displ.:     0.1312607 α      in ANC's #4, #9, #6, ...

........................................................................
.............................. CYCLE   23 ..............................
........................................................................
   1    -21.7265100 -0.217265E+02  0.328E-01    3.07       0.0  T
   2    -21.7265292 -0.191634E-04  0.209E-01    3.07       1.0  T
   3    -21.7265417 -0.125469E-04  0.204E-02    3.08       1.4  T
   4    -21.7265432 -0.148993E-05  0.121E-02    3.07       2.4  T
   5    -21.7265435 -0.289419E-06  0.201E-03    3.08      14.4  T
   6    -21.7265435 -0.254970E-07  0.781E-04    3.08      37.0  T
   7    -21.7265435 -0.173539E-08  0.415E-04    3.08      69.5  T
     SCC iter.                  ...        0 min,  0.002 sec
     gradient                   ...        0 min,  0.001 sec
 * total energy  :   -21.5095374 Eh     change       -0.5758610E-04 Eh
   gradient norm :     0.0074152 Eh/α   predicted    -0.5698016E-04 (  -1.05%)
   displ. norm   :     0.0376280 α      lambda       -0.8115034E-04
   maximum displ.:     0.0300270 α      in ANC's #3, #1, #5, ...

........................................................................
.............................. CYCLE   24 ..............................
........................................................................
   1    -21.7276813 -0.217277E+02  0.295E-02    3.08       0.0  T
   2    -21.7276814 -0.124889E-06  0.181E-02    3.07       1.6  T
   3    -21.7276809  0.463454E-06  0.767E-03    3.08       3.8  T
   4    -21.7276815 -0.558015E-06  0.917E-04    3.07      31.5  T
   5    -21.7276815 -0.214362E-08  0.508E-04    3.07      56.9  T
     SCC iter.                  ...        0 min,  0.002 sec
     gradient                   ...        0 min,  0.001 sec
 * total energy  :   -21.5095879 Eh     change       -0.5050113E-04 Eh
   gradient norm :     0.0030813 Eh/α   predicted    -0.4063340E-04 ( -19.54%)
   displ. norm   :     0.0671375 α      lambda       -0.5500651E-04
   maximum displ.:     0.0447517 α      in ANC's #4, #10, #5, ...

........................................................................
.............................. CYCLE   25 ..............................
........................................................................
   1    -21.7282237 -0.217282E+02  0.675E-02    3.08       0.0  T
   2    -21.7282241 -0.322862E-06  0.411E-02    3.08       1.0  T
   3    -21.7282221  0.196259E-05  0.149E-02    3.08       1.9  T
   4    -21.7282243 -0.225829E-05  0.132E-03    3.08      21.8  T
   5    -21.7282243 -0.279939E-08  0.736E-04    3.08      39.2  T
   6    -21.7282243 -0.266759E-09  0.160E-04    3.08     180.9  T
     SCC iter.                  ...        0 min,  0.092 sec
     gradient                   ...        0 min,  0.002 sec
 * total energy  :   -21.5096279 Eh     change       -0.3999722E-04 Eh
   gradient norm :     0.0016499 Eh/α   predicted    -0.2762797E-04 ( -30.93%)
   displ. norm   :     0.3468569 α      lambda       -0.1106661E-03
   maximum displ.:     0.2552405 α      in ANC's #4, #10, #5, ...

........................................................................
.............................. CYCLE   26 ..............................
........................................................................
   1    -21.7251225 -0.217251E+02  0.335E-01    3.08       0.0  T
   2    -21.7251327 -0.101299E-04  0.205E-01    3.07       1.0  T
   3    -21.7251112  0.214480E-04  0.529E-02    3.08       1.0  T
   4    -21.7251398 -0.285550E-04  0.986E-03    3.07       2.9  T
   5    -21.7251399 -0.129868E-06  0.481E-03    3.07       6.0  T
   6    -21.7251399 -0.142940E-07  0.128E-03    3.07      22.6  T
   7    -21.7251399 -0.399907E-08  0.417E-04    3.07      69.3  T
   8    -21.7251399 -0.445073E-09  0.233E-04    3.07     124.2  T
     SCC iter.                  ...        0 min,  0.002 sec
     gradient                   ...        0 min,  0.001 sec
 * total energy  :   -21.5096308 Eh     change       -0.2898032E-05 Eh
   gradient norm :     0.0127107 Eh/α   predicted    -0.5829562E-04 (1911.56%)
   displ. norm   :     0.0588390 α      lambda       -0.1892422E-03
   maximum displ.:     0.0372172 α      in ANC's #9, #10, #6, ...

........................................................................
.............................. CYCLE   27 ..............................
........................................................................
   1    -21.7266518 -0.217267E+02  0.127E-01    3.07       0.0  T
   2    -21.7266572 -0.537507E-05  0.802E-02    3.07       1.0  T
   3    -21.7266570  0.198220E-06  0.195E-02    3.07       1.5  T
   4    -21.7266597 -0.273343E-05  0.801E-03    3.07       3.6  T
   5    -21.7266600 -0.350840E-06  0.265E-03    3.07      10.9  T
   6    -21.7266600 -0.651923E-08  0.701E-04    3.07      41.2  T
     SCC iter.                  ...        0 min,  0.091 sec
     gradient                   ...        0 min,  0.001 sec
 * total energy  :   -21.5097077 Eh     change       -0.7687704E-04 Eh
   gradient norm :     0.0055730 Eh/α   predicted    -0.9494776E-04 (  23.51%)
   displ. norm   :     0.0474842 α      lambda       -0.1019307E-03
   maximum displ.:     0.0311885 α      in ANC's #3, #7, #14, ...

........................................................................
.............................. CYCLE   28 ..............................
........................................................................
   1    -21.7285110 -0.217285E+02  0.732E-02    3.07       0.0  T
   2    -21.7285128 -0.182331E-05  0.461E-02    3.08       1.0  T
   3    -21.7285107  0.207871E-05  0.189E-02    3.07       1.5  T
   4    -21.7285137 -0.295290E-05  0.400E-03    3.08       7.2  T
   5    -21.7285138 -0.948001E-07  0.156E-03    3.08      18.5  T
   6    -21.7285138 -0.135075E-08  0.542E-04    3.08      53.3  T
     SCC iter.                  ...        0 min,  0.001 sec
     gradient                   ...        0 min,  0.001 sec
 * total energy  :   -21.5097297 Eh     change       -0.2198281E-04 Eh
   gradient norm :     0.0031080 Eh/α   predicted    -0.5108086E-04 ( 132.37%)
   displ. norm   :     0.0994395 α      lambda       -0.5335765E-04
   maximum displ.:     0.0826593 α      in ANC's #4, #5, #6, ...

........................................................................
.............................. CYCLE   29 ..............................
........................................................................
   1    -21.7275407 -0.217275E+02  0.637E-02    3.08       0.0  T
   2    -21.7275410 -0.315798E-06  0.390E-02    3.08       1.0  T
   3    -21.7275411 -0.116196E-06  0.319E-03    3.08       9.1  T
   4    -21.7275412 -0.550579E-07  0.182E-03    3.08      15.9  T
   5    -21.7275412 -0.110885E-07  0.105E-03    3.08      27.5  T
   6    -21.7275412 -0.231192E-08  0.145E-04    3.08     199.4  T
   7    -21.7275412 -0.737934E-10  0.714E-05    3.08     404.0  T
     SCC iter.                  ...        0 min,  0.002 sec
     gradient                   ...        0 min,  0.001 sec
 * total energy  :   -21.5097681 Eh     change       -0.3839901E-04 Eh
   gradient norm :     0.0018911 Eh/α   predicted    -0.2694376E-04 ( -29.83%)
   displ. norm   :     0.2611990 α      lambda       -0.4470168E-04
   maximum displ.:     0.2145375 α      in ANC's #4, #5, #6, ...

........................................................................
.............................. CYCLE   30 ..............................
........................................................................
   1    -21.7262668 -0.217263E+02  0.155E-01    3.07       0.0  T
   2    -21.7262686 -0.184156E-05  0.950E-02    3.07       1.0  T
   3    -21.7262691 -0.462723E-06  0.958E-03    3.07       3.0  T
   4    -21.7262697 -0.611937E-06  0.472E-03    3.07       6.1  T
   5    -21.7262697 -0.642731E-07  0.252E-03    3.07      11.5  T
   6    -21.7262698 -0.123071E-07  0.327E-04    3.07      88.3  T
   7    -21.7262698 -0.393896E-09  0.181E-04    3.07     159.4  T
     SCC iter.                  ...        0 min,  0.002 sec
     gradient                   ...        0 min,  0.001 sec
 * total energy  :   -21.5097900 Eh     change       -0.2189107E-04 Eh
   gradient norm :     0.0055763 Eh/α   predicted    -0.2302737E-04 (   5.19%)
   displ. norm   :     0.0382350 α      lambda       -0.4052868E-04
   maximum displ.:     0.0309917 α      in ANC's #3, #4, #5, ...

........................................................................
.............................. CYCLE   31 ..............................
........................................................................
   1    -21.7276535 -0.217277E+02  0.148E-02    3.07       0.0  T
   2    -21.7276536 -0.123476E-06  0.886E-03    3.07       3.3  T
   3    -21.7276535  0.158153E-06  0.559E-03    3.07       5.2  T
   4    -21.7276537 -0.228815E-06  0.103E-03    3.07      27.9  T
   5    -21.7276537 -0.257302E-08  0.370E-04    3.07      78.0  T
     SCC iter.                  ...        0 min,  0.001 sec
     gradient                   ...        0 min,  0.001 sec
 * total energy  :   -21.5098112 Eh     change       -0.2123325E-04 Eh
   gradient norm :     0.0023883 Eh/α   predicted    -0.2029243E-04 (  -4.43%)
   displ. norm   :     0.0867682 α      lambda       -0.3437353E-04
   maximum displ.:     0.0751832 α      in ANC's #4, #3, #5, ...

........................................................................
.............................. CYCLE   32 ..............................
........................................................................
   1    -21.7281382 -0.217281E+02  0.359E-02    3.07       0.0  T
   2    -21.7281387 -0.424075E-06  0.219E-02    3.08       1.3  T
   3    -21.7281380  0.709493E-06  0.102E-02    3.07       2.8  T
   4    -21.7281389 -0.895298E-06  0.192E-03    3.08      15.0  T
   5    -21.7281389 -0.157731E-07  0.890E-04    3.07      32.4  T
   6    -21.7281389 -0.379938E-09  0.391E-04    3.07      73.8  T
     SCC iter.                  ...        0 min,  0.092 sec
     gradient                   ...        0 min,  0.001 sec
 * total energy  :   -21.5098288 Eh     change       -0.1764418E-04 Eh
   gradient norm :     0.0012927 Eh/α   predicted    -0.1731579E-04 (  -1.86%)
   displ. norm   :     0.1076208 α      lambda       -0.7445477E-05
   maximum displ.:     0.0950315 α      in ANC's #4, #3, #5, ...

........................................................................
.............................. CYCLE   33 ..............................
........................................................................
   1    -21.7279202 -0.217279E+02  0.460E-02    3.07       0.0  T
   2    -21.7279205 -0.292711E-06  0.286E-02    3.07       1.0  T
   3    -21.7279204  0.542764E-07  0.543E-03    3.07       5.3  T
   4    -21.7279207 -0.244559E-06  0.190E-03    3.07      15.2  T
   5    -21.7279207 -0.674780E-08  0.936E-04    3.07      30.9  T
   6    -21.7279207 -0.132113E-08  0.146E-04    3.07     197.9  T
     SCC iter.                  ...        0 min,  0.001 sec
     gradient                   ...        0 min,  0.001 sec
 * total energy  :   -21.5098363 Eh     change       -0.7486171E-05 Eh
   gradient norm :     0.0010037 Eh/α   predicted    -0.3741306E-05 ( -50.02%)
   displ. norm   :     0.0803787 α      lambda       -0.6543794E-05
   maximum displ.:     0.0769360 α      in ANC's #4, #3, #22, ...

........................................................................
.............................. CYCLE   34 ..............................
........................................................................
   1    -21.7279292 -0.217279E+02  0.322E-02    3.07       0.0  T
   2    -21.7279294 -0.245081E-06  0.206E-02    3.07       1.4  T
   3    -21.7279292  0.187152E-06  0.620E-03    3.07       4.7  T
   4    -21.7279296 -0.360442E-06  0.137E-03    3.07      21.1  T
   5    -21.7279296 -0.301236E-08  0.704E-04    3.07      41.0  T
   6    -21.7279296 -0.627541E-09  0.162E-04    3.07     178.6  T
     SCC iter.                  ...        0 min,  0.001 sec
     gradient                   ...        0 min,  0.091 sec
 * total energy  :   -21.5098424 Eh     change       -0.6052447E-05 Eh
   gradient norm :     0.0018727 Eh/α   predicted    -0.3280280E-05 ( -45.80%)
   displ. norm   :     0.1162861 α      lambda       -0.1083211E-04
   maximum displ.:     0.1021451 α      in ANC's #4, #5, #3, ...

........................................................................
.............................. CYCLE   35 ..............................
........................................................................
   1    -21.7278192 -0.217278E+02  0.902E-02    3.07       0.0  T
   2    -21.7278208 -0.157820E-05  0.577E-02    3.07       1.0  T
   3    -21.7278216 -0.760429E-06  0.761E-03    3.07       3.8  T
   4    -21.7278220 -0.400631E-06  0.331E-03    3.07       8.7  T
   5    -21.7278220 -0.170292E-07  0.119E-03    3.07      24.3  T
   6    -21.7278220 -0.324498E-08  0.176E-04    3.07     164.4  T
   7    -21.7278220 -0.681943E-10  0.627E-05    3.07     460.2  T
     SCC iter.                  ...        0 min,  0.002 sec
     gradient                   ...        0 min,  0.001 sec
 * total energy  :   -21.5098549 Eh     change       -0.1255270E-04 Eh
   gradient norm :     0.0012151 Eh/α   predicted    -0.5448174E-05 ( -56.60%)
   displ. norm   :     0.1985572 α      lambda       -0.2012295E-04
   maximum displ.:     0.1538231 α      in ANC's #4, #5, #3, ...

........................................................................
.............................. CYCLE   36 ..............................
........................................................................
   1    -21.7271526 -0.217272E+02  0.177E-01    3.07       0.0  T
   2    -21.7271576 -0.497330E-05  0.112E-01    3.07       1.0  T
   3    -21.7271602 -0.259701E-05  0.138E-02    3.07       2.1  T
   4    -21.7271613 -0.109966E-05  0.682E-03    3.07       4.2  T
   5    -21.7271614 -0.588329E-07  0.245E-03    3.07      11.8  T
   6    -21.7271614 -0.291791E-07  0.375E-04    3.07      77.0  T
   7    -21.7271614 -0.832689E-09  0.172E-04    3.07     167.5  T
     SCC iter.                  ...        0 min,  0.002 sec
     gradient                   ...        0 min,  0.001 sec
 * total energy  :   -21.5098787 Eh     change       -0.2380702E-04 Eh
   gradient norm :     0.0022123 Eh/α   predicted    -0.1023917E-04 ( -56.99%)
   displ. norm   :     0.1216682 α      lambda       -0.2213296E-04
   maximum displ.:     0.0910668 α      in ANC's #5, #4, #6, ...

........................................................................
.............................. CYCLE   37 ..............................
........................................................................
   1    -21.7271685 -0.217272E+02  0.119E-01    3.07       0.0  T
   2    -21.7271704 -0.185540E-05  0.746E-02    3.07       1.0  T
   3    -21.7271717 -0.135973E-05  0.630E-03    3.07       4.6  T
   4    -21.7271717 -0.616478E-08  0.415E-03    3.07       7.0  T
   5    -21.7271718 -0.611740E-07  0.973E-04    3.07      29.7  T
   6    -21.7271718 -0.799722E-08  0.194E-04    3.07     148.8  T
     SCC iter.                  ...        0 min,  0.002 sec
     gradient                   ...        0 min,  0.001 sec
 * total energy  :   -21.5098971 Eh     change       -0.1835519E-04 Eh
   gradient norm :     0.0024520 Eh/α   predicted    -0.1123088E-04 ( -38.81%)
   displ. norm   :     0.1025185 α      lambda       -0.2120710E-04
   maximum displ.:     0.0700983 α      in ANC's #5, #4, #3, ...

........................................................................
.............................. CYCLE   38 ..............................
........................................................................
   1    -21.7271221 -0.217271E+02  0.872E-02    3.07       0.0  T
   2    -21.7271230 -0.968043E-06  0.544E-02    3.07       1.0  T
   3    -21.7271237 -0.668738E-06  0.524E-03    3.07       5.5  T
   4    -21.7271238 -0.560902E-07  0.345E-03    3.07       8.4  T
   5    -21.7271238 -0.281570E-07  0.734E-04    3.07      39.3  T
   6    -21.7271238 -0.538625E-08  0.145E-04    3.07     198.8  T
     SCC iter.                  ...        0 min,  0.001 sec
     gradient                   ...        0 min,  0.001 sec
 * total energy  :   -21.5099152 Eh     change       -0.1816707E-04 Eh
   gradient norm :     0.0019727 Eh/α   predicted    -0.1071417E-04 ( -41.02%)
   displ. norm   :     0.1941283 α      lambda       -0.3195526E-04
   maximum displ.:     0.1586425 α      in ANC's #5, #4, #1, ...

........................................................................
.............................. CYCLE   39 ..............................
........................................................................
   1    -21.7277111 -0.217277E+02  0.172E-01    3.07       0.0  T
   2    -21.7277142 -0.301530E-05  0.106E-01    3.07       1.0  T
   3    -21.7277139  0.288408E-06  0.177E-02    3.07       1.6  T
   4    -21.7277165 -0.266641E-05  0.660E-03    3.07       4.4  T
   5    -21.7277166 -0.485125E-07  0.197E-03    3.07      14.7  T
   6    -21.7277166 -0.113965E-07  0.411E-04    3.07      70.2  T
   7    -21.7277166 -0.108902E-08  0.169E-04    3.07     170.6  T
     SCC iter.                  ...        0 min,  0.002 sec
     gradient                   ...        0 min,  0.001 sec
 * total energy  :   -21.5099508 Eh     change       -0.3557752E-04 Eh
   gradient norm :     0.0011798 Eh/α   predicted    -0.1624605E-04 ( -54.34%)
   displ. norm   :     0.3086689 α      lambda       -0.3053704E-04
   maximum displ.:     0.2118638 α      in ANC's #4, #5, #3, ...

........................................................................
.............................. CYCLE   40 ..............................
........................................................................
   1    -21.7252531 -0.217253E+02  0.252E-01    3.07       0.0  T
   2    -21.7252613 -0.822822E-05  0.157E-01    3.07       1.0  T
   3    -21.7252661 -0.476257E-05  0.169E-02    3.07       1.7  T
   4    -21.7252671 -0.105835E-05  0.102E-02    3.07       2.8  T
   5    -21.7252673 -0.170651E-06  0.427E-03    3.07       6.8  T
   6    -21.7252674 -0.930183E-07  0.591E-04    3.07      48.9  T
   7    -21.7252674 -0.247149E-08  0.253E-04    3.07     113.9  T
     SCC iter.                  ...        0 min,  0.002 sec
     gradient                   ...        0 min,  0.001 sec
 * total energy  :   -21.5099533 Eh     change       -0.2487598E-05 Eh
   gradient norm :     0.0062712 Eh/α   predicted    -0.1591705E-04 ( 539.86%)
   displ. norm   :     0.0627266 α      lambda       -0.4586974E-04
   maximum displ.:     0.0585634 α      in ANC's #4, #3, #5, ...

........................................................................
.............................. CYCLE   41 ..............................
........................................................................
   1    -21.7270082 -0.217270E+02  0.382E-02    3.07       0.0  T
   2    -21.7270087 -0.503139E-06  0.243E-02    3.07       1.2  T
   3    -21.7270085  0.216067E-06  0.787E-03    3.07       3.7  T
   4    -21.7270090 -0.426357E-06  0.210E-03    3.07      13.7  T
   5    -21.7270090 -0.294084E-07  0.939E-04    3.07      30.8  T
     SCC iter.                  ...        0 min,  0.092 sec
     gradient                   ...        0 min,  0.001 sec
 * total energy  :   -21.5099823 Eh     change       -0.2897316E-04 Eh
   gradient norm :     0.0023559 Eh/α   predicted    -0.2302622E-04 ( -20.53%)
   displ. norm   :     0.0777881 α      lambda       -0.1679635E-04
   maximum displ.:     0.0646753 α      in ANC's #5, #4, #2, ...

........................................................................
.............................. CYCLE   42 ..............................
........................................................................
   1    -21.7275825 -0.217276E+02  0.695E-02    3.07       0.0  T
   2    -21.7275829 -0.472860E-06  0.427E-02    3.07       1.0  T
   3    -21.7275826  0.317503E-06  0.859E-03    3.07       3.4  T
   4    -21.7275833 -0.690498E-06  0.260E-03    3.07      11.1  T
   5    -21.7275833 -0.863334E-08  0.109E-03    3.07      26.6  T
   6    -21.7275833 -0.273628E-08  0.281E-04    3.07     102.7  T
   7    -21.7275833 -0.438199E-09  0.876E-05    3.07     329.7  T
     SCC iter.                  ...        0 min,  0.003 sec
     gradient                   ...        0 min,  0.001 sec
 * total energy  :   -21.5099938 Eh     change       -0.1153893E-04 Eh
   gradient norm :     0.0013120 Eh/α   predicted    -0.8449701E-05 ( -26.77%)
   displ. norm   :     0.1828291 α      lambda       -0.1365711E-04
   maximum displ.:     0.1384535 α      in ANC's #5, #4, #2, ...
 * RMSD in coord.:     0.5588051 α      energy gain  -0.6041839E-03 Eh

generating ANC from model Hessian ...
Using Lindh-Hessian (1995)
 Shifting diagonal of input Hessian by   1.006522521001383E-002
 Lowest  eigenvalues of input Hessian
    0.010000    0.010054   -0.000000   -0.000000    0.000000    0.000000
    0.000000    0.000000    0.010113    0.010555    0.011076    0.015042
    0.021627    0.023846    0.033775    0.034938    0.060201    0.067331
 Highest eigenvalues
    1.188346    1.310970    1.460165    1.728254    2.081875    2.247989
 

........................................................................
.............................. CYCLE   43 ..............................
........................................................................
   1    -21.7277439 -0.217277E+02  0.159E-01    3.07       0.0  T
   2    -21.7277465 -0.263028E-05  0.982E-02    3.07       1.0  T
   3    -21.7277485 -0.202783E-05  0.778E-03    3.07       3.7  T
   4    -21.7277485 -0.143827E-07  0.306E-03    3.07       9.4  T
   5    -21.7277486 -0.330271E-07  0.673E-04    3.07      42.9  T
   6    -21.7277486 -0.357529E-08  0.328E-04    3.07      88.0  T
     SCC iter.                  ...        0 min,  0.001 sec
     gradient                   ...        0 min,  0.002 sec
 * total energy  :   -21.5100085 Eh     change       -0.1469636E-04 Eh
   gradient norm :     0.0015095 Eh/α   predicted     0.0000000E+00 (-100.00%)
   displ. norm   :     0.0375819 α      lambda       -0.1074145E-04
   maximum displ.:     0.0241384 α      in ANC's #1, #2, #3, ...

........................................................................
.............................. CYCLE   44 ..............................
........................................................................
   1    -21.7279494 -0.217279E+02  0.336E-02    3.07       0.0  T
   2    -21.7279496 -0.246305E-06  0.214E-02    3.07       1.3  T
   3    -21.7279497 -0.707651E-07  0.308E-03    3.07       9.4  T
   4    -21.7279498 -0.708270E-07  0.140E-03    3.07      20.7  T
   5    -21.7279498 -0.914468E-08  0.710E-04    3.07      40.7  T
   6    -21.7279498 -0.945978E-09  0.260E-04    3.07     110.9  T
     SCC iter.                  ...        0 min,  0.001 sec
     gradient                   ...        0 min,  0.001 sec
 * total energy  :   -21.5100194 Eh     change       -0.1086827E-04 Eh
   gradient norm :     0.0008085 Eh/α   predicted    -0.5374489E-05 ( -50.55%)
   displ. norm   :     0.0744962 α      lambda       -0.1446166E-04
   maximum displ.:     0.0429481 α      in ANC's #1, #2, #3, ...

........................................................................
.............................. CYCLE   45 ..............................
........................................................................
   1    -21.7277632 -0.217278E+02  0.658E-02    3.07       0.0  T
   2    -21.7277640 -0.769922E-06  0.419E-02    3.08       1.0  T
   3    -21.7277642 -0.229528E-06  0.614E-03    3.07       4.7  T
   4    -21.7277645 -0.301945E-06  0.247E-03    3.08      11.7  T
   5    -21.7277645 -0.137643E-07  0.971E-04    3.07      29.7  T
   6    -21.7277645 -0.725578E-09  0.193E-04    3.07     149.7  T
     SCC iter.                  ...        0 min,  0.091 sec
     gradient                   ...        0 min,  0.001 sec
 * total energy  :   -21.5100208 Eh     change       -0.1361190E-05 Eh
   gradient norm :     0.0031175 Eh/α   predicted    -0.7248235E-05 ( 432.49%)
   displ. norm   :     0.0090598 α      lambda       -0.1379657E-04
   maximum displ.:     0.0044369 α      in ANC's #4, #10, #3, ...

........................................................................
.............................. CYCLE   46 ..............................
........................................................................
   1    -21.7278261 -0.217278E+02  0.122E-02    3.07       0.0  T
   2    -21.7278262 -0.448578E-07  0.755E-03    3.07       3.8  T
   3    -21.7278262 -0.844086E-09  0.143E-03    3.07      20.2  T
   4    -21.7278262 -0.132651E-07  0.526E-04    3.07      54.9  T
   5    -21.7278262 -0.732882E-09  0.342E-04    3.07      84.4  T
     SCC iter.                  ...        0 min,  0.001 sec
     gradient                   ...        0 min,  0.001 sec
 * total energy  :   -21.5100305 Eh     change       -0.9701145E-05 Eh
   gradient norm :     0.0013366 Eh/α   predicted    -0.6899531E-05 ( -28.88%)
   displ. norm   :     0.0317967 α      lambda       -0.6129986E-05
   maximum displ.:     0.0192736 α      in ANC's #4, #3, #1, ...

........................................................................
.............................. CYCLE   47 ..............................
........................................................................
   1    -21.7278974 -0.217279E+02  0.299E-02    3.07       0.0  T
   2    -21.7278975 -0.160149E-06  0.187E-02    3.07       1.5  T
   3    -21.7278976 -0.420037E-07  0.303E-03    3.07       9.5  T
   4    -21.7278976 -0.546238E-07  0.142E-03    3.07      20.4  T
   5    -21.7278976 -0.438200E-08  0.771E-04    3.07      37.4  T
   6    -21.7278976 -0.154482E-08  0.179E-04    3.07     160.9  T
     SCC iter.                  ...        0 min,  0.001 sec
     gradient                   ...        0 min,  0.001 sec
 * total energy  :   -21.5100350 Eh     change       -0.4559981E-05 Eh
   gradient norm :     0.0007655 Eh/α   predicted    -0.3065872E-05 ( -32.77%)
   displ. norm   :     0.0297785 α      lambda       -0.2385252E-05
   maximum displ.:     0.0173915 α      in ANC's #4, #3, #1, ...

   *** GEOMETRY OPTIMIZATION CONVERGED AFTER 47 ITERATIONS ***

------------------------------------------------------------------------
 total energy gain   :        -0.0195269 Eh      -12.2533 kcal/mol
 total RMSD          :         0.6555919 a0        0.3469 Å
 total power (kW/mol):        -1.0908034 (step)  -21.3153 (real)
------------------------------------------------------------------------

 ANCopt (total)                0 d,  0 h,  0 min,  2.405 sec
 optimizer setup                ...        0 min,  0.000 sec (  0.014%)
 model hessian                  ...        0 min,  0.010 sec (  0.416%)
 ANC generation                 ...        0 min,  0.002 sec (  0.065%)
 coordinate transformation      ...        0 min,  0.002 sec (  0.078%)
 single point calculation       ...        0 min,  2.284 sec ( 94.946%)
 optimization log               ...        0 min,  0.004 sec (  0.156%)
 hessian update                 ...        0 min,  0.094 sec (  3.899%)
 rational function              ...        0 min,  0.003 sec (  0.133%)

================
 final structure:
================
12
 xtb: 6.2.3 (830e466)
C         1.39951081953032    1.71539785300474   -1.21178563001234
C         0.83324794177102    0.59670214017584   -0.73491698269780
C         1.64492653254358   -0.58894819013464   -0.52070319396430
O         0.69552672650051    2.82666416678702   -1.42672723346063
O         1.50532556332049    3.87365792993720   -1.94079940984879
O         2.83028991022252   -0.67758399657090   -0.73458549832912
H         0.86896971372520    4.58624100181494   -2.09660154333903
H         2.45842913454880    1.75181335569357   -1.44241837416406
H        -0.13439771026953    0.09993077540769   -3.32160184238933
H         1.07195248243240   -1.45300003336008   -0.13378891524435
H        -0.56586049388785    0.05147720381333   -3.96764288219723
H        -0.21894062043050    0.55725779342918   -0.50423849434971
 
 Bond Distances (Angstroems)
 ---------------------------
C1-C2=1.3415         C1-O4=1.3329         C1-H8=1.0844         C2-C1=1.3415         C2-C3=1.4527         C2-H12=1.0779        
C3-C2=1.4527         C3-O6=1.2078         C3-H10=1.1066        O4-C1=1.3329         O4-O5=1.4199         O5-O4=1.4199         
O5-H7=0.9680         O6-C3=1.2078         H7-O5=0.9680         H8-C1=1.0844         H9-H11=0.7784        H10-C3=1.1066        
H11-H9=0.7784        H12-C2=1.0779        
 H  H  Rav=0.7784 sigma=0.0000  Rmin=0.7784  Rmax=0.7784     1
 C  H  Rav=1.0896 sigma=0.0123  Rmin=1.0779  Rmax=1.1066     3
 C  C  Rav=1.3971 sigma=0.0556  Rmin=1.3415  Rmax=1.4527     2
 O  H  Rav=0.9680 sigma=0.0000  Rmin=0.9680  Rmax=0.9680     1
 O  C  Rav=1.2703 sigma=0.0626  Rmin=1.2078  Rmax=1.3329     2
 O  O  Rav=1.4199 sigma=0.0000  Rmin=1.4199  Rmax=1.4199     1
 
 selected bond angles (degree)
 --------------------
O4-C1-C2=121.98                H8-C1-C2=121.05                H8-C1-O4=116.97                C3-C2-C1=119.81                
H12-C2-C1=121.24               H12-C2-C3=118.95               O6-C3-C2=125.60                H10-C3-C2=113.55               
H10-C3-O6=120.85               O5-O4-C1=111.83                H7-O5-O4=103.07                
 
 selected dihedral angles (degree)
 ---------------------------------
C3-C2-C1-O4=179.88            C3-C2-C1-H8=  0.03            H12-C2-C1-O4=359.83           H12-C2-C1-H8=179.97           
O6-C3-C2-C1=  0.11            O6-C3-C2-H12=180.17           H10-C3-C2-C1=180.49           H10-C3-C2-H12=  0.55          
O5-O4-C1-C2=180.43            O5-O4-C1-H8=  0.29            H7-O5-O4-C1=176.77            
 
 CMA Distance (Angstroems)
 ---------------------------
R(CMA):  3.3831
           -------------------------------------------------
          |                Final Singlepoint                |
           -------------------------------------------------

          ...................................................
          :                      SETUP                      :
          :.................................................:
          :  # basis functions                  30          :
          :  # atomic orbitals                  30          :
          :  # shells                           18          :
          :  # electrons                        36          :
          :  max. iterations                   100          :
          :  Hamiltonian                  GFN2-xTB          :
          :  restarted?                      false          :
          :  GBSA solvation                  false          :
          :  PC potential                    false          :
          :  electronic temp.          300.0000000     K    :
          :  accuracy                    1.0000000          :
          :  -> integral cutoff          0.2500000E+02      :
          :  -> integral neglect         0.1000000E-07      :
          :  -> SCF convergence          0.1000000E-05 Eh   :
          :  -> wf. convergence          0.1000000E-03 e    :
          :  Broyden damping             0.4000000          :
          ...................................................

 iter      E             dE          RMSdq      gap      omega  full diag
   1    -21.7278976 -0.217279E+02  0.651E-05    3.07       0.0  T
   2    -21.7278976 -0.866862E-11  0.279E-05    3.07    1035.9  T
   3    -21.7278976 -0.108358E-11  0.225E-05    3.07    1282.2  T

   *** convergence criteria satisfied after 3 iterations ***

         #    Occupation            Energy/Eh            Energy/eV
      -------------------------------------------------------------
         1        2.0000           -0.7725604             -21.0224
       ...           ...                  ...                  ...
        12        2.0000           -0.5322098             -14.4822
        13        2.0000           -0.5185131             -14.1095
        14        2.0000           -0.4954645             -13.4823
        15        2.0000           -0.4776522             -12.9976
        16        2.0000           -0.4684260             -12.7465
        17        2.0000           -0.4178895             -11.3714
        18        2.0000           -0.4025583             -10.9542 (HOMO)
        19                         -0.2896966              -7.8830 (LUMO)
        20                         -0.1919090              -5.2221
        21                         -0.1785364              -4.8582
        22                          0.0950665               2.5869
        23                          0.0963856               2.6228
       ...                                ...                  ...
        30                          0.6538776              17.7929
      -------------------------------------------------------------
                  HL-Gap            0.1128616 Eh            3.0711 eV
             Fermi-level           -0.3461274 Eh           -9.4186 eV

 SCC (total)                   0 d,  0 h,  0 min,  0.092 sec
 SCC setup                      ...        0 min,  0.089 sec ( 96.694%)
 Dispersion                     ...        0 min,  0.000 sec (  0.046%)
 integral evaluation            ...        0 min,  0.000 sec (  0.532%)
 zeroth order Hamiltonian       ...        0 min,  0.000 sec (  0.081%)
 iterations                     ...        0 min,  0.001 sec (  0.870%)
 molecular gradient             ...        0 min,  0.001 sec (  1.327%)
 printout                       ...        0 min,  0.000 sec (  0.222%)

         :::::::::::::::::::::::::::::::::::::::::::::::::::::
         ::                     SUMMARY                     ::
         :::::::::::::::::::::::::::::::::::::::::::::::::::::
         :: total energy             -21.510035009050 Eh    ::
         :: gradient norm              0.000764708157 Eh/a0 ::
         :: HOMO-LUMO gap              3.071121766421 eV    ::
         ::.................................................::
         :: SCC energy               -21.727897648415 Eh    ::
         :: -> isotropic ES            0.042956940169 Eh    ::
         :: -> anisotropic ES          0.006130850161 Eh    ::
         :: -> anisotropic XC          0.004909454611 Eh    ::
         :: -> dispersion             -0.005601996799 Eh    ::
         :: repulsion energy           0.217851942280 Eh    ::
         :: add. restraining           0.000000000000 Eh    ::
         :::::::::::::::::::::::::::::::::::::::::::::::::::::

           -------------------------------------------------
          |                Property Printout                |
           -------------------------------------------------

    * Orbital Energies and Occupations

         #    Occupation            Energy/Eh            Energy/eV
      -------------------------------------------------------------
         1        2.0000           -0.7725604             -21.0224
       ...           ...                  ...                  ...
         6        2.0000           -0.6416072             -17.4590
         7        2.0000           -0.6092901             -16.5796
         8        2.0000           -0.6027810             -16.4025
         9        2.0000           -0.5748999             -15.6438
        10        2.0000           -0.5536203             -15.0648
        11        2.0000           -0.5353908             -14.5687
        12        2.0000           -0.5322098             -14.4822
        13        2.0000           -0.5185131             -14.1095
        14        2.0000           -0.4954645             -13.4823
        15        2.0000           -0.4776522             -12.9976
        16        2.0000           -0.4684260             -12.7465
        17        2.0000           -0.4178895             -11.3714
        18        2.0000           -0.4025583             -10.9542 (HOMO)
        19                         -0.2896966              -7.8830 (LUMO)
        20                         -0.1919090              -5.2221
        21                         -0.1785364              -4.8582
        22                          0.0950665               2.5869
        23                          0.0963856               2.6228
        24                          0.1177758               3.2048
        25                          0.1271903               3.4610
        26                          0.1824205               4.9639
        27                          0.2052588               5.5854
        28                          0.4247717              11.5586
        29                          0.4755864              12.9414
        30                          0.6538776              17.7929
      -------------------------------------------------------------
                  HL-Gap            0.1128616 Eh            3.0711 eV
             Fermi-level           -0.3461274 Eh           -9.4186 eV

     #   Z        covCN         q      C6AA      α(0)
     1   6 C      2.778     0.137    24.995     8.189
     2   6 C      2.888    -0.095    30.381     9.037
     3   6 C      2.770     0.207    23.599     7.956
     4   8 O      1.787    -0.119    16.097     5.418
     5   8 O      1.741    -0.298    18.946     5.877
     6   8 O      0.856    -0.349    20.689     6.098
     7   1 H      0.804     0.334     0.627     1.244
     8   1 H      0.925     0.101     1.772     2.082
     9   1 H      0.808    -0.003     3.168     2.795
    10   1 H      0.922     0.020     2.731     2.584
    11   1 H      0.808     0.000     3.100     2.765
    12   1 H      0.926     0.064     2.157     2.297

 Mol. C6AA /au·bohr⁶  :       1363.666854
 Mol. C8AA /au·bohr⁸  :      29100.315758
 Mol. α(0) /au        :         56.341614


Wiberg/Mayer (AO) data.
largest (>0.10) Wiberg bond orders for each atom
          total WBO             WBO to atom ...
     1  C   3.914        C    2 1.690    O    4 1.137    H    8 0.944
     2  C   3.976        C    1 1.690    C    3 1.109    H   12 0.965    O    4 0.105
     3  C   3.939        O    6 1.833    C    2 1.109    H   10 0.933
     4  O   2.274        C    1 1.137    O    5 0.964    C    2 0.105
     5  O   1.916        O    4 0.964    H    7 0.881
     6  O   2.072        C    3 1.833
     7  H   0.888        O    5 0.881
     8  H   0.990        C    1 0.944
     9  H   1.000        H   11 0.997
    10  H   0.998        C    3 0.933
    11  H   1.000        H    9 0.997
    12  H   0.996        C    2 0.965

molecular dipole:
                 x           y           z       tot (Debye)
 q only:       -0.978       0.978      -0.137
   full:       -1.278       1.129      -0.131       4.347
molecular quadrupole (traceless):
                xx          xy          yy          xz          yz          zz
 q only:      -11.298       2.720      10.843       2.131      -5.972       0.455
  q+dip:      -13.968       2.558      12.981       3.596      -7.036       0.987
   full:      -14.711       2.607      13.064       3.618      -6.696       1.647

           -------------------------------------------------
          |                Geometry Summary                 |
           -------------------------------------------------

      molecular mass/u    :       90.0780670
   center of mass at/Å    :        1.4495973       1.3620928      -1.1859053
  moments of inertia/u·Å² :        0.5977091E+02   0.3268758E+03   0.3538683E+03
rotational constants/cm⁻¹ :        0.2820374E+00   0.5157197E-01   0.4763816E-01

 * 8 selected distances

     #   Z        #   Z                                     value/Å
     1   6 C      2   6 C                                 1.3414684
     1   6 C      4   8 O                                 1.3329315
     4   8 O      5   8 O                                 1.4199438 (max)
     3   6 C      6   8 O                                 1.2077617
     5   8 O      7   1 H                                 0.9679864
     1   6 C      8   1 H                                 1.0843549
     9   1 H     11   1 H                                 0.7783810 (min)
     2   6 C     12   1 H                                 1.0779004

 * 6 distinct bonds (by element types)

   Z      Z             #   av. dist./Å        max./Å        min./Å
   1 H    1 H           1     0.7783810     0.7783810     0.7783810
   1 H    6 C           2     1.0811276     1.0843549     1.0779004
   6 C    6 C           1     1.3414684     1.3414684     1.3414684
   1 H    8 O           1     0.9679864     0.9679864     0.9679864
   6 C    8 O           2     1.2703466     1.3329315     1.2077617
   8 O    8 O           1     1.4199438     1.4199438     1.4199438


optimized geometry written to: xtbopt.xyz


           -------------------------------------------------
          | TOTAL ENERGY              -21.510035009050 Eh   |
          | GRADIENT NORM               0.000764708157 Eh/α |
          | HOMO-LUMO GAP               3.071121766421 eV   |
           -------------------------------------------------

------------------------------------------------------------------------
 * finished run on 2020/12/23 at 21:40:43.968     
------------------------------------------------------------------------
 total:
 * wall-time:     0 d,  0 h,  0 min,  2.758 sec
 *  cpu-time:     0 d,  0 h,  0 min, 11.473 sec
 * ratio c/w:     4.160 speedup
 SCF:
 * wall-time:     0 d,  0 h,  0 min,  0.097 sec
 *  cpu-time:     0 d,  0 h,  0 min,  0.338 sec
 * ratio c/w:     3.501 speedup
 ANC optimizer:
 * wall-time:     0 d,  0 h,  0 min,  2.500 sec
 *  cpu-time:     0 d,  0 h,  0 min, 10.044 sec
 * ratio c/w:     4.017 speedup

