      -----------------------------------------------------------      
     |                   =====================                   |     
     |                           x T B                           |     
     |                   =====================                   |     
     |                         S. Grimme                         |     
     |          Mulliken Center for Theoretical Chemistry        |     
     |                    University of Bonn                     |     
      -----------------------------------------------------------      

   * xtb version 6.2.3 (830e466) compiled by 'ehlert@majestix' on 2020-03-16

   xtb is free software: you can redistribute it and/or modify it under
   the terms of the GNU Lesser General Public License as published by
   the Free Software Foundation, either version 3 of the License, or
   (at your option) any later version.
   
   xtb is distributed in the hope that it will be useful,
   but WITHOUT ANY WARRANTY; without even the implied warranty of
   MERCHANTABILITY or FITNESS FOR A PARTICULAR PURPOSE.  See the
   GNU Lesser General Public License for more details.
   
   Cite this work as:
   * S. Grimme, C. Bannwarth, P. Shushkov, J. Chem. Theory Comput., 2017,
     13, 1989-2009. DOI: 10.1021/acs.jctc.7b00118
   * C. Bannwarth, S. Ehlert and S. Grimme., J. Chem. Theory Comput., 2019,
     15, 1652-1671. DOI: 10.1021/acs.jctc.8b01176
   * P. Pracht, E. Caldeweyher, S. Ehlert, S. Grimme, ChemRxiv, 2019, preprint.
     DOI: 10.26434/chemrxiv.8326202.v1
   
   for DFT-D4:
   * E. Caldeweyher, C. Bannwarth and S. Grimme, J. Chem. Phys., 2017,
     147, 034112. DOI: 10.1063/1.4993215
   * E. Caldeweyher, S. Ehlert, A. Hansen, H. Neugebauer, S. Spicher,
     C. Bannwarth and S. Grimme, J. Chem. Phys., 2019, 150, 154122.
     DOI: 10.1063/1.5090222
   
   for sTDA-xTB:
   * S. Grimme and C. Bannwarth, J. Chem. Phys., 2016, 145, 054103.
     DOI: 10.1063/1.4959605
   
   in the mass-spec context:
   * V. Asgeirsson, C. Bauer and S. Grimme, Chem. Sci., 2017, 8, 4879.
     DOI: 10.1039/c7sc00601b
   
   for metadynamics refer to:
   * S. Grimme, J. Chem. Theory Comput., 2019, 155, 2847-2862
     DOI: 10.1021/acs.jctc.9b00143
   
   with help from (in alphabetical order)
   C. Bannwarth, F. Bohle, G. Brandenburg, E. Caldeweyher, M. Checinski,
   S. Dohm, S. Ehlert, S. Ehrlich, F. März, H. Neugebauer, J. Pisarek,
   P. Pracht, P. Shushkov, and S. Spicher.
   
 * started run on 2020/12/23 at 21:41:29.784     

           -------------------------------------------------
          |                Calculation Setup                |
           -------------------------------------------------

          program call               : xtb -c 0 -u 0 -a 1.0 --iterations 100 --opt normal --namespace product_14 /scratch/bell/zhao922/YARP/paper-example/potential_product/test/reaction_channel/pp_0/pp_18_0.xyz
          hostname                   : bell-fe05.rcac.purdue.edu
          calculation namespace      : product_14
          coordinate file            : /scratch/bell/zhao922/YARP/paper-example/potential_product/test/reaction_channel/pp_0/pp_18_0.xyz
          omp threads                :                    32
          number of atoms            :                    12
          number of electrons        :                    36
          charge                     :                     0
          spin                       :                   0.0
          first test random number   :      0.65802106258077

           ------------------------------------------------- 
          |                 G F N 2 - x T B                 |
          | Geometry, Frequencies, Noncovalent interactions |
          |            JCTC 2019 parametrisation            |
           ------------------------------------------------- 
             k(s)              :                1.8500
             k(p)              :                2.2300
             k(d)              :                2.2300
             k(f)              :                2.0000
             kEN (H0ij)        :               -2.0000
             D4 a1             :                0.5200
             D4 a2             :                5.0000
             D4 s6             :                1.0000
             D4 s8             :                2.7000
             D4 s9             :                5.0000
             alphaj            :                2.0000

  Z AO/shell   Hii/eV     exponent
  1     Wed Apr 25 08:07:45 CEST 2018   EN: 2.200 GM2: 0.406  GM3: 0.0800  RAES: 1.40
     1s    -10.707211    1.230000
  6     Wed Apr 25 08:07:45 CEST 2018   EN: 2.550 GM2: 0.538  GM3: 0.1500  RAES: 3.00
     2s    -13.970922    2.096432
     2p    -10.063292    1.800000
  8     Wed Apr 25 08:07:45 CEST 2018   EN: 3.440 GM2: 0.452  GM3:-0.0517  RAES: 1.80
     2s    -20.229985    2.439742
     2p    -15.503117    2.137023

           ------------------------------------------------- 
          |        Self-Consistent Charge Iterations        |
           ------------------------------------------------- 

          ...................................................
          :                      SETUP                      :
          :.................................................:
          :  # basis functions                  30          :
          :  # atomic orbitals                  30          :
          :  # shells                           18          :
          :  # electrons                        36          :
          :  max. iterations                   100          :
          :  Hamiltonian                  GFN2-xTB          :
          :  restarted?                      false          :
          :  GBSA solvation                  false          :
          :  PC potential                    false          :
          :  electronic temp.          300.0000000     K    :
          :  accuracy                    1.0000000          :
          :  -> integral cutoff          0.2500000E+02      :
          :  -> integral neglect         0.1000000E-07      :
          :  -> SCF convergence          0.1000000E-05 Eh   :
          :  -> wf. convergence          0.1000000E-03 e    :
          :  Broyden damping             0.4000000          :
          ...................................................

 iter      E             dE          RMSdq      gap      omega  full diag
   1    -21.6786400 -0.216786E+02  0.507E+00    5.01       0.0  T
   2    -21.7241775 -0.455375E-01  0.275E+00    4.20       1.0  T
   3    -21.7260430 -0.186548E-02  0.155E+00    4.58       1.0  T
   4    -21.7296434 -0.360039E-02  0.181E-01    4.30       1.0  T
   5    -21.7298242 -0.180829E-03  0.848E-02    4.36       1.0  T
   6    -21.7298320 -0.780846E-05  0.259E-02    4.37       1.1  T
   7    -21.7298327 -0.712865E-06  0.111E-02    4.36       2.6  T
   8    -21.7298329 -0.161562E-06  0.243E-03    4.36      11.9  T
   9    -21.7298329 -0.710439E-08  0.131E-03    4.36      22.0  T
  10    -21.7298329 -0.435284E-08  0.337E-04    4.36      85.7  T
  11    -21.7298329 -0.436060E-09  0.105E-04    4.36     275.3  T

   *** convergence criteria satisfied after 11 iterations ***

         #    Occupation            Energy/Eh            Energy/eV
      -------------------------------------------------------------
         1        2.0000           -0.7942834             -21.6136
       ...           ...                  ...                  ...
        12        2.0000           -0.5397411             -14.6871
        13        2.0000           -0.5174269             -14.0799
        14        2.0000           -0.4982913             -13.5592
        15        2.0000           -0.4822244             -13.1220
        16        2.0000           -0.4702988             -12.7975
        17        2.0000           -0.4587830             -12.4841
        18        2.0000           -0.4329530             -11.7813 (HOMO)
        19                         -0.2725730              -7.4171 (LUMO)
        20                         -0.0771138              -2.0984
        21                          0.0444239               1.2088
        22                          0.0870558               2.3689
        23                          0.0954721               2.5979
       ...                                ...                  ...
        30                          0.5160477              14.0424
      -------------------------------------------------------------
                  HL-Gap            0.1603800 Eh            4.3642 eV
             Fermi-level           -0.3527630 Eh           -9.5992 eV

 SCC (total)                   0 d,  0 h,  0 min,  0.006 sec
 SCC setup                      ...        0 min,  0.000 sec (  1.826%)
 Dispersion                     ...        0 min,  0.000 sec (  0.718%)
 integral evaluation            ...        0 min,  0.001 sec (  8.955%)
 zeroth order Hamiltonian       ...        0 min,  0.000 sec (  1.030%)
 iterations                     ...        0 min,  0.004 sec ( 63.827%)
 molecular gradient             ...        0 min,  0.001 sec ( 20.041%)
 printout                       ...        0 min,  0.000 sec (  1.186%)

         :::::::::::::::::::::::::::::::::::::::::::::::::::::
         ::                     SUMMARY                     ::
         :::::::::::::::::::::::::::::::::::::::::::::::::::::
         :: total energy             -21.570710680449 Eh    ::
         :: gradient norm              0.147832672204 Eh/a0 ::
         :: HOMO-LUMO gap              4.364162722936 eV    ::
         ::.................................................::
         :: SCC energy               -21.729832889463 Eh    ::
         :: -> isotropic ES            0.038492408267 Eh    ::
         :: -> anisotropic ES          0.003294486249 Eh    ::
         :: -> anisotropic XC         -0.008191992538 Eh    ::
         :: -> dispersion             -0.005575368867 Eh    ::
         :: repulsion energy           0.159119057628 Eh    ::
         :: add. restraining           0.000000000000 Eh    ::
         :::::::::::::::::::::::::::::::::::::::::::::::::::::

      ----------------------------------------------------------- 
     |                   =====================                   |
     |                        A N C O P T                        |
     |                   =====================                   |
     |               Approximate Normal Coordinate               |
     |                Rational Function Optimizer                |
      ----------------------------------------------------------- 

          ...................................................
          :                      SETUP                      :
          :.................................................:
          :   optimization level            normal          :
          :   max. optcycles                   200          :
          :   ANC micro-cycles                  20          :
          :   degrees of freedom                30          :
          :.................................................:
          :   RF solver                   davidson          :
          :   write xtbopt.log                true          :
          :   linear?                        false          :
          :   energy convergence         0.5000000E-05 Eh   :
          :   grad. convergence          0.1000000E-02 Eh/α :
          :   maximium RF displ.         1.0000000          :
          :   Hlow (freq-cutoff)         0.1000000E-01      :
          :   Hmax (freq-cutoff)         5.0000000          :
          :   S6 in model hess.         20.0000000          :
          ...................................................

generating ANC from model Hessian ...
Using Lindh-Hessian (1995)
 Shifting diagonal of input Hessian by   6.176373939642894E-003
 Lowest  eigenvalues of input Hessian
   -0.000000   -0.000000   -0.000000    0.000000    0.000000    0.000000
    0.010000    0.010276    0.015372    0.021659    0.038675    0.045343
    0.057049    0.060074    0.067662    0.072618    0.090025    0.103826
 Highest eigenvalues
    1.111497    1.199566    1.375724    1.616809    1.826877    2.312773
 

........................................................................
.............................. CYCLE    1 ..............................
........................................................................
   1    -21.7298329 -0.217298E+02  0.436E-05    4.36       0.0  T
   2    -21.7298329 -0.792966E-11  0.209E-05    4.36    1384.5  T
   3    -21.7298329 -0.189715E-11  0.131E-05    4.36    2207.0  T
     SCC iter.                  ...        0 min,  0.001 sec
     gradient                   ...        0 min,  0.001 sec
 * total energy  :   -21.5707107 Eh     change       -0.9749535E-09 Eh
   gradient norm :     0.1478334 Eh/α   predicted     0.0000000E+00 (-100.00%)
   displ. norm   :     0.2274569 α      lambda       -0.1997415E-01
   maximum displ.:     0.0937352 α      in ANC's #20, #7, #16, ...

........................................................................
.............................. CYCLE    2 ..............................
........................................................................
   1    -21.7563085 -0.217563E+02  0.398E-01    4.75       0.0  T
   2    -21.7567735 -0.465059E-03  0.241E-01    4.67       1.0  T
   3    -21.7567897 -0.161642E-04  0.110E-01    4.66       1.0  T
   4    -21.7567927 -0.297580E-05  0.142E-02    4.66       2.0  T
   5    -21.7567932 -0.490837E-06  0.766E-03    4.66       3.8  T
   6    -21.7567933 -0.110683E-06  0.442E-03    4.66       6.5  T
   7    -21.7567933 -0.575365E-07  0.154E-03    4.66      18.8  T
     SCC iter.                  ...        0 min,  0.002 sec
     gradient                   ...        0 min,  0.001 sec
 * total energy  :   -21.5842366 Eh     change       -0.1352591E-01 Eh
   gradient norm :     0.0539579 Eh/α   predicted    -0.1050377E-01 ( -22.34%)
   displ. norm   :     0.1987033 α      lambda       -0.5508776E-02
   maximum displ.:     0.0878203 α      in ANC's #16, #11, #6, ...

........................................................................
.............................. CYCLE    3 ..............................
........................................................................
   1    -21.7655823 -0.217656E+02  0.354E-01    4.88       0.0  T
   2    -21.7657454 -0.163038E-03  0.221E-01    4.84       1.0  T
   3    -21.7657564 -0.110321E-04  0.670E-02    4.83       1.0  T
   4    -21.7657589 -0.251907E-05  0.120E-02    4.83       2.4  T
   5    -21.7657593 -0.398156E-06  0.713E-03    4.83       4.0  T
   6    -21.7657595 -0.121330E-06  0.409E-03    4.83       7.1  T
   7    -21.7657595 -0.587984E-07  0.130E-03    4.83      22.2  T
     SCC iter.                  ...        0 min,  0.090 sec
     gradient                   ...        0 min,  0.003 sec
 * total energy  :   -21.5874970 Eh     change       -0.3260451E-02 Eh
   gradient norm :     0.0119540 Eh/α   predicted    -0.2863140E-02 ( -12.19%)
   displ. norm   :     0.1777711 α      lambda       -0.1190005E-02
   maximum displ.:     0.0788647 α      in ANC's #2, #1, #8, ...

........................................................................
.............................. CYCLE    4 ..............................
........................................................................
   1    -21.7648798 -0.217649E+02  0.285E-01    4.86       0.0  T
   2    -21.7649026 -0.227639E-04  0.180E-01    4.87       1.0  T
   3    -21.7649074 -0.486800E-05  0.274E-02    4.86       1.1  T
   4    -21.7649112 -0.373076E-05  0.961E-03    4.87       3.0  T
   5    -21.7649114 -0.207239E-06  0.504E-03    4.86       5.7  T
   6    -21.7649114 -0.297586E-07  0.140E-03    4.86      20.6  T
   7    -21.7649114 -0.493992E-08  0.631E-04    4.86      45.8  T
     SCC iter.                  ...        0 min,  0.002 sec
     gradient                   ...        0 min,  0.001 sec
 * total energy  :   -21.5877152 Eh     change       -0.2181795E-03 Eh
   gradient norm :     0.0160730 Eh/α   predicted    -0.6138065E-03 ( 181.33%)
   displ. norm   :     0.1042874 α      lambda       -0.9078878E-03
   maximum displ.:     0.0572781 α      in ANC's #8, #1, #3, ...

........................................................................
.............................. CYCLE    5 ..............................
........................................................................
   1    -21.7648758 -0.217649E+02  0.167E-01    4.90       0.0  T
   2    -21.7648802 -0.448314E-05  0.105E-01    4.90       1.0  T
   3    -21.7648823 -0.201961E-05  0.755E-03    4.90       3.8  T
   4    -21.7648823 -0.479454E-07  0.400E-03    4.90       7.2  T
   5    -21.7648823 -0.862322E-08  0.147E-03    4.90      19.6  T
   6    -21.7648823 -0.700351E-08  0.423E-04    4.90      68.2  T
     SCC iter.                  ...        0 min,  0.002 sec
     gradient                   ...        0 min,  0.001 sec
 * total energy  :   -21.5881979 Eh     change       -0.4826863E-03 Eh
   gradient norm :     0.0107926 Eh/α   predicted    -0.4588814E-03 (  -4.93%)
   displ. norm   :     0.0864533 α      lambda       -0.2227175E-03
   maximum displ.:     0.0607498 α      in ANC's #1, #2, #3, ...

........................................................................
.............................. CYCLE    6 ..............................
........................................................................
   1    -21.7652149 -0.217652E+02  0.950E-02    4.89       0.0  T
   2    -21.7652164 -0.149950E-05  0.592E-02    4.89       1.0  T
   3    -21.7652169 -0.494110E-06  0.553E-03    4.89       5.2  T
   4    -21.7652170 -0.107569E-06  0.280E-03    4.89      10.3  T
   5    -21.7652170 -0.154875E-07  0.136E-03    4.89      21.2  T
     SCC iter.                  ...        0 min,  0.001 sec
     gradient                   ...        0 min,  0.001 sec
 * total energy  :   -21.5883840 Eh     change       -0.1860906E-03 Eh
   gradient norm :     0.0065376 Eh/α   predicted    -0.1121897E-03 ( -39.71%)
   displ. norm   :     0.2972225 α      lambda       -0.4857935E-03
   maximum displ.:     0.2100385 α      in ANC's #1, #2, #3, ...

........................................................................
.............................. CYCLE    7 ..............................
........................................................................
   1    -21.7648608 -0.217649E+02  0.341E-01    4.87       0.0  T
   2    -21.7648762 -0.153848E-04  0.213E-01    4.88       1.0  T
   3    -21.7648792 -0.308993E-05  0.253E-02    4.87       1.1  T
   4    -21.7648836 -0.437881E-05  0.958E-03    4.88       3.0  T
   5    -21.7648837 -0.772249E-07  0.412E-03    4.88       7.0  T
   6    -21.7648837 -0.868979E-08  0.681E-04    4.88      42.4  T
   7    -21.7648837 -0.814168E-09  0.305E-04    4.88      94.8  T
     SCC iter.                  ...        0 min,  0.092 sec
     gradient                   ...        0 min,  0.001 sec
 * total energy  :   -21.5887226 Eh     change       -0.3385864E-03 Eh
   gradient norm :     0.0069300 Eh/α   predicted    -0.2643570E-03 ( -21.92%)
   displ. norm   :     0.2692945 α      lambda       -0.2696774E-03
   maximum displ.:     0.2107559 α      in ANC's #1, #2, #3, ...

........................................................................
.............................. CYCLE    8 ..............................
........................................................................
   1    -21.7646861 -0.217647E+02  0.297E-01    4.87       0.0  T
   2    -21.7646977 -0.116564E-04  0.185E-01    4.88       1.0  T
   3    -21.7647001 -0.236667E-05  0.213E-02    4.87       1.4  T
   4    -21.7647031 -0.297478E-05  0.849E-03    4.88       3.4  T
   5    -21.7647031 -0.815277E-07  0.394E-03    4.88       7.3  T
   6    -21.7647032 -0.155760E-07  0.846E-04    4.88      34.1  T
   7    -21.7647032 -0.210493E-08  0.347E-04    4.88      83.1  T
     SCC iter.                  ...        0 min,  0.002 sec
     gradient                   ...        0 min,  0.001 sec
 * total energy  :   -21.5889373 Eh     change       -0.2146899E-03 Eh
   gradient norm :     0.0101592 Eh/α   predicted    -0.1446168E-03 ( -32.64%)
   displ. norm   :     0.2578794 α      lambda       -0.3186934E-03
   maximum displ.:     0.2133044 α      in ANC's #1, #2, #3, ...

........................................................................
.............................. CYCLE    9 ..............................
........................................................................
   1    -21.7652832 -0.217653E+02  0.280E-01    4.88       0.0  T
   2    -21.7652902 -0.702235E-05  0.175E-01    4.88       1.0  T
   3    -21.7652942 -0.398521E-05  0.134E-02    4.88       2.1  T
   4    -21.7652948 -0.581452E-06  0.803E-03    4.89       3.6  T
   5    -21.7652948 -0.945195E-07  0.248E-03    4.88      11.6  T
   6    -21.7652949 -0.149586E-07  0.112E-03    4.88      25.8  T
     SCC iter.                  ...        0 min,  0.001 sec
     gradient                   ...        0 min,  0.001 sec
 * total energy  :   -21.5892145 Eh     change       -0.2772254E-03 Eh
   gradient norm :     0.0100232 Eh/α   predicted    -0.1699393E-03 ( -38.70%)
   displ. norm   :     0.3673861 α      lambda       -0.4929174E-03
   maximum displ.:     0.3133017 α      in ANC's #1, #2, #3, ...

........................................................................
.............................. CYCLE   10 ..............................
........................................................................
   1    -21.7651769 -0.217652E+02  0.397E-01    4.89       0.0  T
   2    -21.7651905 -0.135852E-04  0.247E-01    4.89       1.0  T
   3    -21.7651999 -0.945133E-05  0.173E-02    4.90       1.7  T
   4    -21.7652002 -0.273076E-06  0.869E-03    4.90       3.3  T
   5    -21.7652003 -0.130125E-06  0.279E-03    4.90      10.3  T
   6    -21.7652004 -0.229481E-07  0.174E-03    4.90      16.6  T
     SCC iter.                  ...        0 min,  0.001 sec
     gradient                   ...        0 min,  0.001 sec
 * total energy  :   -21.5896272 Eh     change       -0.4127209E-03 Eh
   gradient norm :     0.0086418 Eh/α   predicted    -0.2797200E-03 ( -32.23%)
   displ. norm   :     0.4439259 α      lambda       -0.5324383E-03
   maximum displ.:     0.3880085 α      in ANC's #1, #2, #3, ...

........................................................................
.............................. CYCLE   11 ..............................
........................................................................
   1    -21.7644202 -0.217644E+02  0.479E-01    4.89       0.0  T
   2    -21.7644408 -0.206230E-04  0.298E-01    4.90       1.0  T
   3    -21.7644546 -0.137967E-04  0.216E-02    4.90       1.3  T
   4    -21.7644550 -0.466118E-06  0.121E-02    4.90       2.4  T
   5    -21.7644553 -0.252593E-06  0.467E-03    4.90       6.2  T
   6    -21.7644554 -0.824183E-07  0.251E-03    4.90      11.5  T
   7    -21.7644554 -0.254040E-07  0.871E-04    4.90      33.1  T
     SCC iter.                  ...        0 min,  0.002 sec
     gradient                   ...        0 min,  0.001 sec
 * total energy  :   -21.5900128 Eh     change       -0.3855432E-03 Eh
   gradient norm :     0.0100284 Eh/α   predicted    -0.3186882E-03 ( -17.34%)
   displ. norm   :     0.2975292 α      lambda       -0.3486349E-03
   maximum displ.:     0.2602243 α      in ANC's #1, #2, #3, ...

........................................................................
.............................. CYCLE   12 ..............................
........................................................................
   1    -21.7661831 -0.217662E+02  0.319E-01    4.93       0.0  T
   2    -21.7661944 -0.112727E-04  0.197E-01    4.93       1.0  T
   3    -21.7661985 -0.416253E-05  0.225E-02    4.94       1.3  T
   4    -21.7662012 -0.260298E-05  0.103E-02    4.94       2.8  T
   5    -21.7662013 -0.163615E-06  0.416E-03    4.94       6.9  T
   6    -21.7662014 -0.495319E-07  0.172E-03    4.94      16.8  T
   7    -21.7662014 -0.109259E-07  0.720E-04    4.94      40.1  T
     SCC iter.                  ...        0 min,  0.092 sec
     gradient                   ...        0 min,  0.001 sec
 * total energy  :   -21.5902514 Eh     change       -0.2386299E-03 Eh
   gradient norm :     0.0079175 Eh/α   predicted    -0.1897517E-03 ( -20.48%)
   displ. norm   :     0.3769787 α      lambda       -0.2822581E-03
   maximum displ.:     0.3085064 α      in ANC's #1, #2, #3, ...

........................................................................
.............................. CYCLE   13 ..............................
........................................................................
   1    -21.7630390 -0.217630E+02  0.408E-01    4.90       0.0  T
   2    -21.7630547 -0.156927E-04  0.253E-01    4.91       1.0  T
   3    -21.7630607 -0.601537E-05  0.223E-02    4.91       1.3  T
   4    -21.7630631 -0.238947E-05  0.116E-02    4.91       2.5  T
   5    -21.7630633 -0.205960E-06  0.503E-03    4.91       5.7  T
   6    -21.7630634 -0.492998E-07  0.183E-03    4.91      15.7  T
   7    -21.7630634 -0.114525E-07  0.785E-04    4.91      36.8  T
     SCC iter.                  ...        0 min,  0.002 sec
     gradient                   ...        0 min,  0.001 sec
 * total energy  :   -21.5903849 Eh     change       -0.1334717E-03 Eh
   gradient norm :     0.0116121 Eh/α   predicted    -0.1611845E-03 (  20.76%)
   displ. norm   :     0.1706103 α      lambda       -0.4933140E-03
   maximum displ.:     0.1196926 α      in ANC's #1, #3, #17, ...

........................................................................
.............................. CYCLE   14 ..............................
........................................................................
   1    -21.7691684 -0.217692E+02  0.200E-01    4.97       0.0  T
   2    -21.7691856 -0.172178E-04  0.122E-01    4.96       1.0  T
   3    -21.7691843  0.134680E-05  0.341E-02    4.97       1.0  T
   4    -21.7691889 -0.465973E-05  0.621E-03    4.97       4.6  T
   5    -21.7691890 -0.745036E-07  0.364E-03    4.97       7.9  T
   6    -21.7691890 -0.153723E-07  0.103E-03    4.97      28.1  T
   7    -21.7691890 -0.293559E-08  0.461E-04    4.97      62.6  T
     SCC iter.                  ...        0 min,  0.002 sec
     gradient                   ...        0 min,  0.091 sec
 * total energy  :   -21.5905829 Eh     change       -0.1980663E-03 Eh
   gradient norm :     0.0059046 Eh/α   predicted    -0.2538368E-03 (  28.16%)
   displ. norm   :     0.2086777 α      lambda       -0.1404688E-03
   maximum displ.:     0.1767945 α      in ANC's #1, #2, #3, ...

........................................................................
.............................. CYCLE   15 ..............................
........................................................................
   1    -21.7671576 -0.217672E+02  0.249E-01    4.93       0.0  T
   2    -21.7671634 -0.579494E-05  0.155E-01    4.94       1.0  T
   3    -21.7671659 -0.245899E-05  0.144E-02    4.94       2.0  T
   4    -21.7671669 -0.106441E-05  0.732E-03    4.94       3.9  T
   5    -21.7671670 -0.697790E-07  0.234E-03    4.94      12.4  T
   6    -21.7671670 -0.116612E-07  0.102E-03    4.94      28.2  T
     SCC iter.                  ...        0 min,  0.002 sec
     gradient                   ...        0 min,  0.001 sec
 * total energy  :   -21.5906559 Eh     change       -0.7295345E-04 Eh
   gradient norm :     0.0073520 Eh/α   predicted    -0.7329424E-04 (   0.47%)
   displ. norm   :     0.0629258 α      lambda       -0.7363228E-04
   maximum displ.:     0.0391399 α      in ANC's #2, #1, #3, ...

........................................................................
.............................. CYCLE   16 ..............................
........................................................................
   1    -21.7672079 -0.217672E+02  0.776E-02    4.96       0.0  T
   2    -21.7672091 -0.124938E-05  0.478E-02    4.96       1.0  T
   3    -21.7672093 -0.211290E-06  0.444E-03    4.96       6.5  T
   4    -21.7672094 -0.291651E-07  0.166E-03    4.96      17.4  T
   5    -21.7672094 -0.229832E-08  0.836E-04    4.96      34.5  T
     SCC iter.                  ...        0 min,  0.002 sec
     gradient                   ...        0 min,  0.091 sec
 * total energy  :   -21.5906919 Eh     change       -0.3603108E-04 Eh
   gradient norm :     0.0040626 Eh/α   predicted    -0.3696141E-04 (   2.58%)
   displ. norm   :     0.0558207 α      lambda       -0.6474750E-04
   maximum displ.:     0.0293108 α      in ANC's #4, #3, #1, ...

........................................................................
.............................. CYCLE   17 ..............................
........................................................................
   1    -21.7680841 -0.217681E+02  0.872E-02    4.96       0.0  T
   2    -21.7680857 -0.154770E-05  0.536E-02    4.96       1.0  T
   3    -21.7680860 -0.347471E-06  0.606E-03    4.96       4.8  T
   4    -21.7680861 -0.868454E-07  0.233E-03    4.96      12.4  T
   5    -21.7680861 -0.984274E-08  0.136E-03    4.96      21.3  T
     SCC iter.                  ...        0 min,  0.003 sec
     gradient                   ...        0 min,  0.002 sec
 * total energy  :   -21.5907336 Eh     change       -0.4169612E-04 Eh
   gradient norm :     0.0035146 Eh/α   predicted    -0.3247697E-04 ( -22.11%)
   displ. norm   :     0.1518600 α      lambda       -0.6715940E-04
   maximum displ.:     0.0865969 α      in ANC's #1, #3, #4, ...

........................................................................
.............................. CYCLE   18 ..............................
........................................................................
   1    -21.7681870 -0.217682E+02  0.209E-01    4.97       0.0  T
   2    -21.7681907 -0.373822E-05  0.130E-01    4.97       1.0  T
   3    -21.7681925 -0.179093E-05  0.985E-03    4.97       2.9  T
   4    -21.7681929 -0.400048E-06  0.539E-03    4.97       5.4  T
   5    -21.7681930 -0.331917E-07  0.200E-03    4.97      14.4  T
   6    -21.7681930 -0.636818E-08  0.605E-04    4.97      47.7  T
   7    -21.7681930 -0.915705E-09  0.304E-04    4.97      95.0  T
     SCC iter.                  ...        0 min,  0.094 sec
     gradient                   ...        0 min,  0.002 sec
 * total energy  :   -21.5907770 Eh     change       -0.4341128E-04 Eh
   gradient norm :     0.0034731 Eh/α   predicted    -0.3435280E-04 ( -20.87%)
   displ. norm   :     0.1112481 α      lambda       -0.4295882E-04
   maximum displ.:     0.0621182 α      in ANC's #3, #1, #2, ...

........................................................................
.............................. CYCLE   19 ..............................
........................................................................
   1    -21.7679734 -0.217680E+02  0.153E-01    4.97       0.0  T
   2    -21.7679749 -0.148383E-05  0.942E-02    4.97       1.0  T
   3    -21.7679757 -0.867639E-06  0.626E-03    4.97       4.6  T
   4    -21.7679759 -0.143235E-06  0.361E-03    4.97       8.0  T
   5    -21.7679759 -0.115964E-07  0.598E-04    4.97      48.3  T
   6    -21.7679759 -0.422315E-09  0.258E-04    4.97     112.0  T
     SCC iter.                  ...        0 min,  0.003 sec
     gradient                   ...        0 min,  0.091 sec
 * total energy  :   -21.5908021 Eh     change       -0.2506113E-04 Eh
   gradient norm :     0.0037084 Eh/α   predicted    -0.2174657E-04 ( -13.23%)
   displ. norm   :     0.0976740 α      lambda       -0.3941730E-04
   maximum displ.:     0.0490971 α      in ANC's #3, #2, #4, ...

........................................................................
.............................. CYCLE   20 ..............................
........................................................................
   1    -21.7687998 -0.217688E+02  0.137E-01    5.00       0.0  T
   2    -21.7688035 -0.374526E-05  0.844E-02    4.99       1.0  T
   3    -21.7688043 -0.745463E-06  0.775E-03    4.99       3.7  T
   4    -21.7688044 -0.113737E-06  0.334E-03    4.99       8.6  T
   5    -21.7688044 -0.182556E-07  0.190E-03    4.99      15.2  T
   6    -21.7688044 -0.459362E-08  0.402E-04    4.99      71.9  T
   7    -21.7688044 -0.411372E-09  0.191E-04    4.99     151.1  T
     SCC iter.                  ...        0 min,  0.003 sec
     gradient                   ...        0 min,  0.002 sec
 * total energy  :   -21.5908226 Eh     change       -0.2049892E-04 Eh
   gradient norm :     0.0047562 Eh/α   predicted    -0.1989579E-04 (  -2.94%)
   displ. norm   :     0.1350259 α      lambda       -0.3126089E-04
   maximum displ.:     0.0666695 α      in ANC's #1, #3, #2, ...
 * RMSD in coord.:     1.0151569 α      energy gain  -0.2011191E-01 Eh

generating ANC from model Hessian ...
Using Lindh-Hessian (1995)
 Shifting diagonal of input Hessian by   6.250779297619936E-003
 Lowest  eigenvalues of input Hessian
   -0.000000   -0.000000   -0.000000    0.000000    0.000000    0.000000
    0.010000    0.010780    0.014059    0.021586    0.035424    0.045878
    0.049109    0.055288    0.060334    0.063965    0.080934    0.090152
 Highest eigenvalues
    1.180365    1.210069    1.272512    1.438841    1.728126    2.425870
 

........................................................................
.............................. CYCLE   21 ..............................
........................................................................
   1    -21.7675855 -0.217676E+02  0.179E-01    4.98       0.0  T
   2    -21.7675880 -0.251116E-05  0.111E-01    4.98       1.0  T
   3    -21.7675896 -0.158750E-05  0.723E-03    4.98       4.0  T
   4    -21.7675897 -0.687377E-07  0.430E-03    4.98       6.7  T
   5    -21.7675897 -0.282105E-07  0.146E-03    4.98      19.8  T
   6    -21.7675897 -0.428048E-08  0.547E-04    4.98      52.7  T
   7    -21.7675897 -0.849258E-09  0.247E-04    4.98     116.9  T
     SCC iter.                  ...        0 min,  0.004 sec
     gradient                   ...        0 min,  0.002 sec
 * total energy  :   -21.5908365 Eh     change       -0.1390062E-04 Eh
   gradient norm :     0.0035723 Eh/α   predicted     0.0000000E+00 (-100.00%)
   displ. norm   :     0.0239358 α      lambda       -0.2875595E-04
   maximum displ.:     0.0162795 α      in ANC's #1, #3, #8, ...

........................................................................
.............................. CYCLE   22 ..............................
........................................................................
   1    -21.7683889 -0.217684E+02  0.408E-02    4.99       0.0  T
   2    -21.7683894 -0.508085E-06  0.258E-02    4.99       1.1  T
   3    -21.7683894  0.162849E-07  0.576E-03    4.99       5.0  T
   4    -21.7683896 -0.196359E-06  0.134E-03    4.99      21.6  T
   5    -21.7683896 -0.187213E-08  0.756E-04    4.99      38.2  T
   6    -21.7683896 -0.657444E-09  0.143E-04    4.99     201.8  T
     SCC iter.                  ...        0 min,  0.094 sec
     gradient                   ...        0 min,  0.002 sec
 * total energy  :   -21.5908505 Eh     change       -0.1405145E-04 Eh
   gradient norm :     0.0024562 Eh/α   predicted    -0.1438503E-04 (   2.37%)
   displ. norm   :     0.0692935 α      lambda       -0.4824504E-04
   maximum displ.:     0.0625692 α      in ANC's #1, #3, #4, ...

........................................................................
.............................. CYCLE   23 ..............................
........................................................................
   1    -21.7698251 -0.217698E+02  0.660E-02    5.00       0.0  T
   2    -21.7698269 -0.180280E-05  0.405E-02    5.00       1.0  T
   3    -21.7698266  0.225645E-06  0.106E-02    5.00       2.7  T
   4    -21.7698271 -0.509838E-06  0.191E-03    5.00      15.1  T
   5    -21.7698272 -0.103520E-07  0.109E-03    5.00      26.5  T
   6    -21.7698272 -0.256220E-08  0.376E-04    5.00      76.8  T
   7    -21.7698272 -0.514429E-09  0.186E-04    5.00     155.0  T
     SCC iter.                  ...        0 min,  0.004 sec
     gradient                   ...        0 min,  0.091 sec
 * total energy  :   -21.5908579 Eh     change       -0.7323640E-05 Eh
   gradient norm :     0.0034109 Eh/α   predicted    -0.2423742E-04 ( 230.95%)
   displ. norm   :     0.0127896 α      lambda       -0.2552214E-04
   maximum displ.:     0.0070291 α      in ANC's #1, #6, #5, ...

........................................................................
.............................. CYCLE   24 ..............................
........................................................................
   1    -21.7690121 -0.217690E+02  0.228E-02    4.99       0.0  T
   2    -21.7690122 -0.126043E-06  0.143E-02    4.99       2.0  T
   3    -21.7690122 -0.266977E-07  0.255E-03    4.99      11.3  T
   4    -21.7690123 -0.357176E-07  0.756E-04    4.99      38.2  T
   5    -21.7690123 -0.408246E-09  0.334E-04    4.99      86.3  T
     SCC iter.                  ...        0 min,  0.003 sec
     gradient                   ...        0 min,  0.002 sec
 * total energy  :   -21.5908748 Eh     change       -0.1693980E-04 Eh
   gradient norm :     0.0011004 Eh/α   predicted    -0.1276445E-04 ( -24.65%)
   displ. norm   :     0.0610501 α      lambda       -0.1238564E-04
   maximum displ.:     0.0564248 α      in ANC's #1, #4, #3, ...

........................................................................
.............................. CYCLE   25 ..............................
........................................................................
   1    -21.7682242 -0.217682E+02  0.820E-02    4.99       0.0  T
   2    -21.7682250 -0.741161E-06  0.515E-02    4.99       1.0  T
   3    -21.7682255 -0.517020E-06  0.339E-03    4.99       8.5  T
   4    -21.7682255 -0.655749E-08  0.182E-03    4.99      15.9  T
   5    -21.7682255 -0.251721E-08  0.439E-04    4.99      65.7  T
   6    -21.7682255 -0.816851E-09  0.195E-04    4.99     147.8  T
     SCC iter.                  ...        0 min,  0.003 sec
     gradient                   ...        0 min,  0.002 sec
 * total energy  :   -21.5908875 Eh     change       -0.1269916E-04 Eh
   gradient norm :     0.0014124 Eh/α   predicted    -0.6202241E-05 ( -51.16%)
   displ. norm   :     0.0720448 α      lambda       -0.9864574E-05
   maximum displ.:     0.0672738 α      in ANC's #1, #4, #3, ...

........................................................................
.............................. CYCLE   26 ..............................
........................................................................
   1    -21.7680621 -0.217681E+02  0.943E-02    4.99       0.0  T
   2    -21.7680629 -0.816021E-06  0.589E-02    4.99       1.0  T
   3    -21.7680635 -0.581923E-06  0.372E-03    4.99       7.8  T
   4    -21.7680635 -0.104491E-07  0.217E-03    4.99      13.3  T
   5    -21.7680635 -0.599449E-08  0.526E-04    4.99      54.8  T
   6    -21.7680635 -0.103057E-08  0.230E-04    4.99     125.8  T
     SCC iter.                  ...        0 min,  0.092 sec
     gradient                   ...        0 min,  0.003 sec
 * total energy  :   -21.5909005 Eh     change       -0.1300418E-04 Eh
   gradient norm :     0.0016295 Eh/α   predicted    -0.4943714E-05 ( -61.98%)
   displ. norm   :     0.0657331 α      lambda       -0.1059521E-04
   maximum displ.:     0.0598973 α      in ANC's #1, #4, #2, ...

........................................................................
.............................. CYCLE   27 ..............................
........................................................................
   1    -21.7683346 -0.217683E+02  0.875E-02    4.99       0.0  T
   2    -21.7683352 -0.641899E-06  0.544E-02    4.99       1.0  T
   3    -21.7683357 -0.434774E-06  0.318E-03    4.99       9.1  T
   4    -21.7683357 -0.608214E-08  0.179E-03    4.99      16.1  T
   5    -21.7683357 -0.244525E-08  0.497E-04    4.99      58.1  T
   6    -21.7683357 -0.101842E-08  0.177E-04    4.99     163.5  T
     SCC iter.                  ...        0 min,  0.003 sec
     gradient                   ...        0 min,  0.002 sec
 * total energy  :   -21.5909144 Eh     change       -0.1390805E-04 Eh
   gradient norm :     0.0009683 Eh/α   predicted    -0.5308084E-05 ( -61.83%)
   displ. norm   :     0.0976308 α      lambda       -0.1310639E-04
   maximum displ.:     0.0885556 α      in ANC's #1, #4, #2, ...

........................................................................
.............................. CYCLE   28 ..............................
........................................................................
   1    -21.7685439 -0.217685E+02  0.126E-01    5.00       0.0  T
   2    -21.7685451 -0.115338E-05  0.780E-02    5.00       1.0  T
   3    -21.7685459 -0.821312E-06  0.435E-03    5.00       6.6  T
   4    -21.7685459 -0.948805E-08  0.204E-03    5.00      14.1  T
   5    -21.7685459 -0.387175E-08  0.371E-04    5.00      77.8  T
   6    -21.7685459 -0.335728E-09  0.202E-04    5.00     142.9  T
     SCC iter.                  ...        0 min,  0.003 sec
     gradient                   ...        0 min,  0.002 sec
 * total energy  :   -21.5909313 Eh     change       -0.1688524E-04 Eh
   gradient norm :     0.0008917 Eh/α   predicted    -0.6579555E-05 ( -61.03%)
   displ. norm   :     0.1610388 α      lambda       -0.1754960E-04
   maximum displ.:     0.1444409 α      in ANC's #1, #2, #4, ...

........................................................................
.............................. CYCLE   29 ..............................
........................................................................
   1    -21.7683843 -0.217684E+02  0.202E-01    5.00       0.0  T
   2    -21.7683872 -0.290123E-05  0.125E-01    5.00       1.0  T
   3    -21.7683891 -0.193075E-05  0.709E-03    5.00       4.1  T
   4    -21.7683892 -0.435036E-07  0.417E-03    5.00       6.9  T
   5    -21.7683892 -0.161599E-07  0.122E-03    5.00      23.8  T
   6    -21.7683892 -0.448729E-08  0.327E-04    5.00      88.3  T
   7    -21.7683892 -0.262535E-09  0.157E-04    5.00     184.4  T
     SCC iter.                  ...        0 min,  0.093 sec
     gradient                   ...        0 min,  0.002 sec
 * total energy  :   -21.5909508 Eh     change       -0.1952908E-04 Eh
   gradient norm :     0.0021960 Eh/α   predicted    -0.8875874E-05 ( -54.55%)
   displ. norm   :     0.1142589 α      lambda       -0.1646003E-04
   maximum displ.:     0.1008089 α      in ANC's #1, #2, #8, ...

........................................................................
.............................. CYCLE   30 ..............................
........................................................................
   1    -21.7683066 -0.217683E+02  0.139E-01    5.00       0.0  T
   2    -21.7683078 -0.122814E-05  0.862E-02    5.00       1.0  T
   3    -21.7683087 -0.869955E-06  0.453E-03    5.00       6.4  T
   4    -21.7683087 -0.838742E-08  0.187E-03    5.00      15.4  T
   5    -21.7683087 -0.306422E-08  0.342E-04    5.00      84.3  T
   6    -21.7683087 -0.358842E-09  0.181E-04    5.00     159.6  T
     SCC iter.                  ...        0 min,  0.003 sec
     gradient                   ...        0 min,  0.002 sec
 * total energy  :   -21.5909633 Eh     change       -0.1244063E-04 Eh
   gradient norm :     0.0025607 Eh/α   predicted    -0.8338784E-05 ( -32.97%)
   displ. norm   :     0.1304556 α      lambda       -0.2304437E-04
   maximum displ.:     0.1107873 α      in ANC's #1, #2, #8, ...

........................................................................
.............................. CYCLE   31 ..............................
........................................................................
   1    -21.7683908 -0.217684E+02  0.154E-01    5.00       0.0  T
   2    -21.7683923 -0.146739E-05  0.950E-02    5.00       1.0  T
   3    -21.7683932 -0.928337E-06  0.530E-03    5.01       5.5  T
   4    -21.7683932 -0.533880E-07  0.325E-03    5.00       8.9  T
   5    -21.7683933 -0.902440E-08  0.720E-04    5.01      40.1  T
   6    -21.7683933 -0.111375E-08  0.176E-04    5.00     164.4  T
     SCC iter.                  ...        0 min,  0.003 sec
     gradient                   ...        0 min,  0.002 sec
 * total energy  :   -21.5909801 Eh     change       -0.1686917E-04 Eh
   gradient norm :     0.0019885 Eh/α   predicted    -0.1171719E-04 ( -30.54%)
   displ. norm   :     0.1713195 α      lambda       -0.1840002E-04
   maximum displ.:     0.1375907 α      in ANC's #1, #2, #8, ...

........................................................................
.............................. CYCLE   32 ..............................
........................................................................
   1    -21.7685309 -0.217685E+02  0.198E-01    5.01       0.0  T
   2    -21.7685336 -0.264321E-05  0.123E-01    5.01       1.0  T
   3    -21.7685351 -0.153462E-05  0.743E-03    5.01       3.9  T
   4    -21.7685352 -0.147749E-06  0.445E-03    5.01       6.5  T
   5    -21.7685353 -0.150688E-07  0.125E-03    5.01      23.1  T
   6    -21.7685353 -0.253686E-08  0.216E-04    5.01     133.5  T
   7    -21.7685353 -0.715232E-10  0.108E-04    5.01     267.6  T
     SCC iter.                  ...        0 min,  0.093 sec
     gradient                   ...        0 min,  0.001 sec
 * total energy  :   -21.5909986 Eh     change       -0.1849396E-04 Eh
   gradient norm :     0.0011820 Eh/α   predicted    -0.9321418E-05 ( -49.60%)
   displ. norm   :     0.2034148 α      lambda       -0.1096509E-04
   maximum displ.:     0.1651501 α      in ANC's #1, #2, #8, ...

........................................................................
.............................. CYCLE   33 ..............................
........................................................................
   1    -21.7674717 -0.217675E+02  0.243E-01    5.00       0.0  T
   2    -21.7674766 -0.490806E-05  0.150E-01    5.00       1.0  T
   3    -21.7674789 -0.230065E-05  0.116E-02    5.00       2.5  T
   4    -21.7674794 -0.506024E-06  0.592E-03    5.00       4.9  T
   5    -21.7674795 -0.267379E-07  0.249E-03    5.00      11.6  T
   6    -21.7674795 -0.641568E-08  0.298E-04    5.00      96.7  T
   7    -21.7674795 -0.158426E-09  0.147E-04    5.00     196.7  T
     SCC iter.                  ...        0 min,  0.002 sec
     gradient                   ...        0 min,  0.002 sec
 * total energy  :   -21.5909923 Eh     change        0.6380439E-05 Eh
   gradient norm :     0.0041899 Eh/α   predicted    -0.5582963E-05 (-187.50%)
   displ. norm   :     0.0459222 α      lambda       -0.4300921E-04
   maximum displ.:     0.0339313 α      in ANC's #2, #4, #3, ...

........................................................................
.............................. CYCLE   34 ..............................
........................................................................
   1    -21.7686266 -0.217686E+02  0.439E-02    5.02       0.0  T
   2    -21.7686284 -0.171405E-05  0.261E-02    5.02       1.1  T
   3    -21.7686283  0.338262E-07  0.989E-03    5.02       2.9  T
   4    -21.7686285 -0.230402E-06  0.160E-03    5.02      18.1  T
   5    -21.7686286 -0.917774E-08  0.805E-04    5.02      35.9  T
     SCC iter.                  ...        0 min,  0.001 sec
     gradient                   ...        0 min,  0.001 sec
 * total energy  :   -21.5910166 Eh     change       -0.2436295E-04 Eh
   gradient norm :     0.0010347 Eh/α   predicted    -0.2155136E-04 ( -11.54%)
   displ. norm   :     0.0748763 α      lambda       -0.3679853E-05
   maximum displ.:     0.0520595 α      in ANC's #1, #2, #8, ...

........................................................................
.............................. CYCLE   35 ..............................
........................................................................
   1    -21.7687143 -0.217687E+02  0.830E-02    5.03       0.0  T
   2    -21.7687148 -0.506019E-06  0.513E-02    5.03       1.0  T
   3    -21.7687151 -0.278122E-06  0.339E-03    5.03       8.5  T
   4    -21.7687151 -0.297763E-07  0.203E-03    5.03      14.2  T
   5    -21.7687151 -0.301602E-08  0.698E-04    5.03      41.4  T
   6    -21.7687152 -0.665214E-09  0.812E-05    5.03     355.6  T
     SCC iter.                  ...        0 min,  0.001 sec
     gradient                   ...        0 min,  0.002 sec
 * total energy  :   -21.5910207 Eh     change       -0.4048005E-05 Eh
   gradient norm :     0.0006925 Eh/α   predicted    -0.1843456E-05 ( -54.46%)
   displ. norm   :     0.1206555 α      lambda       -0.3486414E-05
   maximum displ.:     0.0890827 α      in ANC's #1, #2, #8, ...

   *** GEOMETRY OPTIMIZATION CONVERGED AFTER 35 ITERATIONS ***

------------------------------------------------------------------------
 total energy gain   :        -0.0203100 Eh      -12.7447 kcal/mol
 total RMSD          :         1.1927715 a0        0.6312 Å
 total power (kW/mol):        -1.5235388 (step)  -24.3939 (real)
------------------------------------------------------------------------

 ANCopt (total)                0 d,  0 h,  0 min,  2.186 sec
 optimizer setup                ...        0 min,  0.000 sec (  0.014%)
 model hessian                  ...        0 min,  0.080 sec (  3.682%)
 ANC generation                 ...        0 min,  0.090 sec (  4.127%)
 coordinate transformation      ...        0 min,  0.001 sec (  0.063%)
 single point calculation       ...        0 min,  1.996 sec ( 91.291%)
 optimization log               ...        0 min,  0.003 sec (  0.135%)
 hessian update                 ...        0 min,  0.007 sec (  0.320%)
 rational function              ...        0 min,  0.002 sec (  0.113%)

================
 final structure:
================
12
 xtb: 6.2.3 (830e466)
C         0.90008558075609    1.45062663472691   -2.37170404633271
C        -0.41785232016706    2.20438574741372   -2.29324782789814
C         2.62156747332631   -0.32100298835273    0.12989472001626
O         1.13899164369991    0.95086157967973   -1.06848420560157
O         2.37029469148640    0.23703774335142   -1.05374110698524
O         3.60666527203862   -0.95640459242202    0.32785448171055
H        -0.34027226527849    3.01915202218562   -1.57883933283543
H         1.71886098700500    2.11595348258343   -2.66997335380052
H         0.83771580548774    0.61828560056849   -3.08274400425469
H         1.82556757624458   -0.12212487542743    0.87137173671090
H        -0.66056285610242    2.60749671045057   -3.27193348043975
H        -1.21206158849661    1.53532293524202   -1.97425358028989
 
 Bond Distances (Angstroems)
 ---------------------------
C1-C2=1.5203         C1-O4=1.4161         C1-H8=1.0964         C1-H9=1.0965         C2-C1=1.5203         C2-H7=1.0864         
C2-H11=1.0859        C2-H12=1.0864        C3-O5=1.3325         C3-O6=1.1888         C3-H10=1.1059        O4-C1=1.4161         
O4-O5=1.4233         O5-C3=1.3325         O5-O4=1.4233         O6-C3=1.1888         H7-C2=1.0864         H8-C1=1.0964         
H9-C1=1.0965         H10-C3=1.1059        H11-C2=1.0859        H12-C2=1.0864        
 C  H  Rav=1.0929 sigma=0.0074  Rmin=1.0859  Rmax=1.1059     6
 C  C  Rav=1.5203 sigma=0.0000  Rmin=1.5203  Rmax=1.5203     1
 O  C  Rav=1.3125 sigma=0.0938  Rmin=1.1888  Rmax=1.4161     3
 O  O  Rav=1.4233 sigma=0.0000  Rmin=1.4233  Rmax=1.4233     1
 
 selected bond angles (degree)
 --------------------
O4-C1-C2=105.89                H8-C1-C2=111.14                H8-C1-O4=109.79                H9-C1-C2=111.13                
H9-C1-O4=109.78                H9-C1-H8=109.07                H7-C2-C1=110.11                H11-C2-C1=109.35               
H11-C2-H7=109.28               H12-C2-C1=110.09               H12-C2-H7=108.72               H12-C2-H11=109.26              
O6-C3-O5=121.87                H10-C3-O5=112.62               H10-C3-O6=125.51               O5-O4-C1=109.42                
O4-O5-C3=112.48                
 
 selected dihedral angles (degree)
 ---------------------------------
H7-C2-C1-O4= 60.36            H7-C2-C1-H8=301.19            H7-C2-C1-H9=179.52            H11-C2-C1-O4=180.44           
H11-C2-C1-H8= 61.27           H11-C2-C1-H9=299.61           H12-C2-C1-O4=300.49           H12-C2-C1-H8=181.32           
H12-C2-C1-H9= 59.65           O5-O4-C1-C2=180.52            O5-O4-C1-H8=300.58            O5-O4-C1-H9= 60.48            
O4-O5-C3-O6=180.03            O4-O5-C3-H10=  0.00           C3-O5-O4-C1=183.31            
           -------------------------------------------------
          |                Final Singlepoint                |
           -------------------------------------------------

          ...................................................
          :                      SETUP                      :
          :.................................................:
          :  # basis functions                  30          :
          :  # atomic orbitals                  30          :
          :  # shells                           18          :
          :  # electrons                        36          :
          :  max. iterations                   100          :
          :  Hamiltonian                  GFN2-xTB          :
          :  restarted?                      false          :
          :  GBSA solvation                  false          :
          :  PC potential                    false          :
          :  electronic temp.          300.0000000     K    :
          :  accuracy                    1.0000000          :
          :  -> integral cutoff          0.2500000E+02      :
          :  -> integral neglect         0.1000000E-07      :
          :  -> SCF convergence          0.1000000E-05 Eh   :
          :  -> wf. convergence          0.1000000E-03 e    :
          :  Broyden damping             0.4000000          :
          ...................................................

 iter      E             dE          RMSdq      gap      omega  full diag
   1    -21.7687152 -0.217687E+02  0.208E-05    5.03       0.0  T
   2    -21.7687152 -0.136424E-11  0.120E-05    5.03    2401.2  T
   3    -21.7687152 -0.259348E-12  0.784E-06    5.03    3681.4  T

   *** convergence criteria satisfied after 3 iterations ***

         #    Occupation            Energy/Eh            Energy/eV
      -------------------------------------------------------------
         1        2.0000           -0.7773421             -21.1526
       ...           ...                  ...                  ...
        12        2.0000           -0.5418753             -14.7452
        13        2.0000           -0.5185432             -14.1103
        14        2.0000           -0.5001174             -13.6089
        15        2.0000           -0.4891483             -13.3104
        16        2.0000           -0.4804440             -13.0735
        17        2.0000           -0.4407307             -11.9929
        18        2.0000           -0.4402545             -11.9799 (HOMO)
        19                         -0.2555215              -6.9531 (LUMO)
        20                         -0.1933121              -5.2603
        21                          0.0384680               1.0468
        22                          0.0912065               2.4819
        23                          0.1289228               3.5082
       ...                                ...                  ...
        30                          0.6330225              17.2254
      -------------------------------------------------------------
                  HL-Gap            0.1847330 Eh            5.0268 eV
             Fermi-level           -0.3478880 Eh           -9.4665 eV

 SCC (total)                   0 d,  0 h,  0 min,  0.094 sec
 SCC setup                      ...        0 min,  0.000 sec (  0.238%)
 Dispersion                     ...        0 min,  0.000 sec (  0.047%)
 integral evaluation            ...        0 min,  0.000 sec (  0.508%)
 zeroth order Hamiltonian       ...        0 min,  0.000 sec (  0.074%)
 iterations                     ...        0 min,  0.091 sec ( 96.666%)
 molecular gradient             ...        0 min,  0.002 sec (  2.030%)
 printout                       ...        0 min,  0.000 sec (  0.205%)

         :::::::::::::::::::::::::::::::::::::::::::::::::::::
         ::                     SUMMARY                     ::
         :::::::::::::::::::::::::::::::::::::::::::::::::::::
         :: total energy             -21.591020664875 Eh    ::
         :: gradient norm              0.000692836342 Eh/a0 ::
         :: HOMO-LUMO gap              5.026841255797 eV    ::
         ::.................................................::
         :: SCC energy               -21.768715150657 Eh    ::
         :: -> isotropic ES            0.040050891186 Eh    ::
         :: -> anisotropic ES         -0.001664133010 Eh    ::
         :: -> anisotropic XC         -0.004413077066 Eh    ::
         :: -> dispersion             -0.005168532428 Eh    ::
         :: repulsion energy           0.177698670288 Eh    ::
         :: add. restraining           0.000000000000 Eh    ::
         :::::::::::::::::::::::::::::::::::::::::::::::::::::

           -------------------------------------------------
          |                Property Printout                |
           -------------------------------------------------

    * Orbital Energies and Occupations

         #    Occupation            Energy/Eh            Energy/eV
      -------------------------------------------------------------
         1        2.0000           -0.7773421             -21.1526
       ...           ...                  ...                  ...
         6        2.0000           -0.6303802             -17.1535
         7        2.0000           -0.6262082             -17.0400
         8        2.0000           -0.6140667             -16.7096
         9        2.0000           -0.5839372             -15.8897
        10        2.0000           -0.5677819             -15.4501
        11        2.0000           -0.5473551             -14.8943
        12        2.0000           -0.5418753             -14.7452
        13        2.0000           -0.5185432             -14.1103
        14        2.0000           -0.5001174             -13.6089
        15        2.0000           -0.4891483             -13.3104
        16        2.0000           -0.4804440             -13.0735
        17        2.0000           -0.4407307             -11.9929
        18        2.0000           -0.4402545             -11.9799 (HOMO)
        19                         -0.2555215              -6.9531 (LUMO)
        20                         -0.1933121              -5.2603
        21                          0.0384680               1.0468
        22                          0.0912065               2.4819
        23                          0.1289228               3.5082
        24                          0.1320610               3.5936
        25                          0.1408306               3.8322
        26                          0.1583398               4.3086
        27                          0.2252192               6.1285
        28                          0.2463381               6.7032
        29                          0.2514640               6.8427
        30                          0.6330225              17.2254
      -------------------------------------------------------------
                  HL-Gap            0.1847330 Eh            5.0268 eV
             Fermi-level           -0.3478880 Eh           -9.4665 eV

     #   Z        covCN         q      C6AA      α(0)
     1   6 C      3.675     0.084    19.408     6.313
     2   6 C      3.752    -0.118    22.817     6.812
     3   6 C      2.636     0.343    21.183     7.529
     4   8 O      1.784    -0.185    17.087     5.582
     5   8 O      1.786    -0.139    16.386     5.466
     6   8 O      0.856    -0.327    20.272     6.037
     7   1 H      0.925     0.066     2.129     2.282
     8   1 H      0.924     0.054     2.269     2.356
     9   1 H      0.924     0.053     2.281     2.362
    10   1 H      0.922     0.039     2.460     2.453
    11   1 H      0.925     0.064     2.156     2.296
    12   1 H      0.925     0.066     2.130     2.282

 Mol. C6AA /au·bohr⁶  :       1247.893308
 Mol. C8AA /au·bohr⁸  :      26185.943881
 Mol. α(0) /au        :         51.768872


Wiberg/Mayer (AO) data.
largest (>0.10) Wiberg bond orders for each atom
          total WBO             WBO to atom ...
     1  C   3.921        C    2 1.002    H    9 0.971    H    8 0.971    O    4 0.961
     2  C   3.985        C    1 1.002    H    7 0.984    H   12 0.984    H   11 0.980
     3  C   3.909        O    6 1.832    O    5 1.134    H   10 0.916
     4  O   2.004        C    1 0.961    O    5 0.937
     5  O   2.306        C    3 1.134    O    4 0.937    O    6 0.182
     6  O   2.107        C    3 1.832    O    5 0.182
     7  H   0.996        C    2 0.984
     8  H   0.997        C    1 0.971
     9  H   0.997        C    1 0.971
    10  H   0.998        C    3 0.916
    11  H   0.995        C    2 0.980
    12  H   0.996        C    2 0.984

molecular dipole:
                 x           y           z       tot (Debye)
 q only:       -1.193       0.878      -0.688
   full:       -1.294       0.937      -0.705       4.438
molecular quadrupole (traceless):
                xx          xy          yy          xz          yz          zz
 q only:      -12.349       3.712       3.868       0.103      -4.559       8.481
  q+dip:      -14.763       7.207       4.952      -1.462      -3.096       9.811
   full:      -14.613       6.813       4.999      -0.984      -3.325       9.614

           -------------------------------------------------
          |                Geometry Summary                 |
           -------------------------------------------------

      molecular mass/u    :       90.0780670
   center of mass at/Å    :        1.7020391       0.5950326      -1.0543917
  moments of inertia/u·Å² :        0.2125980E+02   0.3528240E+03   0.3676716E+03
rotational constants/cm⁻¹ :        0.7929346E+00   0.4777915E-01   0.4584970E-01

 * 10 selected distances

     #   Z        #   Z                                     value/Å
     1   6 C      2   6 C                                 1.5202857 (max)
     1   6 C      4   8 O                                 1.4160590
     3   6 C      5   8 O                                 1.3324944
     4   8 O      5   8 O                                 1.4233303
     3   6 C      6   8 O                                 1.1888402
     2   6 C      7   1 H                                 1.0863895
     1   6 C      8   1 H                                 1.0963656
     1   6 C      9   1 H                                 1.0964759
     2   6 C     11   1 H                                 1.0859247 (min)
     2   6 C     12   1 H                                 1.0863566

 * 4 distinct bonds (by element types)

   Z      Z             #   av. dist./Å        max./Å        min./Å
   1 H    6 C           5     1.0903025     1.0964759     1.0859247
   6 C    6 C           1     1.5202857     1.5202857     1.5202857
   6 C    8 O           3     1.3124645     1.4160590     1.1888402
   8 O    8 O           1     1.4233303     1.4233303     1.4233303


optimized geometry written to: xtbopt.xyz


           -------------------------------------------------
          | TOTAL ENERGY              -21.591020664875 Eh   |
          | GRADIENT NORM               0.000692836342 Eh/α |
          | HOMO-LUMO GAP               5.026841255797 eV   |
           -------------------------------------------------

------------------------------------------------------------------------
 * finished run on 2020/12/23 at 21:41:32.459     
------------------------------------------------------------------------
 total:
 * wall-time:     0 d,  0 h,  0 min,  2.675 sec
 *  cpu-time:     0 d,  0 h,  0 min, 10.834 sec
 * ratio c/w:     4.051 speedup
 SCF:
 * wall-time:     0 d,  0 h,  0 min,  0.007 sec
 *  cpu-time:     0 d,  0 h,  0 min,  0.173 sec
 * ratio c/w:    25.478 speedup
 ANC optimizer:
 * wall-time:     0 d,  0 h,  0 min,  2.284 sec
 *  cpu-time:     0 d,  0 h,  0 min,  9.116 sec
 * ratio c/w:     3.992 speedup

