12
 energy: -21.596380966904 gnorm: 0.000890283482 xtb: 6.2.3 (830e466)
C         2.08519168814971    1.68015664985396   -3.28301108362516
C         0.14082950626737    1.04237915003229   -0.23791677308216
C         0.96588148720398   -0.06597390147270   -0.83125936864910
O         0.97684596539554    2.14552213278259   -3.25555005404235
O         0.56708584965864    2.34112117005454   -0.49130459688503
O         1.84303054333612    0.03271619833762   -1.64819937384349
H         0.62488551704283    2.48398297058466   -1.45303830292451
H         2.90750259718781    2.07314089436699   -2.66872773509385
H         2.36914514029600    0.88163437521178   -3.98166181932730
H         0.66906544627462   -1.06081021684566   -0.44311748684322
H        -0.89287341235911    0.86935262545421   -0.59317859379673
H         0.13242967154666    0.91637795163946    0.85117518811295
