12
 energy: -21.416442588161 gnorm: 0.166971455585 xtb: 6.2.3 (830e466)
C         1.87586000000000    1.42353000000000   -2.09728000000000
C         0.87777000000000    0.72270000000000   -1.18054000000000
C         1.30474000000000   -0.68509000000000   -0.89132000000000
O        -1.00144000000000    3.68456000000000   -2.29748000000000
O        -0.73911000000000    3.81436000000000   -1.18479000000000
O         2.36219000000000   -0.90870000000000   -0.32343000000000
H         1.53417000000000    2.45973000000000   -2.29986000000000
H         2.87701000000000    1.47082000000000   -1.61830000000000
H         1.95700000000000    0.88120000000000   -3.06347000000000
H         0.66695000000000   -1.51422000000000   -1.17986000000000
H        -0.11761000000000    0.70711000000000   -1.67417000000000
H         0.79148000000000    1.28358000000000   -0.22529000000000
12
 energy: -20.428264667716 gnorm: 0.635695572559 xtb: 6.2.3 (830e466)
C         1.87469688884966    1.42245823194934   -2.09688878063536
C         0.86463990010773    0.72189725201150   -1.18964267616285
C         1.31719327807714   -0.67340140528090   -0.87112905549557
O        -1.00762361699466    3.68096550878486   -2.32123859935115
O        -0.73782230889825    3.81786140343294   -1.15585629582469
O         2.36829542803182   -0.91437207512559   -0.32584055120274
H         1.55083627614583    2.44405446773863   -2.30277869618438
H         2.85986276504914    1.45984827124387   -1.62684521143988
H         1.96491823402469    0.89438788210315   -3.04894895672621
H         0.66732129564930   -1.49867982428457   -1.18750755069834
H        -0.12422682664717    0.70948847400380   -1.66433528000671
H         0.79091868660467    1.27507181342295   -0.24477834627227
12
 energy: -21.394343013532 gnorm: 0.280107204393 xtb: 6.2.3 (830e466)
C         1.87740987379024    1.40972271274432   -2.09503840888324
C         0.86243784855958    0.73128617071729   -1.19708704461313
C         1.35688379350376   -0.66765351746048   -0.86000882804467
O        -1.02133062664443    3.66685832440448   -2.41075792259639
O        -0.71782234998685    3.82632242120536   -1.06247771207966
O         2.32098557006791   -0.91031687875573   -0.34287481990663
H         1.54083131133895    2.43392603011181   -2.29781974819627
H         2.85861646417260    1.45894511234591   -1.62809545333460
H         1.96535923460495    0.89646899560410   -3.05182141967646
H         0.67839822583924   -1.47620020408349   -1.18143785825169
H        -0.12550034745745    0.70554922229669   -1.66663870664778
H         0.79274100221124    1.26467161086972   -0.24173207776984
12
 energy: -21.412298457938 gnorm: 0.167803611656 xtb: 6.2.3 (830e466)
C         1.87665125117764    1.41421771488202   -2.09899943812690
C         0.86073521973127    0.73753297742166   -1.19796756636355
C         1.35088510488460   -0.65880950490914   -0.86296424189922
O        -1.01687588424170    3.65878332576606   -2.39106785756691
O        -0.71424667940976    3.81065751528423   -1.07952989697394
O         2.35695748250101   -0.93254606542626   -0.31752759594803
H         1.53435928752829    2.43125850074702   -2.29994850684500
H         2.85495822813325    1.46010410497847   -1.62706927333309
H         1.96611595859741    0.89827377765212   -3.05325932074132
H         0.65380953122031   -1.45547886518202   -1.19470500811574
H        -0.12295195298497    0.70685168569499   -1.66855965316355
H         0.78861245286253    1.26873483309082   -0.24419164092292
12
 energy: -21.427533257904 gnorm: 0.060156320690 xtb: 6.2.3 (830e466)
C         1.87446139937916    1.42425027669466   -2.10385171463905
C         0.86093562913563    0.73491429240386   -1.19655290453971
C         1.33674703586507   -0.65285214703816   -0.86404624535882
O        -0.99113982680041    3.65068361270155   -2.33940104908066
O        -0.72505462231292    3.79833466375317   -1.11978910518351
O         2.37048099006020   -0.93498183649629   -0.30575049986191
H         1.53433632481617    2.43419196001831   -2.30575101504602
H         2.85026340193744    1.46048658766706   -1.62734543712394
H         1.96574272294028    0.89935106152742   -3.05193105349666
H         0.64411035139218   -1.45035357722938   -1.20146380610032
H        -0.11778611999992    0.69723019901811   -1.66764051404780
H         0.78591271358686    1.27832490697964   -0.25226665552196
12
 energy: -21.428791969011 gnorm: 0.028372705493 xtb: 6.2.3 (830e466)
C         1.87330777245616    1.42833087116666   -2.10565339482484
C         0.85731107391230    0.73086476092925   -1.19931176770240
C         1.33223521247067   -0.65443603167648   -0.86712853996360
O        -0.99394835653999    3.65842988553184   -2.31037987580306
O        -0.70999964126786    3.77630549546712   -1.13365160276774
O         2.36498026684592   -0.92097480688352   -0.30326441045313
H         1.54321329117861    2.44092022896019   -2.31231117335209
H         2.84682301633052    1.46135988991102   -1.62413677748427
H         1.96905186660167    0.89836984173789   -3.05060753189774
H         0.64704362922894   -1.46185660796046   -1.19152484231715
H        -0.12012238063483    0.69329695956987   -1.67497769503854
H         0.77911424941774    1.28896951324659   -0.26284238839566
12
 energy: -21.429068841608 gnorm: 0.009107409948 xtb: 6.2.3 (830e466)
C         1.87449912446938    1.42683594052023   -2.10747980181940
C         0.85590109851375    0.73303725914748   -1.20096986564276
C         1.32920412681544   -0.65274654188115   -0.85979360769006
O        -0.99112496753474    3.66315698325680   -2.31115535107656
O        -0.71108584817552    3.75836160801074   -1.12124267670050
O         2.36101341159764   -0.91478750780262   -0.30660492255497
H         1.54890643131929    2.44146255561749   -2.31741058224028
H         2.84700038082706    1.46008222075837   -1.62371562303906
H         1.97139226545925    0.89541109934605   -3.05156767373356
H         0.64898152242359   -1.46314564155359   -1.18936744485518
H        -0.12140139945925    0.69531822841087   -1.67885460455337
H         0.77572385374333    1.29659379616923   -0.26762784609542
12
 energy: -21.429130587851 gnorm: 0.005250722645 xtb: 6.2.3 (830e466)
C         1.87727908315857    1.42625177424879   -2.11171836008060
C         0.85453955188220    0.73636203617111   -1.20675402502854
C         1.33060305711135   -0.64883533082661   -0.86324646899036
O        -0.97692307956104    3.65982844966960   -2.30342135046193
O        -0.72107781757934    3.73887485020954   -1.10498221211202
O         2.35417944564683   -0.90631671960819   -0.30213960373791
H         1.55468633284948    2.44183884097732   -2.32357678715573
H         2.84851560644657    1.45827231313849   -1.62502440613124
H         1.97511829023168    0.89345986562459   -3.05492212747935
H         0.64362704396764   -1.46072775483848   -1.17640740718051
H        -0.12168643802084    0.69726574299371   -1.68796525176567
H         0.77014892386520    1.30330593223991   -0.27563199987854
12
 energy: -20.522982658185 gnorm: 0.539752271269 xtb: 6.2.3 (830e466)
C         1.87989159100153    1.42487744077458   -2.11690187823245
C         0.85170602704566    0.74136685229594   -1.21288373552283
C         1.32556423097534   -0.64200276275558   -0.85579180791488
O        -0.95310457521916    3.64856273485416   -2.29123799067332
O        -0.73580681439496    3.71901155741879   -1.08496174033884
O         2.34987610300285   -0.89623754239027   -0.30088927125176
H         1.56122140947142    2.44102218374351   -2.33335688153484
H         2.84931478159267    1.45589388233415   -1.62632629873310
H         1.97964511583047    0.88908925293875   -3.05811205504848
H         0.64082619477960   -1.45623218704237   -1.17044207675916
H        -0.12242349241250    0.69964629741388   -1.69883269540309
H         0.76229942832438    1.31458229041414   -0.28605356859110
12
 energy: -21.380739164389 gnorm: 0.278810692799 xtb: 6.2.3 (830e466)
C         1.88079534158252    1.40468976327547   -2.11707543939819
C         0.84611255831397    0.76347095715091   -1.23379824718262
C         1.35818729390969   -0.62492972124343   -0.81324418515888
O        -0.91429729395803    3.67835122430074   -2.40160098865235
O        -0.76732115671471    3.67072579020483   -0.95911308291654
O         2.33327765651583   -0.90199757436235   -0.31554908576761
H         1.54599721636150    2.42382170399960   -2.33796906868273
H         2.85196709374842    1.45289123311901   -1.63459829115139
H         1.97630389587809    0.88690308795936   -3.06701441949085
H         0.64116662666217   -1.41346472556038   -1.16437974946045
H        -0.12634522657280    0.69879638821266   -1.70526009317549
H         0.76316599426576    1.30032187294274   -0.28618734897369
12
 energy: -21.403087378259 gnorm: 0.199070254468 xtb: 6.2.3 (830e466)
C         1.88114151450158    1.41519734613955   -2.11058103646193
C         0.84871947154690    0.76013471422215   -1.22467368333790
C         1.35288255891189   -0.62719042915527   -0.84523456628861
O        -0.98969464457832    3.59892799545943   -2.36295103253034
O        -0.68185384013274    3.74014609511512   -1.01600696138106
O         2.34339839919978   -0.92265158884151   -0.30710784863228
H         1.53818129701171    2.42876012167344   -2.32918223826333
H         2.84982260389729    1.46300603955375   -1.62035666076028
H         1.98657235604629    0.89543735709584   -3.06072337757697
H         0.62568999322225   -1.40456643137132   -1.17453098846312
H        -0.12071380294011    0.69748692425686   -1.70859098825449
H         0.75486409331320    1.29489185585188   -0.27585061805006
12
 energy: -21.389687557872 gnorm: 0.402656889873 xtb: 6.2.3 (830e466)
C         1.88060709281726    1.43463522246204   -2.13257501347418
C         0.85969862179559    0.73768918237849   -1.19022961597560
C         1.30440084906635   -0.62287817488633   -0.90042122708096
O        -0.86829575556164    3.67504631510278   -2.22269301277186
O        -0.79482364999674    3.63667942861436   -1.13120413040038
O         2.38908185934373   -0.91260627559817   -0.27296784741000
H         1.54487376743691    2.43268307079590   -2.34631968794282
H         2.84947919816456    1.46086642635360   -1.63201715988417
H         1.98298230442088    0.88007514009737   -3.06857230552039
H         0.61166444604578   -1.41408068608556   -1.15069020271951
H        -0.11676005478529    0.69738409477670   -1.70802944308660
H         0.74610132124553    1.33408625598804   -0.28007035374364
12
 energy: -21.424174673053 gnorm: 0.113796390991 xtb: 6.2.3 (830e466)
C         1.87726060816209    1.42879681961475   -2.12866984842477
C         0.85644893244526    0.75085611740904   -1.20438752889717
C         1.32409688299260   -0.62793350613457   -0.87079493604483
O        -0.84618284099758    3.69505359292276   -2.31454546234192
O        -0.81328399427273    3.60975080110426   -1.03677501237276
O         2.37302523616079   -0.91019094086684   -0.29235269680074
H         1.54495331667593    2.43681728607689   -2.35404376343914
H         2.84804829968352    1.46343279207647   -1.63875670613215
H         1.97792154844515    0.87955632201497   -3.06531344529194
H         0.61062013625852   -1.42098030567809   -1.14472130735704
H        -0.11567298915964    0.69927168324069   -1.70158867176354
H         0.75177486359575    1.33514933821855   -0.28384062114871
12
 energy: -21.428119955150 gnorm: 0.056374344938 xtb: 6.2.3 (830e466)
C         1.88309377602215    1.42588805874816   -2.12287953337097
C         0.83900767789783    0.75758827098403   -1.22850896049260
C         1.30737706356451   -0.62177059653783   -0.82683966860510
O        -0.89197570586720    3.59047525311223   -2.27260250944707
O        -0.72616773801863    3.65271501058040   -1.03225227784233
O         2.34415654340142   -0.87423345830241   -0.32057568664945
H         1.56054004675520    2.44081545197509   -2.35681518885650
H         2.84743326979156    1.46576975610003   -1.62304934137240
H         1.99159928392543    0.88414648835841   -3.05866372771669
H         0.62935169662277   -1.43599682562720   -1.15550463930946
H        -0.12887961617461    0.70875923037406   -1.72564669595105
H         0.73347370207557    1.34542336023455   -0.31245177039208
12
 energy: -21.429996997495 gnorm: 0.004220418795 xtb: 6.2.3 (830e466)
C         1.87849373318604    1.43549353675131   -2.12972603220367
C         0.83380068891760    0.76326255505317   -1.23558106965962
C         1.30487415057954   -0.61315082795175   -0.84656228282760
O        -0.83496012673951    3.57660493873959   -2.24485763989975
O        -0.73149350551656    3.59181041560215   -1.02324043455797
O         2.34626351052472   -0.86016703649123   -0.31577725566986
H         1.55887574880531    2.44759851031088   -2.37315515161973
H         2.83860324871540    1.47611553156376   -1.62128235205883
H         1.99722219568284    0.88502180487303   -3.05994257972992
H         0.60812449774930   -1.43032093830650   -1.12215813612508
H        -0.13091220932311    0.71068652997199   -1.74023503416600
H         0.72011806741238    1.35662497988287   -0.32327203149057
12
 energy: -21.430628622784 gnorm: 0.007646082668 xtb: 6.2.3 (830e466)
C         1.87232418348932    1.44501266873455   -2.14095881692231
C         0.82365430323367    0.77523969349263   -1.25102956377146
C         1.29903074373175   -0.59667842447214   -0.84943628467779
O        -0.75987225437277    3.51734474592022   -2.21121996256803
O        -0.71369561350386    3.53272148761386   -0.98703113706575
O         2.33497611463292   -0.83583198571576   -0.30360717360721
H         1.55072880075127    2.45356558211915   -2.39665857519682
H         2.82645711261687    1.49310524206375   -1.62099871543385
H         2.00473175471685    0.88699405621119   -3.06599684055907
H         0.59321631783085   -1.41658868993854   -1.09849818596491
H        -0.13492401993430    0.71027750725088   -1.76728444861289
H         0.69238255680034    1.37441811671934   -0.34307029562997
12
 energy: -21.432025264136 gnorm: 0.037511736131 xtb: 6.2.3 (830e466)
C         1.84628679546631    1.48083941612808   -2.17928670053698
C         0.78948671158006    0.81703881663748   -1.30313416287625
C         1.28076045686018   -0.53913736648620   -0.86029393494142
O        -0.48353664715190    3.31683089556260   -2.10018477674244
O        -0.65037650324021    3.31678712409646   -0.86506681701087
O         2.29868354176193   -0.75491689641543   -0.26137204793933
H         1.51237188211581    2.47476123485171   -2.47754028491986
H         2.78032350036598    1.55812587637573   -1.62152472108488
H         2.02653616129510    0.89691592815244   -3.08650128357539
H         0.53973856726826   -1.36525557423328   -1.01659517100707
H        -0.14783384604627    0.70620847881676   -1.85721401387247
H         0.59656937971350    1.43138206651226   -0.40707608550902
12
 energy: -21.433354373820 gnorm: 0.053816389808 xtb: 6.2.3 (830e466)
C         1.81513020524399    1.50461825205767   -2.17967905202661
C         0.79067661790074    0.82300601580688   -1.30548836280495
C         1.29317914747632   -0.52866700037939   -0.86793821017317
O        -0.42201201547013    3.37261588429536   -2.11193800705457
O        -0.55670260167315    3.16051477177959   -0.88940109551144
O         2.30522243948807   -0.75918762071716   -0.24547997924357
H         1.44785025708535    2.48318072414230   -2.48256220803937
H         2.74713550132120    1.60621747248185   -1.62453027810744
H         2.01042784298125    0.92190433411351   -3.08667540131951
H         0.52022976187465   -1.33699993761937   -0.99575016795936
H        -0.14014357250436    0.68507430510017   -1.85529705740216
H         0.57801641626139    1.40730279893685   -0.39105018037867
12
 energy: -21.432600210915 gnorm: 0.092071175648 xtb: 6.2.3 (830e466)
C         1.82149680718779    1.50898242161709   -2.18280154072510
C         0.75736085826086    0.82600941762141   -1.32993204923562
C         1.26446141372034   -0.51571770896602   -0.83859718160357
O        -0.50661184718669    3.33411794539942   -2.03163465064085
O        -0.35675822582089    3.03120097333905   -0.88341056536513
O         2.27506981819266   -0.69359478287766   -0.24752482052848
H         1.46770341962738    2.49676968209355   -2.49739986207177
H         2.74139872686313    1.62188167825121   -1.60339812815304
H         2.03833886387212    0.93285251459298   -3.08872772448814
H         0.53174775280141   -1.35472092622968   -0.96713325969715
H        -0.16204176413980    0.68814390246298   -1.91411631584683
H         0.51684417661206    1.46365488269439   -0.45111390165795
12
 energy: -21.429674102988 gnorm: 0.078658527884 xtb: 6.2.3 (830e466)
C         1.82970929591152    1.50561909171053   -2.19477779337807
C         0.74289256973720    0.83400643616270   -1.35113541216499
C         1.25363272480198   -0.49923308938307   -0.82225598530178
O        -0.55722420543495    3.41819008939042   -1.98294393463174
O        -0.27051334967851    2.86390725442021   -0.85620118757595
O         2.26267785930507   -0.65463164374654   -0.22340362071566
H         1.48851107049135    2.49149643128880   -2.53226663626080
H         2.73797650689356    1.62659749405251   -1.59513672781930
H         2.06437040463503    0.92038743813898   -3.09189014296073
H         0.53044322833498   -1.34486389301733   -0.93953654174326
H        -0.16624483461124    0.67523313375758   -1.95517940701785
H         0.47277872960231    1.50287125722368   -0.49106261044644
12
 energy: -21.436347496159 gnorm: 0.041842211167 xtb: 6.2.3 (830e466)
C         1.83678400301579    1.49223681575003   -2.20568752888458
C         0.76038868920109    0.82341049070059   -1.36561689364575
C         1.26414987436508   -0.50172883798895   -0.82765678693727
O        -0.48529163018982    3.42219007530916   -1.99123107705464
O        -0.44430543199070    2.99760717368830   -0.81470526864741
O         2.27581715351514   -0.66939833056021   -0.19391705114958
H         1.49621018445233    2.46972068632794   -2.53914715624237
H         2.74274648817863    1.60467158634612   -1.60958793184875
H         2.06364644387319    0.90007889131139   -3.09553850071487
H         0.53061102066842   -1.33271840462011   -0.94745359930495
H        -0.15133944036534    0.65926262065584   -1.94839545527378
H         0.49959264526125    1.47424723307804   -0.49685275031724
12
 energy: -21.438036371264 gnorm: 0.036016606176 xtb: 6.2.3 (830e466)
C         1.82645894942541    1.48675783982336   -2.20881868742927
C         0.75285412460522    0.81793600477568   -1.36958551666448
C         1.22158967570506   -0.47504401742600   -0.73597959905726
O        -0.37166564009544    3.44460190664443   -1.96154820939171
O        -0.49336675020748    2.95914232216822   -0.81096461737930
O         2.28403065158064   -0.65288061013352   -0.20735637259444
H         1.46637370656809    2.46072484224137   -2.54854976726147
H         2.73606549997473    1.61546691447829   -1.62436436369680
H         2.05303114845354    0.89421341820893   -3.09366984737037
H         0.57620941207487   -1.35551437044811   -0.99612594745847
H        -0.15537427873490    0.64691827429080   -1.94944811115602
H         0.49280350063544    1.49725747537478   -0.52937896056147
12
 energy: -21.440749704850 gnorm: 0.037343466681 xtb: 6.2.3 (830e466)
C         1.81213840802347    1.49472172432504   -2.21086880651348
C         0.74906828333080    0.79848766692422   -1.38710089036301
C         1.24287533919201   -0.48352158777384   -0.76143688378395
O        -0.26878187912130    3.45705570656246   -1.93681002714100
O        -0.49040965895506    2.91764709002340   -0.81207553626399
O         2.27055490078287   -0.62751744874055   -0.18327577023293
H         1.42118545725669    2.46714149813731   -2.53666174656831
H         2.72307802651078    1.63561660051228   -1.63251487700042
H         2.04398813653715    0.91844146487264   -3.10298954832008
H         0.56489827737333   -1.33659350722513   -0.94274981808728
H        -0.15001973802481    0.61814708205158   -1.97431281701838
H         0.47043444707941    1.47995371032888   -0.55499327872812
12
 energy: -21.440668937193 gnorm: 0.062978934609 xtb: 6.2.3 (830e466)
C         1.78087252649925    1.51257788904613   -2.20348039034801
C         0.73367089120361    0.76710260239099   -1.41155360988547
C         1.25853850253210   -0.49474500136854   -0.77865922667829
O        -0.18397190975854    3.39002599556789   -1.93343777484295
O        -0.33454320014929    2.92556914907080   -0.81496482612932
O         2.25471502994145   -0.59425948633493   -0.14630872183877
H         1.33856015004015    2.48914237288280   -2.49126692266972
H         2.68851845787642    1.67040220107382   -1.62541342332385
H         2.02879870567134    0.98160072936631   -3.12005771946059
H         0.55569414683841   -1.32832901889835   -0.89468657264901
H        -0.14387745510779    0.56563541282338   -2.02206018630935
H         0.41203415439840    1.45485715437807   -0.59390062588552
12
 energy: -21.445063980249 gnorm: 0.028261399367 xtb: 6.2.3 (830e466)
C         1.75664633934204    1.51746700986532   -2.21180208010485
C         0.72402605978375    0.75318777626106   -1.42120405097773
C         1.25931900922035   -0.49096920522556   -0.75669171159640
O        -0.01242416497860    3.40353247021424   -1.91731015168717
O        -0.37071898782043    2.89469471363434   -0.81128476579812
O         2.26792561168205   -0.57093790646352   -0.13081252010274
H         1.29101463921596    2.49555496402935   -2.48060837180836
H         2.66296285459944    1.68666012680315   -1.63402682821013
H         2.00964085658108    1.01217519308490   -3.14366283021283
H         0.56916048728219   -1.33969552443382   -0.87456193289272
H        -0.14407113339139    0.52823653387320   -2.04030417461302
H         0.37552842846930    1.44967384835583   -0.61352058201658
12
 energy: -21.446370813666 gnorm: 0.061119716149 xtb: 6.2.3 (830e466)
C         1.72639943755574    1.51366501006867   -2.21827592008686
C         0.71476258255963    0.71236583452216   -1.45037379351703
C         1.26334146410818   -0.49216752294054   -0.71786991438271
O         0.14315566950295    3.47703143753461   -1.88368405427248
O        -0.33684641795917    2.87702760834764   -0.82708664238184
O         2.27889437457570   -0.53154937390792   -0.09234122460165
H         1.21675309427943    2.50357756450288   -2.43100830123631
H         2.62973144400071    1.69561284566047   -1.63912596342836
H         1.97763490073070    1.07558790256723   -3.18974900104191
H         0.59809526411991   -1.36518661298032   -0.83096490700718
H        -0.13296224159757    0.44457729251448   -2.08685829591994
H         0.31005042810980    1.42903801410931   -0.66845198214417
12
 energy: -21.449182959037 gnorm: 0.028037552619 xtb: 6.2.3 (830e466)
C         1.72319499502853    1.49988340020815   -2.23061998379765
C         0.71472374228238    0.69039359892165   -1.48836214187838
C         1.25259945352078   -0.47957526348548   -0.68163933796179
O         0.18104841071265    3.45418435613344   -1.84963163306764
O        -0.29705205907273    2.92465789924064   -0.78192688927471
O         2.27288854288861   -0.49609665495790   -0.05886318931140
H         1.20405179777633    2.50988205401246   -2.39203073579491
H         2.61934918980314    1.67553511477625   -1.64014689644365
H         1.96102975650330    1.12514210276688   -3.23626478480905
H         0.61354208140984   -1.37791445576069   -0.80264897813269
H        -0.11370565774201    0.38213574748634   -2.13975585686615
H         0.25733974687524    1.43135210065696   -0.73389957268234
12
 energy: -21.451196302551 gnorm: 0.021867646645 xtb: 6.2.3 (830e466)
C         1.70796268658973    1.50036705598410   -2.23830146662463
C         0.70841591637088    0.67156215040589   -1.52633964097907
C         1.24578737053982   -0.45689320812222   -0.66424961518617
O         0.27420260913915    3.41915787410283   -1.81455151909981
O        -0.23832561684416    2.88518860385895   -0.77077286962513
O         2.26040482584999   -0.44295476755088   -0.03264440863166
H         1.18666732222807    2.53811603610202   -2.33652816978782
H         2.60924535934573    1.65345499076495   -1.65275690528571
H         1.92070450885070    1.19564661239769   -3.27312716228786
H         0.61098170653735   -1.36372300344359   -0.74140799656149
H        -0.09465742135223    0.31665702444401   -2.18778868569243
H         0.19762073273115    1.42300063105501   -0.79732156025850
12
 energy: -21.453810641939 gnorm: 0.040143066275 xtb: 6.2.3 (830e466)
C         1.72185140352220    1.46539745928900   -2.26008826884063
C         0.71786561531646    0.65501598408325   -1.59203777175250
C         1.22584918618846   -0.40139362355889   -0.63391441453400
O         0.28432871124784    3.44822212630765   -1.71005785532677
O        -0.22559207775539    2.78528365761550   -0.75314078205719
O         2.23909731137008   -0.35986474843532   -0.00796442883964
H         1.23905490636220    2.56033657329496   -2.26053111282908
H         2.63525077720421    1.56742518198819   -1.68293684920961
H         1.87048378645534    1.26916348015109   -3.32373485420777
H         0.59546590179753   -1.32002978624192   -0.64006971887060
H        -0.04458877807440    0.23170943719083   -2.25642031048449
H         0.12994325635163    1.43831425831442   -0.91489363306800
12
 energy: -21.458513238996 gnorm: 0.041686177095 xtb: 6.2.3 (830e466)
C         1.72434634854748    1.44724800311616   -2.28114013676505
C         0.72524191457731    0.64022966034017   -1.64662856513270
C         1.20932533368047   -0.35142185566033   -0.61985529903236
O         0.40712031903890    3.38901950395778   -1.62004289192391
O        -0.26107822925515    2.66835629257021   -0.73003186129122
O         2.21546014273950   -0.28384132317209    0.00813800802091
H         1.26006950544133    2.59098260081880   -2.19248436070798
H         2.65719720885134    1.51107869714722   -1.72496339105133
H         1.82089274485527    1.34698325071950   -3.36278158947893
H         0.56154172702893   -1.25884851449297   -0.54052757263967
H        -0.00473002604175    0.17465079417826   -2.30607426638605
H         0.07362301052262    1.46514289047609   -1.01939807363190
12
 energy: -21.463574977285 gnorm: 0.084139392675 xtb: 6.2.3 (830e466)
C         1.71072366219655    1.43270466076155   -2.29435253854873
C         0.73779857821353    0.59678595599527   -1.68430985480847
C         1.19650474255967   -0.32356498950375   -0.60227937073731
O         0.56519475924970    3.33164226217578   -1.58156013432341
O        -0.25122536628666    2.55131560105556   -0.76092944386001
O         2.20524305305837   -0.22091615152497    0.02415767108486
H         1.21841680515957    2.63111131600213   -2.06108510385652
H         2.67505902334544    1.47099782999670   -1.78170584028269
H         1.76197507841953    1.46133049644119   -3.40464101787817
H         0.52540269235288   -1.20373365447640   -0.45391723203655
H         0.02709018407735    0.12543783565016   -2.33066620277856
H         0.01682678764054    1.48646883742564   -1.10450093199450
12
 energy: -21.469189107593 gnorm: 0.085649286461 xtb: 6.2.3 (830e466)
C         1.72139710288847    1.40853433575336   -2.31803585331458
C         0.76881980221201    0.56290123916821   -1.70658572431673
C         1.18446572721442   -0.31420987170570   -0.59882815591036
O         0.57564924236771    3.30168532528802   -1.53964155434534
O        -0.25745658232429    2.48307248512768   -0.76164147022150
O         2.19467173230461   -0.19760734978449    0.03720228976029
H         1.20977636962317    2.64048229997724   -2.00186042532951
H         2.69694921474935    1.46291242483329   -1.83302062131297
H         1.76708852034026    1.48636210925632   -3.39361802603893
H         0.48252957339385   -1.15091175074240   -0.42959551025935
H         0.04623586412688    0.12532259710924   -2.33657580165239
H        -0.00111656690998    1.53103615571807   -1.15358914707871
12
 energy: -21.471425040539 gnorm: 0.119306369777 xtb: 6.2.3 (830e466)
C         1.75539334507503    1.33871550668516   -2.36936858647414
C         0.83493382243107    0.46475898909334   -1.76007445456053
C         1.18641249203111   -0.33420288325822   -0.57813558248997
O         0.47963842705614    3.37282753335526   -1.46753291233148
O        -0.25072544405810    2.52438817146036   -0.73175003239972
O         2.20751221831403   -0.16664966164893    0.09164722249423
H         1.22994454245506    2.62590321258228   -1.93550639655780
H         2.71309802563133    1.45378889903508   -1.89023125651620
H         1.80394295686397    1.50920893847669   -3.39772049861069
H         0.45341115818647   -1.11133484957534   -0.41219122351853
H         0.04541154451620    0.09579298450420   -2.37623214141228
H        -0.06996308851601    1.56638315928894   -1.20869413764304
12
 energy: -21.486040915328 gnorm: 0.085724850454 xtb: 6.2.3 (830e466)
C         1.78036633989417    1.28833341412837   -2.38446809474346
C         0.88657447356183    0.45436018568857   -1.79304606937787
C         1.17654101216837   -0.29662093214550   -0.55076466357080
O         0.53143987525636    3.31528904233964   -1.45126495307149
O        -0.27779506600311    2.43665282906889   -0.76597841158744
O         2.20247676042566   -0.15982413893956    0.08165525630825
H         1.25473226592376    2.65911477688773   -1.81460675642453
H         2.74075622507607    1.40483772772964   -1.91500081105053
H         1.72843530509810    1.60263749981853   -3.46860991736019
H         0.42359654872476   -1.05968249811737   -0.35101711098742
H         0.05908953581389    0.06551809765660   -2.38724643938138
H        -0.11720327595349    1.62896399588326   -1.23544202877327
12
 energy: -21.426116516576 gnorm: 0.584724034021 xtb: 6.2.3 (830e466)
C         1.77793641230829    1.27635396451344   -2.39831251678336
C         0.92120696429536    0.42068491196999   -1.85177596588394