      -----------------------------------------------------------      
     |                   =====================                   |     
     |                           x T B                           |     
     |                   =====================                   |     
     |                         S. Grimme                         |     
     |          Mulliken Center for Theoretical Chemistry        |     
     |                    University of Bonn                     |     
      -----------------------------------------------------------      

   * xtb version 6.2.3 (830e466) compiled by 'ehlert@majestix' on 2020-03-16

   xtb is free software: you can redistribute it and/or modify it under
   the terms of the GNU Lesser General Public License as published by
   the Free Software Foundation, either version 3 of the License, or
   (at your option) any later version.
   
   xtb is distributed in the hope that it will be useful,
   but WITHOUT ANY WARRANTY; without even the implied warranty of
   MERCHANTABILITY or FITNESS FOR A PARTICULAR PURPOSE.  See the
   GNU Lesser General Public License for more details.
   
   Cite this work as:
   * S. Grimme, C. Bannwarth, P. Shushkov, J. Chem. Theory Comput., 2017,
     13, 1989-2009. DOI: 10.1021/acs.jctc.7b00118
   * C. Bannwarth, S. Ehlert and S. Grimme., J. Chem. Theory Comput., 2019,
     15, 1652-1671. DOI: 10.1021/acs.jctc.8b01176
   * P. Pracht, E. Caldeweyher, S. Ehlert, S. Grimme, ChemRxiv, 2019, preprint.
     DOI: 10.26434/chemrxiv.8326202.v1
   
   for DFT-D4:
   * E. Caldeweyher, C. Bannwarth and S. Grimme, J. Chem. Phys., 2017,
     147, 034112. DOI: 10.1063/1.4993215
   * E. Caldeweyher, S. Ehlert, A. Hansen, H. Neugebauer, S. Spicher,
     C. Bannwarth and S. Grimme, J. Chem. Phys., 2019, 150, 154122.
     DOI: 10.1063/1.5090222
   
   for sTDA-xTB:
   * S. Grimme and C. Bannwarth, J. Chem. Phys., 2016, 145, 054103.
     DOI: 10.1063/1.4959605
   
   in the mass-spec context:
   * V. Asgeirsson, C. Bauer and S. Grimme, Chem. Sci., 2017, 8, 4879.
     DOI: 10.1039/c7sc00601b
   
   for metadynamics refer to:
   * S. Grimme, J. Chem. Theory Comput., 2019, 155, 2847-2862
     DOI: 10.1021/acs.jctc.9b00143
   
   with help from (in alphabetical order)
   C. Bannwarth, F. Bohle, G. Brandenburg, E. Caldeweyher, M. Checinski,
   S. Dohm, S. Ehlert, S. Ehrlich, F. März, H. Neugebauer, J. Pisarek,
   P. Pracht, P. Shushkov, and S. Spicher.
   
 * started run on 2020/12/23 at 21:43:27.415     

           -------------------------------------------------
          |                Calculation Setup                |
           -------------------------------------------------

          program call               : xtb -c 0 -u 0 -a 1.0 --iterations 100 --opt normal --namespace product_33 /scratch/bell/zhao922/YARP/paper-example/potential_product/test/reaction_channel/pp_0/pp_8_0.xyz
          hostname                   : bell-fe05.rcac.purdue.edu
          calculation namespace      : product_33
          coordinate file            : /scratch/bell/zhao922/YARP/paper-example/potential_product/test/reaction_channel/pp_0/pp_8_0.xyz
          omp threads                :                    32
          number of atoms            :                    12
          number of electrons        :                    36
          charge                     :                     0
          spin                       :                   0.0
          first test random number   :      0.57384354564208


molecular fragmentation (1/2 indicates fragments):
111221211121
# atoms in fragment 1/2:     8     4
 fragment masses (1/2) :       56.06       34.01
CMA distance (Bohr)    :   8.317
constraining FC (au)   :  0.0500
           ------------------------------------------------- 
          |                 G F N 2 - x T B                 |
          | Geometry, Frequencies, Noncovalent interactions |
          |            JCTC 2019 parametrisation            |
           ------------------------------------------------- 
             k(s)              :                1.8500
             k(p)              :                2.2300
             k(d)              :                2.2300
             k(f)              :                2.0000
             kEN (H0ij)        :               -2.0000
             D4 a1             :                0.5200
             D4 a2             :                5.0000
             D4 s6             :                1.0000
             D4 s8             :                2.7000
             D4 s9             :                5.0000
             alphaj            :                2.0000

  Z AO/shell   Hii/eV     exponent
  1     Wed Apr 25 08:07:45 CEST 2018   EN: 2.200 GM2: 0.406  GM3: 0.0800  RAES: 1.40
     1s    -10.707211    1.230000
  6     Wed Apr 25 08:07:45 CEST 2018   EN: 2.550 GM2: 0.538  GM3: 0.1500  RAES: 3.00
     2s    -13.970922    2.096432
     2p    -10.063292    1.800000
  8     Wed Apr 25 08:07:45 CEST 2018   EN: 3.440 GM2: 0.452  GM3:-0.0517  RAES: 1.80
     2s    -20.229985    2.439742
     2p    -15.503117    2.137023

           ------------------------------------------------- 
          |        Self-Consistent Charge Iterations        |
           ------------------------------------------------- 

          ...................................................
          :                      SETUP                      :
          :.................................................:
          :  # basis functions                  30          :
          :  # atomic orbitals                  30          :
          :  # shells                           18          :
          :  # electrons                        36          :
          :  max. iterations                   100          :
          :  Hamiltonian                  GFN2-xTB          :
          :  restarted?                      false          :
          :  GBSA solvation                  false          :
          :  PC potential                    false          :
          :  electronic temp.          300.0000000     K    :
          :  accuracy                    1.0000000          :
          :  -> integral cutoff          0.2500000E+02      :
          :  -> integral neglect         0.1000000E-07      :
          :  -> SCF convergence          0.1000000E-05 Eh   :
          :  -> wf. convergence          0.1000000E-03 e    :
          :  Broyden damping             0.4000000          :
          ...................................................

 iter      E             dE          RMSdq      gap      omega  full diag
   1    -21.6705970 -0.216706E+02  0.602E+00    3.35       0.0  T
   2    -21.6957388 -0.251418E-01  0.326E+00    2.55       1.0  T
   3    -21.6887417  0.699710E-02  0.204E+00    3.12       1.0  T
   4    -21.7013240 -0.125823E-01  0.468E-01    2.77       1.0  T
   5    -21.7032344 -0.191044E-02  0.141E-01    2.80       1.0  T
   6    -21.7033196 -0.852010E-04  0.552E-02    2.80       1.0  T
   7    -21.7033252 -0.553212E-05  0.219E-02    2.79       1.3  T
   8    -21.7033255 -0.298873E-06  0.317E-03    2.79       9.1  T
   9    -21.7033255 -0.164915E-07  0.155E-03    2.79      18.7  T
  10    -21.7033255 -0.654118E-08  0.430E-04    2.79      67.1  T
  11    -21.7033255 -0.105501E-08  0.178E-04    2.79     161.8  T

   *** convergence criteria satisfied after 11 iterations ***

         #    Occupation            Energy/Eh            Energy/eV
      -------------------------------------------------------------
         1        2.0000           -0.7442989             -20.2534
       ...           ...                  ...                  ...
        12        2.0000           -0.5450950             -14.8328
        13        2.0000           -0.5042211             -13.7206
        14        2.0000           -0.4858916             -13.2218
        15        2.0000           -0.4664785             -12.6935
        16        2.0000           -0.4595584             -12.5052
        17        2.0000           -0.4469098             -12.1610
        18        2.0000           -0.4166489             -11.3376 (HOMO)
        19                         -0.3139793              -8.5438 (LUMO)
        20                         -0.2028368              -5.5195
        21                         -0.0393962              -1.0720
        22                          0.0507821               1.3819
        23                          0.0687934               1.8720
       ...                                ...                  ...
        30                          0.6094438              16.5838
      -------------------------------------------------------------
                  HL-Gap            0.1026696 Eh            2.7938 eV
             Fermi-level           -0.3653141 Eh           -9.9407 eV

 SCC (total)                   0 d,  0 h,  0 min,  0.010 sec
 SCC setup                      ...        0 min,  0.000 sec (  3.234%)
 Dispersion                     ...        0 min,  0.000 sec (  0.596%)
 integral evaluation            ...        0 min,  0.001 sec ( 13.545%)
 zeroth order Hamiltonian       ...        0 min,  0.000 sec (  0.774%)
 iterations                     ...        0 min,  0.006 sec ( 55.771%)
 molecular gradient             ...        0 min,  0.002 sec ( 22.051%)
 printout                       ...        0 min,  0.000 sec (  2.153%)

         :::::::::::::::::::::::::::::::::::::::::::::::::::::
         ::                     SUMMARY                     ::
         :::::::::::::::::::::::::::::::::::::::::::::::::::::
         :: total energy             -21.505144732447 Eh    ::
         :: gradient norm              0.127488735943 Eh/a0 ::
         :: HOMO-LUMO gap              2.793781958194 eV    ::
         ::.................................................::
         :: SCC energy               -21.703325497147 Eh    ::
         :: -> isotropic ES            0.054368474234 Eh    ::
         :: -> anisotropic ES         -0.003102570815 Eh    ::
         :: -> anisotropic XC         -0.005410632259 Eh    ::
         :: -> dispersion             -0.004978815760 Eh    ::
         :: repulsion energy           0.198168206475 Eh    ::
         :: add. restraining           0.000000000000 Eh    ::
         :::::::::::::::::::::::::::::::::::::::::::::::::::::

      ----------------------------------------------------------- 
     |                   =====================                   |
     |                        A N C O P T                        |
     |                   =====================                   |
     |               Approximate Normal Coordinate               |
     |                Rational Function Optimizer                |
      ----------------------------------------------------------- 

          ...................................................
          :                      SETUP                      :
          :.................................................:
          :   optimization level            normal          :
          :   max. optcycles                   200          :
          :   ANC micro-cycles                  20          :
          :   degrees of freedom                30          :
          :.................................................:
          :   RF solver                   davidson          :
          :   write xtbopt.log                true          :
          :   linear?                        false          :
          :   energy convergence         0.5000000E-05 Eh   :
          :   grad. convergence          0.1000000E-02 Eh/α :
          :   maximium RF displ.         1.0000000          :
          :   Hlow (freq-cutoff)         0.1000000E-01      :
          :   Hmax (freq-cutoff)         5.0000000          :
          :   S6 in model hess.         20.0000000          :
          ...................................................

generating ANC from model Hessian ...
Using Lindh-Hessian (1995)
 Shifting diagonal of input Hessian by   9.884478426006645E-003
 Lowest  eigenvalues of input Hessian
   -0.000000    0.000000    0.000000    0.000000    0.000000    0.000000
    0.010000    0.010016    0.010236    0.010389    0.010699    0.010923
    0.019852    0.025297    0.036978    0.044074    0.048979    0.071724
 Highest eigenvalues
    1.183590    1.255418    1.602521    1.614110    1.826296    2.179258
 

........................................................................
.............................. CYCLE    1 ..............................
........................................................................
   1    -21.7033255 -0.217033E+02  0.809E-05    2.79       0.0  T
   2    -21.7033255 -0.212985E-10  0.558E-05    2.79     517.1  T
   3    -21.7033255 -0.191456E-10  0.310E-05    2.79     931.5  T
     SCC iter.                  ...        0 min,  0.001 sec
     gradient                   ...        0 min,  0.002 sec
 * total energy  :   -21.5051447 Eh     change       -0.2408008E-08 Eh
   gradient norm :     0.1274895 Eh/α   predicted     0.0000000E+00 (-100.00%)
   displ. norm   :     0.1688813 α      lambda       -0.1277483E-01
   maximum displ.:     0.0792259 α      in ANC's #11, #28, #18, ...

........................................................................
.............................. CYCLE    2 ..............................
........................................................................
   1    -21.7189385 -0.217189E+02  0.278E-01    2.80       0.0  T
   2    -21.7190006 -0.620574E-04  0.166E-01    2.80       1.0  T
   3    -21.7189849  0.156842E-04  0.723E-02    2.80       1.0  T
   4    -21.7190106 -0.257210E-04  0.326E-02    2.79       1.0  T
   5    -21.7190167 -0.606623E-05  0.992E-03    2.80       2.9  T
   6    -21.7190170 -0.365703E-06  0.363E-03    2.80       8.0  T
   7    -21.7190171 -0.349178E-07  0.180E-03    2.80      16.0  T
     SCC iter.                  ...        0 min,  0.090 sec
     gradient                   ...        0 min,  0.002 sec
 * total energy  :   -21.5136109 Eh     change       -0.8466155E-02 Eh
   gradient norm :     0.0468301 Eh/α   predicted    -0.6569586E-02 ( -22.40%)
   displ. norm   :     0.1494172 α      lambda       -0.3026468E-02
   maximum displ.:     0.0964767 α      in ANC's #11, #9, #15, ...

........................................................................
.............................. CYCLE    3 ..............................
........................................................................
   1    -21.7252034 -0.217252E+02  0.259E-01    2.81       0.0  T
   2    -21.7252334 -0.299940E-04  0.159E-01    2.81       1.0  T
   3    -21.7252094  0.239947E-04  0.675E-02    2.81       1.0  T
   4    -21.7252409 -0.315230E-04  0.232E-02    2.80       1.2  T
   5    -21.7252438 -0.291314E-05  0.794E-03    2.81       3.6  T
   6    -21.7252440 -0.191550E-06  0.341E-03    2.80       8.5  T
   7    -21.7252440 -0.229705E-07  0.164E-03    2.80      17.6  T
     SCC iter.                  ...        0 min,  0.002 sec
     gradient                   ...        0 min,  0.001 sec
 * total energy  :   -21.5154691 Eh     change       -0.1858217E-02 Eh
   gradient norm :     0.0105861 Eh/α   predicted    -0.1547017E-02 ( -16.75%)
   displ. norm   :     0.1499648 α      lambda       -0.8543758E-03
   maximum displ.:     0.1150820 α      in ANC's #11, #9, #12, ...

........................................................................
.............................. CYCLE    4 ..............................
........................................................................
   1    -21.7256258 -0.217256E+02  0.285E-01    2.82       0.0  T
   2    -21.7256350 -0.919800E-05  0.177E-01    2.82       1.0  T
   3    -21.7256232  0.117697E-04  0.433E-02    2.82       1.0  T
   4    -21.7256403 -0.170549E-04  0.108E-02    2.81       2.7  T
   5    -21.7256407 -0.385888E-06  0.460E-03    2.82       6.3  T
   6    -21.7256407 -0.295662E-07  0.219E-03    2.81      13.2  T
   7    -21.7256407 -0.954587E-08  0.744E-04    2.82      38.8  T
     SCC iter.                  ...        0 min,  0.002 sec
     gradient                   ...        0 min,  0.001 sec
 * total energy  :   -21.5159782 Eh     change       -0.5091074E-03 Eh
   gradient norm :     0.0110570 Eh/α   predicted    -0.4367946E-03 ( -14.20%)
   displ. norm   :     0.2218424 α      lambda       -0.9128529E-03
   maximum displ.:     0.1822281 α      in ANC's #11, #9, #2, ...

........................................................................
.............................. CYCLE    5 ..............................
........................................................................
   1    -21.7233678 -0.217234E+02  0.441E-01    2.84       0.0  T
   2    -21.7233804 -0.126244E-04  0.274E-01    2.84       1.0  T
   3    -21.7233591  0.213425E-04  0.562E-02    2.84       1.0  T
   4    -21.7233894 -0.303628E-04  0.105E-02    2.83       2.7  T
   5    -21.7233896 -0.126542E-06  0.485E-03    2.84       6.0  T
   6    -21.7233896 -0.336069E-07  0.210E-03    2.84      13.7  T
   7    -21.7233896 -0.100994E-07  0.407E-04    2.84      70.8  T
     SCC iter.                  ...        0 min,  0.002 sec
     gradient                   ...        0 min,  0.001 sec
 * total energy  :   -21.5163313 Eh     change       -0.3531352E-03 Eh
   gradient norm :     0.0273785 Eh/α   predicted    -0.4788890E-03 (  35.61%)
   displ. norm   :     0.0598947 α      lambda       -0.6183016E-03
   maximum displ.:     0.0300691 α      in ANC's #2, #10, #18, ...

........................................................................
.............................. CYCLE    6 ..............................
........................................................................
   1    -21.7252855 -0.217253E+02  0.799E-02    2.84       0.0  T
   2    -21.7252886 -0.306077E-05  0.489E-02    2.84       1.0  T
   3    -21.7252880  0.554155E-06  0.170E-02    2.84       1.7  T
   4    -21.7252895 -0.142780E-05  0.747E-03    2.84       3.9  T
   5    -21.7252897 -0.260961E-06  0.327E-03    2.84       8.8  T
   6    -21.7252898 -0.378806E-07  0.137E-03    2.84      21.1  T
     SCC iter.                  ...        0 min,  0.002 sec
     gradient                   ...        0 min,  0.001 sec
 * total energy  :   -21.5167853 Eh     change       -0.4539321E-03 Eh
   gradient norm :     0.0164241 Eh/α   predicted    -0.3102607E-03 ( -31.65%)
   displ. norm   :     0.2214168 α      lambda       -0.1049363E-02
   maximum displ.:     0.1183692 α      in ANC's #11, #3, #2, ...

........................................................................
.............................. CYCLE    7 ..............................
........................................................................
   1    -21.7267266 -0.217267E+02  0.409E-01    2.85       0.0  T
   2    -21.7267706 -0.439686E-04  0.254E-01    2.84       1.0  T
   3    -21.7267869 -0.162863E-04  0.360E-02    2.85       1.0  T
   4    -21.7267894 -0.247251E-05  0.200E-02    2.85       1.4  T
   5    -21.7267906 -0.127323E-05  0.118E-02    2.85       2.4  T
   6    -21.7267911 -0.433357E-06  0.623E-03    2.85       4.6  T
   7    -21.7267912 -0.173578E-06  0.218E-03    2.85      13.2  T
   8    -21.7267913 -0.200379E-07  0.122E-03    2.85      23.8  T
     SCC iter.                  ...        0 min,  0.003 sec
     gradient                   ...        0 min,  0.087 sec
 * total energy  :   -21.5169030 Eh     change       -0.1177560E-03 Eh
   gradient norm :     0.0284563 Eh/α   predicted    -0.5504027E-03 ( 367.41%)
   displ. norm   :     0.3223317 α      lambda       -0.2088748E-02
   maximum displ.:     0.2019156 α      in ANC's #11, #3, #2, ...

........................................................................
.............................. CYCLE    8 ..............................
........................................................................
   1    -21.7242647 -0.217243E+02  0.617E-01    2.87       0.0  T
   2    -21.7243664 -0.101699E-03  0.383E-01    2.85       1.0  T
   3    -21.7241517  0.214694E-03  0.183E-01    2.89       1.0  T
   4    -21.7244278 -0.276160E-03  0.354E-02    2.86       1.0  T
   5    -21.7244326 -0.471572E-05  0.163E-02    2.86       1.8  T
   6    -21.7244330 -0.401350E-06  0.882E-03    2.86       3.3  T
   7    -21.7244332 -0.275579E-06  0.276E-03    2.86      10.4  T
   8    -21.7244333 -0.325953E-07  0.173E-03    2.86      16.7  T
     SCC iter.                  ...        0 min,  0.003 sec
     gradient                   ...        0 min,  0.002 sec
 * total energy  :   -21.5169565 Eh     change       -0.5347855E-04 Eh
   gradient norm :     0.0396385 Eh/α   predicted    -0.1152882E-02 (2055.78%)
   displ. norm   :     0.1798105 α      lambda       -0.2242786E-02
   maximum displ.:     0.1083131 α      in ANC's #11, #3, #5, ...

........................................................................
.............................. CYCLE    9 ..............................
........................................................................
   1    -21.7291874 -0.217292E+02  0.325E-01    2.84       0.0  T
   2    -21.7292256 -0.382319E-04  0.199E-01    2.85       1.0  T
   3    -21.7291923  0.333289E-04  0.801E-02    2.83       1.0  T
   4    -21.7292376 -0.453144E-04  0.241E-02    2.85       1.2  T
   5    -21.7292408 -0.318859E-05  0.958E-03    2.85       3.0  T
   6    -21.7292410 -0.187535E-06  0.520E-03    2.85       5.6  T
   7    -21.7292410 -0.751894E-07  0.179E-03    2.85      16.1  T
     SCC iter.                  ...        0 min,  0.002 sec
     gradient                   ...        0 min,  0.001 sec
 * total energy  :   -21.5177804 Eh     change       -0.8238839E-03 Eh
   gradient norm :     0.0066333 Eh/α   predicted    -0.1157649E-02 (  40.51%)
   displ. norm   :     0.2061604 α      lambda       -0.6334538E-03
   maximum displ.:     0.1619165 α      in ANC's #11, #2, #4, ...

........................................................................
.............................. CYCLE   10 ..............................
........................................................................
   1    -21.7236037 -0.217236E+02  0.378E-01    2.86       0.0  T
   2    -21.7236152 -0.115248E-04  0.232E-01    2.85       1.0  T
   3    -21.7235822  0.330243E-04  0.648E-02    2.86       1.0  T
   4    -21.7236220 -0.398277E-04  0.101E-02    2.85       2.9  T
   5    -21.7236223 -0.325350E-06  0.393E-03    2.85       7.3  T
   6    -21.7236223 -0.170542E-07  0.154E-03    2.85      18.7  T
   7    -21.7236223 -0.372312E-08  0.644E-04    2.85      44.9  T
     SCC iter.                  ...        0 min,  0.088 sec
     gradient                   ...        0 min,  0.001 sec
 * total energy  :   -21.5176300 Eh     change        0.1504357E-03 Eh
   gradient norm :     0.0312171 Eh/α   predicted    -0.3301879E-03 (-319.49%)
   displ. norm   :     0.0719769 α      lambda       -0.1064849E-02
   maximum displ.:     0.0390705 α      in ANC's #3, #10, #2, ...

........................................................................
.............................. CYCLE   11 ..............................
........................................................................
   1    -21.7279073 -0.217279E+02  0.125E-01    2.85       0.0  T
   2    -21.7279164 -0.914563E-05  0.755E-02    2.85       1.0  T
   3    -21.7279135  0.294797E-05  0.316E-02    2.85       1.0  T
   4    -21.7279193 -0.587107E-05  0.128E-02    2.85       2.3  T
   5    -21.7279201 -0.766163E-06  0.424E-03    2.85       6.8  T
   6    -21.7279201 -0.258575E-07  0.212E-03    2.85      13.6  T
     SCC iter.                  ...        0 min,  0.002 sec
     gradient                   ...        0 min,  0.001 sec
 * total energy  :   -21.5182417 Eh     change       -0.6117521E-03 Eh
   gradient norm :     0.0086191 Eh/α   predicted    -0.5351815E-03 ( -12.52%)
   displ. norm   :     0.1611911 α      lambda       -0.3290850E-03
   maximum displ.:     0.1080207 α      in ANC's #2, #11, #4, ...

........................................................................
.............................. CYCLE   12 ..............................
........................................................................
   1    -21.7281545 -0.217282E+02  0.226E-01    2.86       0.0  T
   2    -21.7281578 -0.335960E-05  0.139E-01    2.85       1.0  T
   3    -21.7281279  0.299472E-04  0.601E-02    2.86       1.0  T
   4    -21.7281617 -0.337862E-04  0.523E-03    2.85       5.5  T
   5    -21.7281618 -0.875307E-07  0.283E-03    2.85      10.2  T
   6    -21.7281618 -0.494956E-08  0.114E-03    2.85      25.3  T
     SCC iter.                  ...        0 min,  0.002 sec
     gradient                   ...        0 min,  0.001 sec
 * total energy  :   -21.5185113 Eh     change       -0.2695542E-03 Eh
   gradient norm :     0.0089788 Eh/α   predicted    -0.1688188E-03 ( -37.37%)
   displ. norm   :     0.3651594 α      lambda       -0.6234738E-03
   maximum displ.:     0.2512166 α      in ANC's #2, #11, #4, ...

........................................................................
.............................. CYCLE   13 ..............................
........................................................................
   1    -21.7262666 -0.217263E+02  0.498E-01    2.86       0.0  T
   2    -21.7262803 -0.136486E-04  0.305E-01    2.84       1.0  T
   3    -21.7261648  0.115452E-03  0.116E-01    2.87       1.0  T
   4    -21.7262946 -0.129823E-03  0.974E-03    2.85       3.0  T
   5    -21.7262950 -0.328524E-06  0.520E-03    2.85       5.6  T
   6    -21.7262950 -0.695535E-08  0.186E-03    2.85      15.5  T
   7    -21.7262950 -0.172058E-07  0.528E-04    2.85      54.6  T
     SCC iter.                  ...        0 min,  0.003 sec
     gradient                   ...        0 min,  0.001 sec
 * total energy  :   -21.5188715 Eh     change       -0.3601916E-03 Eh
   gradient norm :     0.0156107 Eh/α   predicted    -0.3533006E-03 (  -1.91%)
   displ. norm   :     0.1360390 α      lambda       -0.3857550E-03
   maximum displ.:     0.1074447 α      in ANC's #2, #4, #24, ...

........................................................................
.............................. CYCLE   14 ..............................
........................................................................
   1    -21.7292771 -0.217293E+02  0.142E-01    2.84       0.0  T
   2    -21.7292809 -0.381711E-05  0.860E-02    2.84       1.0  T
   3    -21.7292808  0.158509E-06  0.160E-02    2.84       1.8  T
   4    -21.7292823 -0.149415E-05  0.821E-03    2.84       3.5  T
   5    -21.7292826 -0.332425E-06  0.259E-03    2.84      11.1  T
   6    -21.7292826 -0.957642E-08  0.118E-03    2.84      24.5  T
     SCC iter.                  ...        0 min,  0.002 sec
     gradient                   ...        0 min,  0.001 sec
 * total energy  :   -21.5190487 Eh     change       -0.1772647E-03 Eh
   gradient norm :     0.0064603 Eh/α   predicted    -0.1964466E-03 (  10.82%)
   displ. norm   :     0.2049561 α      lambda       -0.1805003E-03
   maximum displ.:     0.1539917 α      in ANC's #2, #11, #4, ...

........................................................................
.............................. CYCLE   15 ..............................
........................................................................
   1    -21.7282099 -0.217282E+02  0.257E-01    2.85       0.0  T
   2    -21.7282132 -0.335602E-05  0.157E-01    2.85       1.0  T
   3    -21.7282032  0.100585E-04  0.362E-02    2.86       1.0  T
   4    -21.7282155 -0.123422E-04  0.570E-03    2.85       5.1  T
   5    -21.7282156 -0.104975E-06  0.312E-03    2.85       9.3  T
   6    -21.7282156 -0.113822E-07  0.115E-03    2.85      25.2  T
   7    -21.7282156 -0.486335E-08  0.375E-04    2.85      77.1  T
     SCC iter.                  ...        0 min,  0.091 sec
     gradient                   ...        0 min,  0.001 sec
 * total energy  :   -21.5191543 Eh     change       -0.1055953E-03 Eh
   gradient norm :     0.0060478 Eh/α   predicted    -0.9404022E-04 ( -10.94%)
   displ. norm   :     0.0896498 α      lambda       -0.7176938E-04
   maximum displ.:     0.0710977 α      in ANC's #2, #4, #24, ...

........................................................................
.............................. CYCLE   16 ..............................
........................................................................
   1    -21.7292786 -0.217293E+02  0.860E-02    2.86       0.0  T
   2    -21.7292790 -0.413861E-06  0.523E-02    2.86       1.0  T
   3    -21.7292781  0.886791E-06  0.105E-02    2.86       2.8  T
   4    -21.7292792 -0.111766E-05  0.272E-03    2.86      10.6  T
   5    -21.7292792 -0.350198E-07  0.125E-03    2.86      23.2  T
     SCC iter.                  ...        0 min,  0.002 sec
     gradient                   ...        0 min,  0.001 sec
 * total energy  :   -21.5192018 Eh     change       -0.4747011E-04 Eh
   gradient norm :     0.0041737 Eh/α   predicted    -0.3617520E-04 ( -23.79%)
   displ. norm   :     0.1458447 α      lambda       -0.7122252E-04
   maximum displ.:     0.1130223 α      in ANC's #2, #4, #1, ...

........................................................................
.............................. CYCLE   17 ..............................
........................................................................
   1    -21.7298302 -0.217298E+02  0.143E-01    2.86       0.0  T
   2    -21.7298323 -0.214046E-05  0.876E-02    2.86       1.0  T
   3    -21.7298317  0.561300E-06  0.139E-02    2.86       2.1  T
   4    -21.7298331 -0.139896E-05  0.581E-03    2.86       5.0  T
   5    -21.7298333 -0.190249E-06  0.265E-03    2.86      10.9  T
   6    -21.7298333 -0.958579E-08  0.951E-04    2.86      30.3  T
     SCC iter.                  ...        0 min,  0.092 sec
     gradient                   ...        0 min,  0.001 sec
 * total energy  :   -21.5192385 Eh     change       -0.3673427E-04 Eh
   gradient norm :     0.0037655 Eh/α   predicted    -0.3637013E-04 (  -0.99%)
   displ. norm   :     0.2050624 α      lambda       -0.6474245E-04
   maximum displ.:     0.1537475 α      in ANC's #2, #4, #1, ...

........................................................................
.............................. CYCLE   18 ..............................
........................................................................
   1    -21.7284724 -0.217285E+02  0.211E-01    2.86       0.0  T
   2    -21.7284778 -0.536172E-05  0.129E-01    2.86       1.0  T
   3    -21.7284794 -0.161505E-05  0.123E-02    2.86       2.3  T
   4    -21.7284797 -0.297816E-06  0.818E-03    2.86       3.5  T
   5    -21.7284801 -0.358834E-06  0.425E-03    2.86       6.8  T
   6    -21.7284801 -0.450897E-07  0.117E-03    2.86      24.6  T
   7    -21.7284801 -0.229021E-08  0.328E-04    2.86      88.1  T
   8    -21.7284801 -0.271697E-09  0.123E-04    2.86     234.5  T
     SCC iter.                  ...        0 min,  0.002 sec
     gradient                   ...        0 min,  0.001 sec
 * total energy  :   -21.5192475 Eh     change       -0.8928929E-05 Eh
   gradient norm :     0.0072897 Eh/α   predicted    -0.3373577E-04 ( 277.83%)
   displ. norm   :     0.0553121 α      lambda       -0.5671391E-04
   maximum displ.:     0.0374647 α      in ANC's #2, #4, #11, ...

........................................................................
.............................. CYCLE   19 ..............................
........................................................................
   1    -21.7305369 -0.217305E+02  0.727E-02    2.86       0.0  T
   2    -21.7305385 -0.160568E-05  0.440E-02    2.86       1.0  T
   3    -21.7305365  0.202562E-05  0.169E-02    2.86       1.7  T
   4    -21.7305388 -0.234535E-05  0.462E-03    2.86       6.3  T
   5    -21.7305390 -0.148150E-06  0.138E-03    2.86      20.9  T
   6    -21.7305390 -0.287796E-08  0.512E-04    2.86      56.3  T
     SCC iter.                  ...        0 min,  0.002 sec
     gradient                   ...        0 min,  0.091 sec
 * total energy  :   -21.5192713 Eh     change       -0.2387955E-04 Eh
   gradient norm :     0.0037281 Eh/α   predicted    -0.2844485E-04 (  19.12%)
   displ. norm   :     0.0575572 α      lambda       -0.2310540E-04
   maximum displ.:     0.0395050 α      in ANC's #2, #1, #6, ...

........................................................................
.............................. CYCLE   20 ..............................
........................................................................
   1    -21.7302640 -0.217303E+02  0.601E-02    2.87       0.0  T
   2    -21.7302646 -0.574482E-06  0.370E-02    2.86       1.0  T
   3    -21.7302645  0.378543E-07  0.681E-03    2.87       4.2  T
   4    -21.7302648 -0.281407E-06  0.313E-03    2.86       9.2  T
   5    -21.7302649 -0.459715E-07  0.144E-03    2.86      20.0  T
   6    -21.7302649 -0.418692E-08  0.667E-04    2.86      43.3  T
   7    -21.7302649 -0.139535E-08  0.170E-04    2.86     169.4  T
     SCC iter.                  ...        0 min,  0.002 sec
     gradient                   ...        0 min,  0.001 sec
 * total energy  :   -21.5192824 Eh     change       -0.1108248E-04 Eh
   gradient norm :     0.0016450 Eh/α   predicted    -0.1159237E-04 (   4.60%)
   displ. norm   :     0.1177533 α      lambda       -0.1555303E-04
   maximum displ.:     0.0715520 α      in ANC's #2, #1, #6, ...
 * RMSD in coord.:     0.6626806 α      energy gain  -0.1413768E-01 Eh

generating ANC from model Hessian ...
Using Lindh-Hessian (1995)
 Shifting diagonal of input Hessian by   9.783398998623270E-003
 Lowest  eigenvalues of input Hessian
   -0.000000   -0.000000   -0.000000   -0.000000    0.000000    0.000000
    0.010000    0.010064    0.010152    0.010468    0.010921    0.011242
    0.019479    0.026719    0.037841    0.043836    0.045303    0.082910
 Highest eigenvalues
    1.251988    1.252296    1.364459    1.608273    1.878018    2.268850
 

........................................................................
.............................. CYCLE   21 ..............................
........................................................................
   1    -21.7299452 -0.217299E+02  0.113E-01    2.86       0.0  T
   2    -21.7299468 -0.155924E-05  0.703E-02    2.86       1.0  T
   3    -21.7299473 -0.512197E-06  0.863E-03    2.86       3.3  T
   4    -21.7299477 -0.358420E-06  0.515E-03    2.86       5.6  T
   5    -21.7299478 -0.113342E-06  0.239E-03    2.86      12.1  T
   6    -21.7299478 -0.836641E-08  0.430E-04    2.86      67.2  T
   7    -21.7299478 -0.646629E-09  0.179E-04    2.86     161.1  T
     SCC iter.                  ...        0 min,  0.002 sec
     gradient                   ...        0 min,  0.091 sec
 * total energy  :   -21.5193007 Eh     change       -0.1829989E-04 Eh
   gradient norm :     0.0017319 Eh/α   predicted     0.0000000E+00 (-100.00%)
   displ. norm   :     0.0809094 α      lambda       -0.3877582E-04
   maximum displ.:     0.0538301 α      in ANC's #6, #3, #2, ...

........................................................................
.............................. CYCLE   22 ..............................
........................................................................
   1    -21.7299870 -0.217300E+02  0.214E-01    2.86       0.0  T
   2    -21.7299961 -0.908542E-05  0.138E-01    2.87       1.0  T
   3    -21.7299964 -0.246054E-06  0.266E-02    2.86       1.1  T
   4    -21.7300030 -0.664935E-05  0.658E-03    2.86       4.4  T
   5    -21.7300030 -0.248170E-07  0.162E-03    2.86      17.8  T
   6    -21.7300030 -0.474456E-08  0.507E-04    2.86      56.9  T
   7    -21.7300030 -0.745210E-09  0.321E-04    2.86      89.8  T
     SCC iter.                  ...        0 min,  0.002 sec
     gradient                   ...        0 min,  0.001 sec
 * total energy  :   -21.5193460 Eh     change       -0.4526061E-04 Eh
   gradient norm :     0.0019884 Eh/α   predicted    -0.1944395E-04 ( -57.04%)
   displ. norm   :     0.1703488 α      lambda       -0.6412045E-04
   maximum displ.:     0.1072931 α      in ANC's #6, #3, #2, ...

........................................................................
.............................. CYCLE   23 ..............................
........................................................................
   1    -21.7285295 -0.217285E+02  0.435E-01    2.86       0.0  T
   2    -21.7285661 -0.365506E-04  0.282E-01    2.86       1.0  T
   3    -21.7285849 -0.188652E-04  0.328E-02    2.86       1.0  T
   4    -21.7285929 -0.795162E-05  0.136E-02    2.86       2.1  T
   5    -21.7285931 -0.263159E-06  0.254E-03    2.86      11.4  T
   6    -21.7285931 -0.135934E-07  0.106E-03    2.86      27.3  T
   7    -21.7285931 -0.368813E-08  0.611E-04    2.86      47.2  T
   8    -21.7285932 -0.181821E-08  0.237E-04    2.86     121.7  T
     SCC iter.                  ...        0 min,  0.002 sec
     gradient                   ...        0 min,  0.001 sec
 * total energy  :   -21.5192943 Eh     change        0.5171706E-04 Eh
   gradient norm :     0.0131407 Eh/α   predicted    -0.3247324E-04 (-162.79%)
   displ. norm   :     0.0598008 α      lambda       -0.1662846E-03
   maximum displ.:     0.0428176 α      in ANC's #6, #3, #5, ...

........................................................................
.............................. CYCLE   24 ..............................
........................................................................
   1    -21.7297437 -0.217297E+02  0.173E-01    2.86       0.0  T
   2    -21.7297498 -0.610098E-05  0.112E-01    2.86       1.0  T
   3    -21.7297537 -0.396781E-05  0.877E-03    2.86       3.3  T
   4    -21.7297538 -0.130906E-06  0.592E-03    2.86       4.9  T
   5    -21.7297541 -0.206771E-06  0.165E-03    2.86      17.5  T
   6    -21.7297541 -0.462950E-08  0.504E-04    2.86      57.3  T
     SCC iter.                  ...        0 min,  0.002 sec
     gradient                   ...        0 min,  0.001 sec
 * total energy  :   -21.5193887 Eh     change       -0.9438940E-04 Eh
   gradient norm :     0.0044484 Eh/α   predicted    -0.8343936E-04 ( -11.60%)
   displ. norm   :     0.0446795 α      lambda       -0.3529095E-04
   maximum displ.:     0.0263120 α      in ANC's #1, #3, #2, ...

........................................................................
.............................. CYCLE   25 ..............................
........................................................................
   1    -21.7298943 -0.217299E+02  0.555E-02    2.86       0.0  T
   2    -21.7298946 -0.314567E-06  0.345E-02    2.86       1.0  T
   3    -21.7298947 -0.145097E-06  0.360E-03    2.86       8.0  T
   4    -21.7298948 -0.476709E-07  0.211E-03    2.86      13.7  T
   5    -21.7298948 -0.789904E-08  0.929E-04    2.86      31.1  T
     SCC iter.                  ...        0 min,  0.001 sec
     gradient                   ...        0 min,  0.001 sec
 * total energy  :   -21.5194131 Eh     change       -0.2449394E-04 Eh
   gradient norm :     0.0023294 Eh/α   predicted    -0.1768276E-04 ( -27.81%)
   displ. norm   :     0.0873407 α      lambda       -0.3725024E-04
   maximum displ.:     0.0513206 α      in ANC's #1, #3, #2, ...

........................................................................
.............................. CYCLE   26 ..............................
........................................................................
   1    -21.7301880 -0.217302E+02  0.113E-01    2.86       0.0  T
   2    -21.7301895 -0.145848E-05  0.706E-02    2.86       1.0  T
   3    -21.7301901 -0.605027E-06  0.849E-03    2.86       3.4  T
   4    -21.7301905 -0.408476E-06  0.451E-03    2.86       6.4  T
   5    -21.7301905 -0.469404E-07  0.914E-04    2.86      31.6  T
   6    -21.7301905 -0.101063E-08  0.326E-04    2.86      88.5  T
     SCC iter.                  ...        0 min,  0.092 sec
     gradient                   ...        0 min,  0.001 sec
 * total energy  :   -21.5194441 Eh     change       -0.3100296E-04 Eh
   gradient norm :     0.0013454 Eh/α   predicted    -0.1876678E-04 ( -39.47%)
   displ. norm   :     0.4799490 α      lambda       -0.1087459E-03
   maximum displ.:     0.2622100 α      in ANC's #1, #3, #2, ...

........................................................................
.............................. CYCLE   27 ..............................
........................................................................
   1    -21.7269996 -0.217270E+02  0.661E-01    2.85       0.0  T
   2    -21.7270633 -0.637087E-04  0.421E-01    2.85       1.0  T
   3    -21.7271090 -0.456981E-04  0.343E-02    2.85       1.0  T
   4    -21.7271074  0.160471E-05  0.214E-02    2.85       1.3  T
   5    -21.7271100 -0.252203E-05  0.656E-03    2.85       4.4  T
   6    -21.7271103 -0.320737E-06  0.173E-03    2.85      16.7  T
   7    -21.7271103 -0.136829E-07  0.909E-04    2.85      31.8  T
   8    -21.7271103 -0.201371E-08  0.388E-04    2.85      74.4  T
     SCC iter.                  ...        0 min,  0.001 sec
     gradient                   ...        0 min,  0.001 sec
 * total energy  :   -21.5195069 Eh     change       -0.6271007E-04 Eh
   gradient norm :     0.0119728 Eh/α   predicted    -0.5994290E-04 (  -4.41%)
   displ. norm   :     0.0622232 α      lambda       -0.1514246E-03
   maximum displ.:     0.0372214 α      in ANC's #3, #2, #6, ...

........................................................................
.............................. CYCLE   28 ..............................
........................................................................
   1    -21.7293057 -0.217293E+02  0.133E-01    2.85       0.0  T
   2    -21.7293097 -0.401910E-05  0.858E-02    2.85       1.0  T
   3    -21.7293086  0.111213E-05  0.200E-02    2.85       1.4  T
   4    -21.7293122 -0.364064E-05  0.636E-03    2.85       4.5  T
   5    -21.7293123 -0.136643E-06  0.279E-03    2.85      10.4  T
   6    -21.7293124 -0.189995E-07  0.121E-03    2.85      23.9  T
     SCC iter.                  ...        0 min,  0.001 sec
     gradient                   ...        0 min,  0.001 sec
 * total energy  :   -21.5195823 Eh     change       -0.7548620E-04 Eh
   gradient norm :     0.0032895 Eh/α   predicted    -0.7600532E-04 (   0.69%)
   displ. norm   :     0.1621873 α      lambda       -0.6756333E-04
   maximum displ.:     0.1038250 α      in ANC's #1, #4, #3, ...

........................................................................
.............................. CYCLE   29 ..............................
........................................................................
   1    -21.7294787 -0.217295E+02  0.182E-01    2.85       0.0  T
   2    -21.7294828 -0.404423E-05  0.114E-01    2.85       1.0  T
   3    -21.7294851 -0.229642E-05  0.121E-02    2.85       2.4  T
   4    -21.7294856 -0.545881E-06  0.764E-03    2.85       3.8  T
   5    -21.7294857 -0.147571E-06  0.266E-03    2.85      10.8  T
   6    -21.7294858 -0.400518E-07  0.512E-04    2.85      56.4  T
   7    -21.7294858 -0.797691E-09  0.221E-04    2.85     130.6  T
     SCC iter.                  ...        0 min,  0.001 sec
     gradient                   ...        0 min,  0.001 sec
 * total energy  :   -21.5196414 Eh     change       -0.5902231E-04 Eh
   gradient norm :     0.0035720 Eh/α   predicted    -0.3467033E-04 ( -41.26%)
   displ. norm   :     0.5496635 α      lambda       -0.2023210E-03
   maximum displ.:     0.3514500 α      in ANC's #1, #4, #3, ...

........................................................................
.............................. CYCLE   30 ..............................
........................................................................
   1    -21.7264834 -0.217265E+02  0.587E-01    2.85       0.0  T
   2    -21.7265283 -0.448525E-04  0.369E-01    2.84       1.0  T
   3    -21.7265579 -0.296463E-04  0.356E-02    2.85       1.0  T
   4    -21.7265587 -0.783567E-06  0.250E-02    2.84       1.2  T
   5    -21.7265609 -0.221379E-05  0.834E-03    2.85       3.5  T
   6    -21.7265613 -0.374804E-06  0.193E-03    2.85      15.0  T
   7    -21.7265613 -0.187568E-07  0.860E-04    2.85      33.6  T
   8    -21.7265613 -0.167668E-08  0.400E-04    2.85      72.1  T
     SCC iter.                  ...        0 min,  0.003 sec
     gradient                   ...        0 min,  0.001 sec
 * total energy  :   -21.5197118 Eh     change       -0.7040157E-04 Eh
   gradient norm :     0.0153691 Eh/α   predicted    -0.1317313E-03 (  87.11%)
   displ. norm   :     0.0634557 α      lambda       -0.2646337E-03
   maximum displ.:     0.0481814 α      in ANC's #2, #6, #3, ...

........................................................................
.............................. CYCLE   31 ..............................
........................................................................
   1    -21.7300421 -0.217300E+02  0.135E-01    2.86       0.0  T
   2    -21.7300465 -0.436676E-05  0.871E-02    2.86       1.0  T
   3    -21.7300384  0.803928E-05  0.334E-02    2.85       1.0  T
   4    -21.7300494 -0.109473E-04  0.590E-03    2.86       4.9  T
   5    -21.7300495 -0.113422E-06  0.254E-03    2.86      11.4  T
   6    -21.7300495 -0.413737E-08  0.808E-04    2.86      35.7  T
     SCC iter.                  ...        0 min,  0.091 sec
     gradient                   ...        0 min,  0.002 sec
 * total energy  :   -21.5198413 Eh     change       -0.1294929E-03 Eh
   gradient norm :     0.0040255 Eh/α   predicted    -0.1328501E-03 (   2.59%)
   displ. norm   :     0.2855570 α      lambda       -0.1422130E-03
   maximum displ.:     0.1969266 α      in ANC's #1, #4, #3, ...

........................................................................
.............................. CYCLE   32 ..............................
........................................................................
   1    -21.7294050 -0.217294E+02  0.256E-01    2.86       0.0  T
   2    -21.7294120 -0.699521E-05  0.158E-01    2.85       1.0  T
   3    -21.7294165 -0.455372E-05  0.132E-02    2.86       2.2  T
   4    -21.7294166 -0.105306E-06  0.778E-03    2.85       3.7  T
   5    -21.7294166  0.143961E-07  0.391E-03    2.85       7.4  T
   6    -21.7294167 -0.103287E-06  0.105E-03    2.85      27.6  T
   7    -21.7294167 -0.679808E-08  0.411E-04    2.85      70.2  T
     SCC iter.                  ...        0 min,  0.001 sec
     gradient                   ...        0 min,  0.001 sec
 * total energy  :   -21.5199646 Eh     change       -0.1233117E-03 Eh
   gradient norm :     0.0037674 Eh/α   predicted    -0.7690487E-04 ( -37.63%)
   displ. norm   :     0.7833101 α      lambda       -0.3171470E-03
   maximum displ.:     0.5415120 α      in ANC's #1, #4, #3, ...

........................................................................
.............................. CYCLE   33 ..............................
........................................................................
   1    -21.7223346 -0.217223E+02  0.688E-01    2.84       0.0  T
   2    -21.7223915 -0.568245E-04  0.424E-01    2.82       1.0  T
   3    -21.7224087 -0.172716E-04  0.577E-02    2.84       1.0  T
   4    -21.7224269 -0.181283E-04  0.327E-02    2.83       1.0  T
   5    -21.7224304 -0.355401E-05  0.146E-02    2.83       2.0  T
   6    -21.7224308 -0.391373E-06  0.246E-03    2.83      11.7  T
   7    -21.7224308 -0.279879E-07  0.105E-03    2.83      27.5  T
   8    -21.7224308 -0.321188E-08  0.381E-04    2.83      75.7  T
   9    -21.7224308 -0.136456E-09  0.805E-05    2.83     358.5  T
     SCC iter.                  ...        0 min,  0.002 sec
     gradient                   ...        0 min,  0.091 sec
 * total energy  :   -21.5199126 Eh     change        0.5201799E-04 Eh
   gradient norm :     0.0233228 Eh/α   predicted    -0.2559070E-03 (-591.96%)
   displ. norm   :     0.2498391 α      lambda       -0.6756813E-03
   maximum displ.:     0.1488781 α      in ANC's #1, #4, #2, ...

........................................................................
.............................. CYCLE   34 ..............................
........................................................................
   1    -21.7299573 -0.217300E+02  0.250E-01    2.86       0.0  T
   2    -21.7299711 -0.138103E-04  0.156E-01    2.87       1.0  T
   3    -21.7299484  0.226211E-04  0.566E-02    2.85       1.0  T
   4    -21.7299792 -0.307144E-04  0.142E-02    2.86       2.0  T
   5    -21.7299798 -0.650799E-06  0.711E-03    2.86       4.1  T
   6    -21.7299798 -0.265313E-07  0.137E-03    2.86      21.0  T
   7    -21.7299798 -0.527005E-08  0.612E-04    2.86      47.2  T
     SCC iter.                  ...        0 min,  0.002 sec
     gradient                   ...        0 min,  0.001 sec
 * total energy  :   -21.5201894 Eh     change       -0.2768260E-03 Eh
   gradient norm :     0.0050647 Eh/α   predicted    -0.3589293E-03 (  29.66%)
   displ. norm   :     0.1985330 α      lambda       -0.1229044E-03
   maximum displ.:     0.1486264 α      in ANC's #1, #4, #3, ...

........................................................................
.............................. CYCLE   35 ..............................
........................................................................
   1    -21.7295848 -0.217296E+02  0.170E-01    2.85       0.0  T
   2    -21.7295886 -0.373784E-05  0.103E-01    2.85       1.0  T
   3    -21.7295894 -0.790886E-06  0.131E-02    2.86       2.2  T
   4    -21.7295900 -0.678003E-06  0.784E-03    2.85       3.7  T
   5    -21.7295903 -0.277576E-06  0.403E-03    2.85       7.2  T
   6    -21.7295903 -0.405332E-07  0.145E-03    2.85      19.9  T
   7    -21.7295904 -0.780717E-08  0.499E-04    2.85      57.8  T
     SCC iter.                  ...        0 min,  0.001 sec
     gradient                   ...        0 min,  0.001 sec
 * total energy  :   -21.5202873 Eh     change       -0.9795239E-04 Eh
   gradient norm :     0.0053708 Eh/α   predicted    -0.6387485E-04 ( -34.79%)
   displ. norm   :     0.6932623 α      lambda       -0.3437115E-03
   maximum displ.:     0.5211807 α      in ANC's #1, #3, #4, ...

........................................................................
.............................. CYCLE   36 ..............................
........................................................................
   1    -21.7256160 -0.217256E+02  0.581E-01    2.84       0.0  T
   2    -21.7256556 -0.395696E-04  0.354E-01    2.82       1.0  T
   3    -21.7256719 -0.162868E-04  0.405E-02    2.84       1.0  T
   4    -21.7256785 -0.665749E-05  0.218E-02    2.83       1.3  T
   5    -21.7256790 -0.441257E-06  0.874E-03    2.83       3.3  T
   6    -21.7256791 -0.132127E-06  0.351E-03    2.83       8.2  T
   7    -21.7256792 -0.851610E-07  0.149E-03    2.83      19.4  T
   8    -21.7256792 -0.154880E-07  0.385E-04    2.83      75.1  T
     SCC iter.                  ...        0 min,  0.002 sec
     gradient                   ...        0 min,  0.001 sec
 * total energy  :   -21.5205001 Eh     change       -0.2127792E-03 Eh
   gradient norm :     0.0173050 Eh/α   predicted    -0.2544403E-03 (  19.58%)
   displ. norm   :     0.1793637 α      lambda       -0.2486855E-03
   maximum displ.:     0.1426675 α      in ANC's #1, #3, #4, ...

........................................................................
.............................. CYCLE   37 ..............................
........................................................................
   1    -21.7280525 -0.217281E+02  0.139E-01    2.84       0.0  T
   2    -21.7280549 -0.238141E-05  0.844E-02    2.84       1.0  T
   3    -21.7280442  0.107305E-04  0.353E-02    2.84       1.0  T
   4    -21.7280569 -0.126909E-04  0.723E-03    2.84       4.0  T
   5    -21.7280571 -0.255566E-06  0.373E-03    2.84       7.7  T
   6    -21.7280572 -0.176969E-07  0.788E-04    2.84      36.6  T
   7    -21.7280572 -0.848171E-09  0.225E-04    2.84     128.1  T
     SCC iter.                  ...        0 min,  0.001 sec
     gradient                   ...        0 min,  0.001 sec
 * total energy  :   -21.5207123 Eh     change       -0.2121687E-03 Eh
   gradient norm :     0.0121820 Eh/α   predicted    -0.1283430E-03 ( -39.51%)
   displ. norm   :     0.6010188 α      lambda       -0.5740554E-03
   maximum displ.:     0.4630348 α      in ANC's #1, #3, #4, ...

........................................................................
.............................. CYCLE   38 ..............................
........................................................................
   1    -21.7286059 -0.217286E+02  0.485E-01    2.85       0.0  T
   2    -21.7286277 -0.218246E-04  0.293E-01    2.85       1.0  T
   3    -21.7285557  0.719770E-04  0.916E-02    2.84       1.0  T
   4    -21.7286443 -0.886381E-04  0.217E-02    2.85       1.3  T
   5    -21.7286461 -0.172671E-05  0.124E-02    2.85       2.3  T
   6    -21.7286463 -0.258763E-06  0.248E-03    2.85      11.7  T
   7    -21.7286463 -0.118457E-07  0.692E-04    2.85      41.7  T
     SCC iter.                  ...        0 min,  0.092 sec
     gradient                   ...        0 min,  0.001 sec
 * total energy  :   -21.5211909 Eh     change       -0.4786511E-03 Eh
   gradient norm :     0.0098221 Eh/α   predicted    -0.3907087E-03 ( -18.37%)
   displ. norm   :     0.7152521 α      lambda       -0.8126071E-03
   maximum displ.:     0.5525556 α      in ANC's #1, #3, #4, ...

........................................................................
.............................. CYCLE   39 ..............................
........................................................................
   1    -21.7301698 -0.217302E+02  0.582E-01    2.87       0.0  T
   2    -21.7302014 -0.315438E-04  0.353E-01    2.86       1.0  T
   3    -21.7301637  0.377008E-04  0.767E-02    2.87       1.0  T
   4    -21.7302212 -0.575248E-04  0.253E-02    2.87       1.1  T
   5    -21.7302234 -0.221965E-05  0.153E-02    2.86       1.9  T
   6    -21.7302240 -0.579584E-06  0.205E-03    2.86      14.1  T
   7    -21.7302240 -0.791232E-08  0.802E-04    2.86      36.0  T
     SCC iter.                  ...        0 min,  0.002 sec
     gradient                   ...        0 min,  0.001 sec
 * total energy  :   -21.5219291 Eh     change       -0.7381725E-03 Eh
   gradient norm :     0.0098900 Eh/α   predicted    -0.6141476E-03 ( -16.80%)
   displ. norm   :     0.7019684 α      lambda       -0.1128745E-02
   maximum displ.:     0.4574842 α      in ANC's #1, #3, #5, ...

........................................................................
.............................. CYCLE   40 ..............................
........................................................................
   1    -21.7371775 -0.217372E+02  0.598E-01    2.91       0.0  T
   2    -21.7372220 -0.444561E-04  0.364E-01    2.91       1.0  T
   3    -21.7371442  0.777315E-04  0.993E-02    2.91       1.0  T
   4    -21.7372460 -0.101804E-03  0.279E-02    2.91       1.0  T
   5    -21.7372492 -0.316406E-05  0.161E-02    2.91       1.8  T
   6    -21.7372496 -0.399951E-06  0.382E-03    2.91       7.6  T
   7    -21.7372497 -0.386033E-07  0.101E-03    2.91      28.5  T
   8    -21.7372497 -0.199259E-08  0.375E-04    2.91      77.0  T
     SCC iter.                  ...        0 min,  0.001 sec
     gradient                   ...        0 min,  0.090 sec
 * total energy  :   -21.5225425 Eh     change       -0.6133490E-03 Eh
   gradient norm :     0.0216229 Eh/α   predicted    -0.8424638E-03 (  37.35%)
   displ. norm   :     0.8021429 α      lambda       -0.1498095E-02
   maximum displ.:     0.5600771 α      in ANC's #1, #3, #4, ...

........................................................................
.............................. CYCLE   41 ..............................
........................................................................
   1    -21.7210111 -0.217210E+02  0.688E-01    2.85       0.0  T
   2    -21.7210828 -0.716770E-04  0.421E-01    2.83       1.0  T
   3    -21.7209203  0.162555E-03  0.140E-01    2.86       1.0  T
   4    -21.7211260 -0.205787E-03  0.340E-02    2.83       1.0  T
   5    -21.7211303 -0.425227E-05  0.174E-02    2.84       1.7  T
   6    -21.7211305 -0.176871E-06  0.357E-03    2.84       8.1  T
   7    -21.7211305 -0.420621E-07  0.144E-03    2.84      20.0  T
     SCC iter.                  ...        0 min,  0.002 sec
     gradient                   ...        0 min,  0.001 sec
 * total energy  :   -21.5225936 Eh     change       -0.5117258E-04 Eh
   gradient norm :     0.0291013 Eh/α   predicted    -0.1231022E-02 (2305.63%)
   displ. norm   :     0.3525619 α      lambda       -0.1793133E-02
   maximum displ.:     0.2788182 α      in ANC's #1, #3, #17, ...

........................................................................
.............................. CYCLE   42 ..............................
........................................................................
   1    -21.7308620 -0.217309E+02  0.310E-01    2.84       0.0  T
   2    -21.7308838 -0.217713E-04  0.191E-01    2.83       1.0  T
   3    -21.7308834  0.354453E-06  0.383E-02    2.84       1.0  T
   4    -21.7308921 -0.862616E-05  0.181E-02    2.83       1.6  T
   5    -21.7308936 -0.154313E-05  0.992E-03    2.83       2.9  T
   6    -21.7308938 -0.177511E-06  0.321E-03    2.83       9.0  T
   7    -21.7308938 -0.701033E-07  0.751E-04    2.83      38.4  T
     SCC iter.                  ...        0 min,  0.002 sec
     gradient                   ...        0 min,  0.001 sec
 * total energy  :   -21.5229683 Eh     change       -0.3746638E-03 Eh
   gradient norm :     0.0253422 Eh/α   predicted    -0.1008007E-02 ( 169.04%)
   displ. norm   :     0.4104607 α      lambda       -0.1835330E-02
   maximum displ.:     0.2637610 α      in ANC's #1, #5, #7, ...
 * RMSD in coord.:     1.6572140 α      energy gain  -0.3685872E-02 Eh

generating ANC from model Hessian ...
Using Lindh-Hessian (1995)
 Shifting diagonal of input Hessian by   9.534498389431437E-003
 Lowest  eigenvalues of input Hessian
   -0.000000   -0.000000   -0.000000   -0.000000    0.000000    0.000000
    0.010000    0.010105    0.010570    0.010931    0.011748    0.013560
    0.019590    0.027853    0.037151    0.045151    0.047151    0.085709
 Highest eigenvalues
    1.276778    1.281174    1.401990    1.611123    1.866004    2.392446
 

........................................................................
.............................. CYCLE   43 ..............................
........................................................................
   1    -21.7429660 -0.217430E+02  0.410E-01    2.92       0.0  T
   2    -21.7432887 -0.322650E-03  0.255E-01    3.00       1.0  T
   3    -21.7432078  0.809282E-04  0.180E-01    2.97       1.0  T
   4    -21.7433739 -0.166123E-03  0.527E-02    2.99       1.0  T
   5    -21.7433934 -0.194799E-04  0.109E-02    2.98       2.7  T
   6    -21.7433935 -0.153248E-06  0.586E-03    2.99       4.9  T
   7    -21.7433936 -0.827781E-07  0.243E-03    2.99      11.9  T
   8    -21.7433936 -0.675795E-08  0.385E-04    2.99      75.0  T
   9    -21.7433936 -0.404061E-09  0.199E-04    2.99     145.3  T
     SCC iter.                  ...        0 min,  0.004 sec
     gradient                   ...        0 min,  0.001 sec
 * total energy  :   -21.5204424 Eh     change        0.2525884E-02 Eh
   gradient norm :     0.0917608 Eh/α   predicted     0.0000000E+00 (-100.00%)
   displ. norm   :     0.1423583 α      lambda       -0.5491757E-02
   maximum displ.:     0.0739627 α      in ANC's #5, #2, #12, ...

........................................................................
.............................. CYCLE   44 ..............................
........................................................................
   1    -21.7334750 -0.217335E+02  0.355E-01    2.91       0.0  T
   2    -21.7336196 -0.144600E-03  0.231E-01    2.87       1.0  T
   3    -21.7335164  0.103227E-03  0.159E-01    2.90       1.0  T
   4    -21.7336772 -0.160840E-03  0.386E-02    2.88       1.0  T
   5    -21.7336869 -0.965044E-05  0.970E-03    2.89       3.0  T
   6    -21.7336870 -0.110330E-06  0.517E-03    2.88       5.6  T
   7    -21.7336871 -0.766634E-07  0.193E-03    2.89      14.9  T
     SCC iter.                  ...        0 min,  0.001 sec
     gradient                   ...        0 min,  0.001 sec
 * total energy  :   -21.5234447 Eh     change       -0.3002330E-02 Eh
   gradient norm :     0.0133685 Eh/α   predicted    -0.2801525E-02 (  -6.69%)
   displ. norm   :     0.2110727 α      lambda       -0.9915846E-03
   maximum displ.:     0.1317596 α      in ANC's #5, #2, #7, ...

........................................................................
.............................. CYCLE   45 ..............................
........................................................................
   1    -21.7295999 -0.217296E+02  0.507E-01    2.87       0.0  T
   2    -21.7296444 -0.444552E-04  0.326E-01    2.85       1.0  T
   3    -21.7295741  0.702862E-04  0.947E-02    2.87       1.0  T
   4    -21.7296724 -0.983643E-04  0.179E-02    2.86       1.6  T
   5    -21.7296738 -0.141305E-05  0.843E-03    2.86       3.4  T
   6    -21.7296739 -0.243050E-07  0.127E-03    2.86      22.7  T
   7    -21.7296739 -0.384883E-08  0.471E-04    2.86      61.3  T
     SCC iter.                  ...        0 min,  0.001 sec
     gradient                   ...        0 min,  0.001 sec
 * total energy  :   -21.5236786 Eh     change       -0.2338380E-03 Eh
   gradient norm :     0.0180142 Eh/α   predicted    -0.5178783E-03 ( 121.47%)
   displ. norm   :     0.0893776 α      lambda       -0.5580485E-03
   maximum displ.:     0.0506100 α      in ANC's #1, #2, #12, ...

........................................................................
.............................. CYCLE   46 ..............................
........................................................................
   1    -21.7309377 -0.217309E+02  0.135E-01    2.86       0.0  T
   2    -21.7309400 -0.222997E-05  0.843E-02    2.86       1.0  T
   3    -21.7309415 -0.148596E-05  0.728E-03    2.86       4.0  T
   4    -21.7309415 -0.884436E-07  0.446E-03    2.86       6.5  T
   5    -21.7309416 -0.257628E-07  0.183E-03    2.86      15.8  T
   6    -21.7309416 -0.167531E-07  0.888E-04    2.86      32.5  T
     SCC iter.                  ...        0 min,  0.002 sec
     gradient                   ...        0 min,  0.001 sec
 * total energy  :   -21.5240388 Eh     change       -0.3601973E-03 Eh
   gradient norm :     0.0108909 Eh/α   predicted    -0.2812527E-03 ( -21.92%)
   displ. norm   :     0.1778350 α      lambda       -0.3540894E-03
   maximum displ.:     0.1135640 α      in ANC's #2, #1, #4, ...

........................................................................
.............................. CYCLE   47 ..............................
........................................................................
   1    -21.7311054 -0.217311E+02  0.213E-01    2.86       0.0  T
   2    -21.7311101 -0.465108E-05  0.133E-01    2.86       1.0  T
   3    -21.7311125 -0.245822E-05  0.143E-02    2.86       2.0  T
   4    -21.7311134 -0.909530E-06  0.883E-03    2.86       3.3  T
   5    -21.7311137 -0.231313E-06  0.192E-03    2.86      15.1  T
   6    -21.7311137 -0.193412E-07  0.701E-04    2.86      41.2  T
     SCC iter.                  ...        0 min,  0.001 sec
     gradient                   ...        0 min,  0.091 sec
 * total energy  :   -21.5243255 Eh     change       -0.2867423E-03 Eh
   gradient norm :     0.0096514 Eh/α   predicted    -0.1826461E-03 ( -36.30%)
   displ. norm   :     0.4113116 α      lambda       -0.6743600E-03
   maximum displ.:     0.2547201 α      in ANC's #2, #1, #4, ...

........................................................................
.............................. CYCLE   48 ..............................
........................................................................
   1    -21.7284898 -0.217285E+02  0.530E-01    2.81       0.0  T
   2    -21.7285196 -0.298258E-04  0.333E-01    2.80       1.0  T
   3    -21.7285414 -0.217744E-04  0.263E-02    2.77       1.1  T
   4    -21.7285415 -0.928003E-07  0.137E-02    2.77       2.1  T
   5    -21.7285420 -0.570105E-06  0.301E-03    2.77       9.6  T
   6    -21.7285421 -0.355562E-07  0.173E-03    2.77      16.7  T
   7    -21.7285421 -0.142106E-07  0.996E-04    2.77      29.0  T
     SCC iter.                  ...        0 min,  0.005 sec
     gradient                   ...        0 min,  0.001 sec
 * total energy  :   -21.5247809 Eh     change       -0.4553963E-03 Eh
   gradient norm :     0.0177064 Eh/α   predicted    -0.3942170E-03 ( -13.43%)
   displ. norm   :     0.3371821 α      lambda       -0.7270513E-03
   maximum displ.:     0.2099283 α      in ANC's #2, #1, #4, ...

........................................................................
.............................. CYCLE   49 ..............................
........................................................................
   1    -21.7311207 -0.217311E+02  0.295E-01    2.77       0.0  T
   2    -21.7311430 -0.223294E-04  0.184E-01    2.76       1.0  T
   3    -21.7310773  0.657191E-04  0.886E-02    2.74       1.0  T
   4    -21.7311553 -0.779391E-04  0.176E-02    2.74       1.6  T
   5    -21.7311566 -0.134822E-05  0.848E-03    2.74       3.4  T
   6    -21.7311567 -0.469286E-07  0.238E-03    2.75      12.1  T
   7    -21.7311567 -0.459166E-08  0.828E-04    2.75      34.9  T
     SCC iter.                  ...        0 min,  0.091 sec
     gradient                   ...        0 min,  0.001 sec
 * total energy  :   -21.5251757 Eh     change       -0.3948037E-03 Eh
   gradient norm :     0.0135087 Eh/α   predicted    -0.4048546E-03 (   2.55%)
   displ. norm   :     0.4502556 α      lambda       -0.1062740E-02
   maximum displ.:     0.2897408 α      in ANC's #2, #5, #4, ...

........................................................................
.............................. CYCLE   50 ..............................
........................................................................
   1    -21.7265757 -0.217266E+02  0.878E-01    2.84       0.0  T
   2    -21.7266830 -0.107292E-03  0.560E-01    2.84       1.0  T
   3    -21.7267036 -0.206301E-04  0.734E-02    2.82       1.0  T
   4    -21.7267494 -0.457401E-04  0.306E-02    2.82       1.0  T
   5    -21.7267533 -0.387867E-05  0.133E-02    2.82       2.2  T
   6    -21.7267534 -0.165299E-06  0.298E-03    2.82       9.7  T
   7    -21.7267535 -0.273070E-07  0.132E-03    2.82      21.8  T
     SCC iter.                  ...        0 min,  0.002 sec
     gradient                   ...        0 min,  0.001 sec
 * total energy  :   -21.5245004 Eh     change        0.6752784E-03 Eh
   gradient norm :     0.0453613 Eh/α   predicted    -0.6390937E-03 (-194.64%)
   displ. norm   :     0.1593190 α      lambda       -0.2990103E-02
   maximum displ.:     0.1254531 α      in ANC's #5, #4, #11, ...

........................................................................
.............................. CYCLE   51 ..............................
........................................................................
   1    -21.7342109 -0.217342E+02  0.447E-01    2.73       0.0  T
   2    -21.7342486 -0.376839E-04  0.283E-01    2.74       1.0  T
   3    -21.7342497 -0.116139E-05  0.462E-02    2.76       1.0  T
   4    -21.7342656 -0.158637E-04  0.214E-02    2.76       1.3  T
   5    -21.7342685 -0.286923E-05  0.924E-03    2.76       3.1  T
   6    -21.7342688 -0.309844E-06  0.389E-03    2.76       7.4  T
   7    -21.7342688 -0.323616E-07  0.148E-03    2.76      19.4  T
     SCC iter.                  ...        0 min,  0.001 sec
     gradient                   ...        0 min,  0.091 sec
 * total energy  :   -21.5256970 Eh     change       -0.1196593E-02 Eh
   gradient norm :     0.0069459 Eh/α   predicted    -0.1533000E-02 (  28.11%)
   displ. norm   :     0.2730103 α      lambda       -0.4402183E-03
   maximum displ.:     0.1958462 α      in ANC's #2, #1, #4, ...

........................................................................
.............................. CYCLE   52 ..............................
........................................................................
   1    -21.7278806 -0.217279E+02  0.251E-01    2.63       0.0  T
   2    -21.7278874 -0.683504E-05  0.153E-01    2.62       1.0  T
   3    -21.7278828  0.463548E-05  0.290E-02    2.61       1.0  T
   4    -21.7278908 -0.803389E-05  0.112E-02    2.60       2.6  T
   5    -21.7278913 -0.474414E-06  0.612E-03    2.61       4.7  T
   6    -21.7278914 -0.680881E-07  0.232E-03    2.61      12.4  T
   7    -21.7278914 -0.215351E-07  0.870E-04    2.61      33.2  T
     SCC iter.                  ...        0 min,  0.002 sec
     gradient                   ...        0 min,  0.001 sec
 * total energy  :   -21.5256932 Eh     change        0.3854308E-05 Eh
   gradient norm :     0.0182931 Eh/α   predicted    -0.2365146E-03 (*******%)
   displ. norm   :     0.0972814 α      lambda       -0.6654246E-03
   maximum displ.:     0.0540166 α      in ANC's #8, #2, #4, ...

........................................................................
.............................. CYCLE   53 ..............................
........................................................................
   1    -21.7341968 -0.217342E+02  0.150E-01    2.70       0.0  T
   2    -21.7342124 -0.156443E-04  0.944E-02    2.71       1.0  T
   3    -21.7341977  0.146901E-04  0.482E-02    2.71       1.0  T
   4    -21.7342154 -0.176472E-04  0.150E-02    2.71       1.9  T
   5    -21.7342171 -0.178705E-05  0.394E-03    2.71       7.3  T
   6    -21.7342172 -0.104289E-07  0.168E-03    2.71      17.1  T
   7    -21.7342172 -0.702139E-08  0.685E-04    2.71      42.1  T
     SCC iter.                  ...        0 min,  0.002 sec
     gradient                   ...        0 min,  0.001 sec
 * total energy  :   -21.5259650 Eh     change       -0.2718319E-03 Eh
   gradient norm :     0.0157431 Eh/α   predicted    -0.3358605E-03 (  23.55%)
   displ. norm   :     0.2217407 α      lambda       -0.5424469E-03
   maximum displ.:     0.1569086 α      in ANC's #2, #4, #5, ...

........................................................................
.............................. CYCLE   54 ..............................
........................................................................
   1    -21.7331726 -0.217332E+02  0.357E-01    2.79       0.0  T
   2    -21.7331922 -0.196567E-04  0.226E-01    2.79       1.0  T
   3    -21.7332038 -0.115985E-04  0.190E-02    2.78       1.5  T
   4    -21.7332044 -0.630971E-06  0.112E-02    2.79       2.6  T
   5    -21.7332047 -0.284081E-06  0.577E-03    2.78       5.0  T
   6    -21.7332048 -0.920924E-07  0.282E-03    2.78      10.2  T
   7    -21.7332049 -0.619966E-07  0.884E-04    2.78      32.6  T
     SCC iter.                  ...        0 min,  0.001 sec
     gradient                   ...        0 min,  0.001 sec
 * total energy  :   -21.5261002 Eh     change       -0.1351999E-03 Eh
   gradient norm :     0.0157342 Eh/α   predicted    -0.2845567E-03 ( 110.47%)
   displ. norm   :     0.1796158 α      lambda       -0.4148079E-03
   maximum displ.:     0.1321293 α      in ANC's #2, #1, #11, ...

........................................................................
.............................. CYCLE   55 ..............................
........................................................................
   1    -21.7319125 -0.217319E+02  0.171E-01    2.70       0.0  T
   2    -21.7319153 -0.278917E-05  0.103E-01    2.69       1.0  T
   3    -21.7319036  0.117046E-04  0.364E-02    2.69       1.0  T
   4    -21.7319176 -0.140151E-04  0.642E-03    2.69       4.5  T
   5    -21.7319177 -0.882884E-07  0.330E-03    2.69       8.7  T
   6    -21.7319177 -0.164372E-07  0.141E-03    2.69      20.5  T
   7    -21.7319177 -0.951456E-08  0.571E-04    2.69      50.6  T
     SCC iter.                  ...        0 min,  0.002 sec
     gradient                   ...        0 min,  0.001 sec
 * total energy  :   -21.5263652 Eh     change       -0.2649963E-03 Eh
   gradient norm :     0.0086163 Eh/α   predicted    -0.2140973E-03 ( -19.21%)
   displ. norm   :     0.2619470 α      lambda       -0.3693431E-03
   maximum displ.:     0.1991853 α      in ANC's #2, #1, #4, ...

........................................................................
.............................. CYCLE   56 ..............................
........................................................................
   1    -21.7313524 -0.217314E+02  0.241E-01    2.65       0.0  T
   2    -21.7313582 -0.576667E-05  0.147E-01    2.64       1.0  T
   3    -21.7313527  0.546789E-05  0.311E-02    2.63       1.0  T
   4    -21.7313611 -0.840609E-05  0.107E-02    2.63       2.7  T
   5    -21.7313615 -0.396902E-06  0.512E-03    2.63       5.6  T
   6    -21.7313616 -0.605086E-07  0.182E-03    2.63      15.9  T
   7    -21.7313616 -0.916800E-08  0.578E-04    2.63      49.9  T
     SCC iter.                  ...        0 min,  0.001 sec
     gradient                   ...        0 min,  0.090 sec
 * total energy  :   -21.5265495 Eh     change       -0.1843455E-03 Eh
   gradient norm :     0.0108316 Eh/α   predicted    -0.1973432E-03 (   7.05%)
   displ. norm   :     0.2106337 α      lambda       -0.3231547E-03
   maximum displ.:     0.1623716 α      in ANC's #2, #1, #3, ...

........................................................................
.............................. CYCLE   57 ..............................
........................................................................
   1    -21.7328142 -0.217328E+02  0.219E-01    2.61       0.0  T
   2    -21.7328195 -0.525815E-05  0.136E-01    2.60       1.0  T
   3    -21.7328098  0.967993E-05  0.375E-02    2.60       1.0  T
   4    -21.7328239 -0.141520E-04  0.909E-03    2.59       3.2  T
   5    -21.7328240 -0.512893E-07  0.151E-03    2.60      19.1  T
   6    -21.7328240 -0.255209E-08  0.519E-04    2.60      55.6  T
     SCC iter.                  ...        0 min,  0.001 sec
     gradient                   ...        0 min,  0.001 sec
 * total energy  :   -21.5268030 Eh     change       -0.2534765E-03 Eh
   gradient norm :     0.0083988 Eh/α   predicted    -0.1687434E-03 ( -33.43%)
   displ. norm   :     0.4033209 α      lambda       -0.4931520E-03
   maximum displ.:     0.2933786 α      in ANC's #2, #4, #3, ...

........................................................................
.............................. CYCLE   58 ..............................
........................................................................
   1    -21.7320648 -0.217321E+02  0.458E-01    2.64       0.0  T
   2    -21.7320906 -0.258585E-04  0.286E-01    2.63       1.0  T
   3    -21.7321056 -0.149734E-04  0.290E-02    2.62       1.0  T
   4    -21.7321079 -0.226937E-05  0.193E-02    2.62       1.5  T
   5    -21.7321091 -0.119439E-05  0.551E-03    2.62       5.2  T
   6    -21.7321093 -0.182183E-06  0.923E-04    2.62      31.3  T
   7    -21.7321093 -0.384414E-08  0.476E-04    2.62      60.6  T
     SCC iter.                  ...        0 min,  0.001 sec
     gradient                   ...        0 min,  0.001 sec
 * total energy  :   -21.5271077 Eh     change       -0.3046818E-03 Eh
   gradient norm :     0.0093016 Eh/α   predicted    -0.2866922E-03 (  -5.90%)
   displ. norm   :     0.1955047 α      lambda       -0.4532833E-03
   maximum displ.:     0.0976794 α      in ANC's #3, #6, #19, ...

........................................................................
.............................. CYCLE   59 ..............................
........................................................................
   1    -21.7422040 -0.217422E+02  0.218E-01    2.69       0.0  T
   2    -21.7422133 -0.926758E-05  0.133E-01    2.68       1.0  T
   3    -21.7422147 -0.141522E-05  0.200E-02    2.66       1.4  T
   4    -21.7422162 -0.154595E-05  0.123E-02    2.67       2.4  T
   5    -21.7422171 -0.901095E-06  0.526E-03    2.67       5.5  T
   6    -21.7422172 -0.520462E-07  0.163E-03    2.67      17.7  T
   7    -21.7422172 -0.492567E-08  0.710E-04    2.67      40.7  T
     SCC iter.                  ...        0 min,  0.093 sec
     gradient                   ...        0 min,  0.001 sec
 * total energy  :   -21.5269389 Eh     change        0.1688098E-03 Eh
   gradient norm :     0.0222263 Eh/α   predicted    -0.2353041E-03 (-239.39%)
   displ. norm   :     0.3406766 α      lambda       -0.9057578E-03
   maximum displ.:     0.2308463 α      in ANC's #2, #1, #4, ...

........................................................................
.............................. CYCLE   60 ..............................
........................................................................
   1    -21.7322561 -0.217323E+02  0.311E-01    2.58       0.0  T
   2    -21.7322694 -0.132715E-04  0.191E-01    2.57       1.0  T
   3    -21.7322503  0.190881E-04  0.536E-02    2.57       1.0  T
   4    -21.7322781 -0.278252E-04  0.143E-02    2.57       2.0  T
   5    -21.7322785 -0.365142E-06  0.720E-03    2.57       4.0  T
   6    -21.7322785 -0.390258E-07  0.177E-03    2.57      16.3  T
   7    -21.7322785 -0.118456E-07  0.767E-04    2.57      37.6  T
     SCC iter.                  ...        0 min,  0.001 sec
     gradient                   ...        0 min,  0.001 sec
 * total energy  :   -21.5273519 Eh     change       -0.4130355E-03 Eh
   gradient norm :     0.0119981 Eh/α   predicted    -0.5054369E-03 (  22.37%)
   displ. norm   :     0.0829435 α      lambda       -0.3197175E-03
   maximum displ.:     0.0454007 α      in ANC's #3, #7, #6, ...

........................................................................
.............................. CYCLE   61 ..............................
........................................................................
   1    -21.7335692 -0.217336E+02  0.103E-01    2.55       0.0  T
   2    -21.7335759 -0.666931E-05  0.614E-02    2.56       1.0  T
   3    -21.7335731  0.273113E-05  0.277E-02    2.56       1.0  T
   4    -21.7335771 -0.401061E-05  0.104E-02    2.56       2.8  T
   5    -21.7335779 -0.731897E-06  0.371E-03    2.56       7.8  T
   6    -21.7335779 -0.279975E-07  0.185E-03    2.56      15.6  T
   7    -21.7335779 -0.848704E-08  0.780E-04    2.56      37.0  T
     SCC iter.                  ...        0 min,  0.001 sec
     gradient                   ...        0 min,  0.001 sec
 * total energy  :   -21.5272594 Eh     change        0.9251113E-04 Eh
   gradient norm :     0.0165212 Eh/α   predicted    -0.1609606E-03 (-273.99%)
   displ. norm   :     0.0738398 α      lambda       -0.4264612E-03
   maximum displ.:     0.0478113 α      in ANC's #7, #6, #11, ...

........................................................................
.............................. CYCLE   62 ..............................
........................................................................
   1    -21.7346539 -0.217347E+02  0.702E-02    2.58       0.0  T
   2    -21.7346563 -0.238131E-05  0.409E-02    2.58       1.0  T
   3    -21.7346545  0.179877E-05  0.192E-02    2.58       1.5  T
   4    -21.7346570 -0.248676E-05  0.566E-03    2.58       5.1  T
   5    -21.7346571 -0.162248E-06  0.235E-03    2.58      12.3  T
   6    -21.7346571 -0.119977E-07  0.125E-03    2.58      23.0  T
     SCC iter.                  ...        0 min,  0.001 sec
[...]
   4    -21.7355058 -0.264369E-06  0.414E-03    2.59       7.0  T
   5    -21.7355059 -0.131402E-06  0.122E-03    2.59      23.6  T
   6    -21.7355059 -0.164453E-08  0.470E-04    2.59      61.4  T
     SCC iter.                  ...        0 min,  0.003 sec
     gradient                   ...        0 min,  0.002 sec
 * total energy  :   -21.5279565 Eh     change       -0.3734159E-04 Eh
   gradient norm :     0.0014136 Eh/α   predicted    -0.3506406E-04 (  -6.10%)
   displ. norm   :     0.0329251 α      lambda       -0.8431988E-05
   maximum displ.:     0.0284268 α      in ANC's #3, #4, #6, ...

........................................................................
.............................. CYCLE   75 ..............................
........................................................................
   1    -21.7356973 -0.217357E+02  0.293E-02    2.59       0.0  T
   2    -21.7356974 -0.892533E-07  0.182E-02    2.59       1.6  T
   3    -21.7356974 -0.206055E-07  0.229E-03    2.59      12.6  T
   4    -21.7356975 -0.334600E-07  0.122E-03    2.59      23.7  T
   5    -21.7356975 -0.498419E-08  0.434E-04    2.59      66.6  T
   6    -21.7356975 -0.193690E-09  0.109E-04    2.59     265.4  T
     SCC iter.                  ...        0 min,  0.093 sec
     gradient                   ...        0 min,  0.002 sec
 * total energy  :   -21.5279630 Eh     change       -0.6562538E-05 Eh
   gradient norm :     0.0007566 Eh/α   predicted    -0.4217347E-05 ( -35.74%)
   displ. norm   :     0.0483209 α      lambda       -0.6538301E-05
   maximum displ.:     0.0462491 α      in ANC's #3, #4, #11, ...

........................................................................
.............................. CYCLE   76 ..............................
........................................................................
   1    -21.7357821 -0.217358E+02  0.627E-02    2.58       0.0  T
   2    -21.7357827 -0.550478E-06  0.397E-02    2.58       1.0  T
   3    -21.7357831 -0.392883E-06  0.294E-03    2.58       9.8  T
   4    -21.7357831  0.628180E-08  0.148E-03    2.58      19.5  T
   5    -21.7357831 -0.827391E-08  0.579E-04    2.58      49.9  T
   6    -21.7357831 -0.284176E-08  0.141E-04    2.58     205.3  T
     SCC iter.                  ...        0 min,  0.003 sec
     gradient                   ...        0 min,  0.002 sec
 * total energy  :   -21.5279700 Eh     change       -0.6941902E-05 Eh
   gradient norm :     0.0009839 Eh/α   predicted    -0.3270790E-05 ( -52.88%)
   displ. norm   :     0.1347719 α      lambda       -0.1171505E-04
   maximum displ.:     0.1313114 α      in ANC's #3, #4, #24, ...

........................................................................
.............................. CYCLE   77 ..............................
........................................................................
   1    -21.7352136 -0.217352E+02  0.198E-01    2.58       0.0  T
   2    -21.7352196 -0.597853E-05  0.127E-01    2.58       1.0  T
   3    -21.7352237 -0.412450E-05  0.924E-03    2.58       3.1  T
   4    -21.7352236  0.704300E-07  0.688E-03    2.58       4.2  T
   5    -21.7352239 -0.271983E-06  0.647E-04    2.58      44.6  T
   6    -21.7352239 -0.225243E-08  0.195E-04    2.58     148.0  T
     SCC iter.                  ...        0 min,  0.003 sec
     gradient                   ...        0 min,  0.001 sec
 * total energy  :   -21.5279778 Eh     change       -0.7803635E-05 Eh
   gradient norm :     0.0019594 Eh/α   predicted    -0.5903220E-05 ( -24.35%)
   displ. norm   :     0.0191864 α      lambda       -0.4858004E-05
   maximum displ.:     0.0100353 α      in ANC's #2, #6, #8, ...

........................................................................
.............................. CYCLE   78 ..............................
........................................................................
   1    -21.7356502 -0.217357E+02  0.250E-02    2.57       0.0  T
   2    -21.7356503 -0.100182E-06  0.158E-02    2.57       1.8  T
   3    -21.7356502  0.999916E-07  0.420E-03    2.57       6.9  T
   4    -21.7356503 -0.169046E-06  0.103E-03    2.57      27.9  T
   5    -21.7356503 -0.280655E-08  0.447E-04    2.57      64.6  T
   6    -21.7356503 -0.470344E-10  0.143E-04    2.57     201.4  T
     SCC iter.                  ...        0 min,  0.093 sec
     gradient                   ...        0 min,  0.002 sec
 * total energy  :   -21.5279810 Eh     change       -0.3217982E-05 Eh
   gradient norm :     0.0006756 Eh/α   predicted    -0.2428669E-05 ( -24.53%)
   displ. norm   :     0.0200562 α      lambda       -0.1595226E-05
   maximum displ.:     0.0153434 α      in ANC's #3, #1, #5, ...

   *** GEOMETRY OPTIMIZATION CONVERGED AFTER 78 ITERATIONS ***

------------------------------------------------------------------------
 total energy gain   :        -0.0228363 Eh      -14.3300 kcal/mol
 total RMSD          :         2.7917709 a0        1.4773 Å
 total power (kW/mol):        -0.7686750 (step)  -16.2556 (real)
------------------------------------------------------------------------

 ANCopt (total)                0 d,  0 h,  0 min,  3.688 sec
 optimizer setup                ...        0 min,  0.000 sec (  0.009%)
 model hessian                  ...        0 min,  0.091 sec (  2.456%)
 ANC generation                 ...        0 min,  0.001 sec (  0.030%)
 coordinate transformation      ...        0 min,  0.003 sec (  0.081%)
 single point calculation       ...        0 min,  3.474 sec ( 94.194%)
 optimization log               ...        0 min,  0.005 sec (  0.142%)
 hessian update                 ...        0 min,  0.096 sec (  2.592%)
 rational function              ...        0 min,  0.006 sec (  0.155%)

================
 final structure:
================
12
 xtb: 6.2.3 (830e466)
C         3.04086190641740    0.44197866493328   -2.21677110089403
C         1.82661828745349    0.74303076890527   -1.76720171189619
C         0.92417870321441   -0.28250244807655   -1.25566842053927
O        -1.35247134489393    2.48789244882096   -0.84900504445588
O        -0.21107433460590    3.24195712176111   -1.24180616878248
O        -0.19225943850501   -0.07749252717651   -0.83983102370189
H        -0.55128412337673    4.14427629627635   -1.20619931969782
H         3.71142011170057    1.19322552740439   -2.59774776941477
H         3.40420220206426   -0.57385861562923   -2.22037278337620
H         1.33787552315242   -1.30784237187965   -1.26957163890698
H        -1.00091387229651    1.57111523409990   -0.81230209468892
H         1.45185637967514    1.75782990056262   -1.75933292364733
 
 Bond Distances (Angstroems)
 ---------------------------
C1-C2=1.3293         C1-H8=1.0766         C1-H9=1.0789         C2-C1=1.3293         C2-C3=1.4587         C2-H12=1.0818        
C3-C2=1.4587         C3-O6=1.2089         C3-H10=1.1057        O4-O5=1.4233         O4-H11=0.9826        O5-O4=1.4233         
O5-H7=0.9650         O6-C3=1.2089         H7-O5=0.9650         H8-C1=1.0766         H9-C1=1.0789         H10-C3=1.1057        
H11-O4=0.9826        H12-C2=1.0818        
 C  H  Rav=1.0858 sigma=0.0117  Rmin=1.0766  Rmax=1.1057     4
 C  C  Rav=1.3940 sigma=0.0647  Rmin=1.3293  Rmax=1.4587     2
 O  H  Rav=0.9738 sigma=0.0088  Rmin=0.9650  Rmax=0.9826     2
 O  C  Rav=1.2089 sigma=0.0000  Rmin=1.2089  Rmax=1.2089     1
 O  O  Rav=1.4233 sigma=0.0000  Rmin=1.4233  Rmax=1.4233     1
 
 selected bond angles (degree)
 --------------------
H8-C1-C2=122.04                H9-C1-C2=121.47                H9-C1-H8=116.49                C3-C2-C1=121.63                
H12-C2-C1=122.10               H12-C2-C3=116.27               O6-C3-C2=124.94                H10-C3-C2=114.59               
H10-C3-O6=120.47               H11-O4-O5=102.57               H7-O5-O4=101.68                
 
 selected dihedral angles (degree)
 ---------------------------------
C3-C2-C1-H8=179.86            C3-C2-C1-H9=  0.03            H12-C2-C1-H8=359.86           H12-C2-C1-H9=180.03           
O6-C3-C2-C1=180.41            O6-C3-C2-H12=  0.41           H10-C3-C2-C1=  0.43           H10-C3-C2-H12=180.43          
H7-O5-O4-H11=184.27           
 
 CMA Distance (Angstroems)
 ---------------------------
R(CMA):  3.4590
           -------------------------------------------------
          |                Final Singlepoint                |
           -------------------------------------------------

          ...................................................
          :                      SETUP                      :
          :.................................................:
          :  # basis functions                  30          :
          :  # atomic orbitals                  30          :
          :  # shells                           18          :
          :  # electrons                        36          :
          :  max. iterations                   100          :
          :  Hamiltonian                  GFN2-xTB          :
          :  restarted?                      false          :
          :  GBSA solvation                  false          :
          :  PC potential                    false          :
          :  electronic temp.          300.0000000     K    :
          :  accuracy                    1.0000000          :
          :  -> integral cutoff          0.2500000E+02      :
          :  -> integral neglect         0.1000000E-07      :
          :  -> SCF convergence          0.1000000E-05 Eh   :
          :  -> wf. convergence          0.1000000E-03 e    :
          :  Broyden damping             0.4000000          :
          ...................................................

 iter      E             dE          RMSdq      gap      omega  full diag
   1    -21.7356503 -0.217357E+02  0.436E-05    2.57       0.0  T
   2    -21.7356503 -0.150635E-11  0.251E-05    2.57    1148.6  T
   3    -21.7356503 -0.554223E-12  0.954E-06    2.57    3026.9  T

   *** convergence criteria satisfied after 3 iterations ***

         #    Occupation            Energy/Eh            Energy/eV
      -------------------------------------------------------------
         1        2.0000           -0.7297744             -19.8582
       ...           ...                  ...                  ...
        12        2.0000           -0.5248730             -14.2825
        13        2.0000           -0.5020066             -13.6603
        14        2.0000           -0.4957068             -13.4889
        15        2.0000           -0.4732832             -12.8787
        16        2.0000           -0.4549683             -12.3803
        17        2.0000           -0.4183488             -11.3839
        18        2.0000           -0.4067702             -11.0688 (HOMO)
        19                         -0.3122636              -8.4971 (LUMO)
        20                         -0.1932144              -5.2576
        21                         -0.1306953              -3.5564
        22                          0.0784382               2.1344
        23                          0.1154920               3.1427
       ...                                ...                  ...
        30                          0.6576104              17.8945
      -------------------------------------------------------------
                  HL-Gap            0.0945066 Eh            2.5717 eV
             Fermi-level           -0.3595169 Eh           -9.7830 eV

 SCC (total)                   0 d,  0 h,  0 min,  0.004 sec
 SCC setup                      ...        0 min,  0.000 sec (  2.378%)
 Dispersion                     ...        0 min,  0.000 sec (  1.118%)
 integral evaluation            ...        0 min,  0.000 sec ( 12.057%)
 zeroth order Hamiltonian       ...        0 min,  0.000 sec (  1.438%)
 iterations                     ...        0 min,  0.002 sec ( 38.011%)
 molecular gradient             ...        0 min,  0.002 sec ( 38.484%)
 printout                       ...        0 min,  0.000 sec (  1.639%)

         :::::::::::::::::::::::::::::::::::::::::::::::::::::
         ::                     SUMMARY                     ::
         :::::::::::::::::::::::::::::::::::::::::::::::::::::
         :: total energy             -21.527981017994 Eh    ::
         :: gradient norm              0.000676669194 Eh/a0 ::
         :: HOMO-LUMO gap              2.571656175702 eV    ::
         ::.................................................::
         :: SCC energy               -21.735650340829 Eh    ::
         :: -> isotropic ES            0.054471664912 Eh    ::
         :: -> anisotropic ES         -0.011590921943 Eh    ::
         :: -> anisotropic XC         -0.000858602173 Eh    ::
         :: -> dispersion             -0.005370796127 Eh    ::
         :: repulsion energy           0.207662130631 Eh    ::
         :: add. restraining           0.000000000000 Eh    ::
         :::::::::::::::::::::::::::::::::::::::::::::::::::::

           -------------------------------------------------
          |                Property Printout                |
           -------------------------------------------------

    * Orbital Energies and Occupations

         #    Occupation            Energy/Eh            Energy/eV
      -------------------------------------------------------------
         1        2.0000           -0.7297744             -19.8582
       ...           ...                  ...                  ...
         6        2.0000           -0.6053091             -16.4713
         7        2.0000           -0.5899404             -16.0531
         8        2.0000           -0.5735518             -15.6071
         9        2.0000           -0.5546458             -15.0927
        10        2.0000           -0.5518525             -15.0167
        11        2.0000           -0.5500052             -14.9664
        12        2.0000           -0.5248730             -14.2825
        13        2.0000           -0.5020066             -13.6603
        14        2.0000           -0.4957068             -13.4889
        15        2.0000           -0.4732832             -12.8787
        16        2.0000           -0.4549683             -12.3803
        17        2.0000           -0.4183488             -11.3839
        18        2.0000           -0.4067702             -11.0688 (HOMO)
        19                         -0.3122636              -8.4971 (LUMO)
        20                         -0.1932144              -5.2576
        21                         -0.1306953              -3.5564
        22                          0.0784382               2.1344
        23                          0.1154920               3.1427
        24                          0.1482963               4.0353
        25                          0.1562363               4.2514
        26                          0.1910243               5.1980
        27                          0.2363087               6.4303
        28                          0.3871946              10.5361
        29                          0.4973443              13.5334
        30                          0.6576104              17.8945
      -------------------------------------------------------------
                  HL-Gap            0.0945066 Eh            2.5717 eV
             Fermi-level           -0.3595169 Eh           -9.7830 eV

     #   Z        covCN         q      C6AA      α(0)
     1   6 C      2.843    -0.059    29.451     8.894
     2   6 C      2.886    -0.052    29.292     8.873
     3   6 C      2.767     0.215    23.453     7.931
     4   8 O      1.732    -0.348    19.846     6.015
     5   8 O      1.734    -0.342    19.728     5.997
     6   8 O      0.857    -0.336    20.438     6.061
     7   1 H      0.805     0.314     0.679     1.295
     8   1 H      0.926     0.070     2.089     2.260
     9   1 H      0.926     0.063     2.166     2.302
    10   1 H      0.922     0.027     2.633     2.538
    11   1 H      0.802     0.347     0.596     1.213
    12   1 H      0.925     0.101     1.778     2.085

 Mol. C6AA /au·bohr⁶  :       1327.150989
 Mol. C8AA /au·bohr⁸  :      28886.135912
 Mol. α(0) /au        :         55.463895


Wiberg/Mayer (AO) data.
largest (>0.10) Wiberg bond orders for each atom
          total WBO             WBO to atom ...
     1  C   3.980        C    2 1.887    H    8 0.975    H    9 0.972    O    6 0.107
     2  C   3.983        C    1 1.887    C    3 1.083    H   12 0.950
     3  C   3.918        O    6 1.845    C    2 1.083    H   10 0.932
     4  O   1.857        O    5 1.002    H   11 0.832
     5  O   1.906        O    4 1.002    H    7 0.895
     6  O   2.107        C    3 1.845    C    1 0.107
     7  H   0.901        O    5 0.895
     8  H   0.995        C    1 0.975
     9  H   0.996        C    1 0.972
    10  H   0.999        C    3 0.932
    11  H   0.880        O    4 0.832
    12  H   0.990        C    2 0.950

molecular dipole:
                 x           y           z       tot (Debye)
 q only:        1.259      -0.068      -0.451
   full:        1.452      -0.116      -0.503       3.916
molecular quadrupole (traceless):
                xx          xy          yy          xz          yz          zz
 q only:        1.304       1.751       0.063      -6.358      -0.674      -1.367
  q+dip:       -0.135       0.152       2.936      -7.112      -0.503      -2.800
   full:       -0.250       0.915       2.010      -6.466      -0.389      -1.759

           -------------------------------------------------
          |                Geometry Summary                 |
           -------------------------------------------------

      molecular mass/u    :       90.0780670
   center of mass at/Å    :        0.5538500       1.2002116      -1.3295617
  moments of inertia/u·Å² :        0.9894411E+02   0.2926269E+03   0.3911897E+03
rotational constants/cm⁻¹ :        0.1703753E+00   0.5760795E-01   0.4309325E-01

 * 8 selected distances

     #   Z        #   Z                                     value/Å
     1   6 C      2   6 C                                 1.3293354
     4   8 O      5   8 O                                 1.4232686 (max)
     3   6 C      6   8 O                                 1.2088771
     5   8 O      7   1 H                                 0.9649821 (min)
     1   6 C      8   1 H                                 1.0766445
     1   6 C      9   1 H                                 1.0788672
     4   8 O     11   1 H                                 0.9825580
     2   6 C     12   1 H                                 1.0818159

 * 5 distinct bonds (by element types)

   Z      Z             #   av. dist./Å        max./Å        min./Å
   1 H    6 C           3     1.0791092     1.0818159     1.0766445
   6 C    6 C           1     1.3293354     1.3293354     1.3293354
   1 H    8 O           2     0.9737700     0.9825580     0.9649821
   6 C    8 O           1     1.2088771     1.2088771     1.2088771
   8 O    8 O           1     1.4232686     1.4232686     1.4232686


optimized geometry written to: xtbopt.xyz


           -------------------------------------------------
          | TOTAL ENERGY              -21.527981017994 Eh   |
          | GRADIENT NORM               0.000676669194 Eh/α |
          | HOMO-LUMO GAP               2.571656175702 eV   |
           -------------------------------------------------

------------------------------------------------------------------------
 * finished run on 2020/12/23 at 21:43:31.363     
------------------------------------------------------------------------
 total:
 * wall-time:     0 d,  0 h,  0 min,  3.947 sec
 *  cpu-time:     0 d,  0 h,  0 min, 16.146 sec
 * ratio c/w:     4.091 speedup
 SCF:
 * wall-time:     0 d,  0 h,  0 min,  0.011 sec
 *  cpu-time:     0 d,  0 h,  0 min,  0.247 sec
 * ratio c/w:    22.979 speedup
 ANC optimizer:
 * wall-time:     0 d,  0 h,  0 min,  3.696 sec
 *  cpu-time:     0 d,  0 h,  0 min, 14.790 sec
 * ratio c/w:     4.002 speedup

