12
 energy: -21.512828578627 gnorm: 0.000652962298 xtb: 6.2.3 (830e466)
C         1.27509203311414    1.11259982662762   -2.32568255556173
C         0.51556360913064    0.25618281054789   -1.63183816776806
C         0.85955402856523   -1.15462948204849   -1.60011188022807
O         1.13694389159429    2.42436427950463   -2.48303545585669
O         0.00775084163391    2.96729438365218   -1.80915358813921
O         1.80213014676313   -1.65916541016372   -2.16260183344137
H         0.08750239048840    3.91194840716352   -2.00180719055983
H         2.61899530990437    2.71671302455892    0.26631500401117
H         2.15077088525875    0.78191139355745   -2.87277074755149
H         0.16713273418666   -1.76871245209242   -0.99374794217712
H        -0.35261878715515    0.59590099197157   -1.09185128281263
H         2.12019291651837    3.15519222672104    0.67048564008573
