12
 energy: -21.570710681424 gnorm: 0.147833383597 xtb: 6.2.3 (830e466)
C         1.15087000000000    1.61283000000000   -2.29703000000000
C        -0.31716000000000    1.97022000000000   -2.12679000000000
C         2.20835000000000   -0.28208000000000   -0.10575000000000
O         1.80617000000000    1.77212000000000   -1.05837000000000
O         2.58341000000000    0.74631000000000   -0.89736000000000
O         2.95343000000000   -1.23336000000000    0.04986000000000
H        -0.41573000000000    3.02022000000000   -1.77876000000000
H         1.61776000000000    2.28519000000000   -3.04802000000000
H         1.19524000000000    0.56596000000000   -2.68447000000000
H         1.23913000000000   -0.27019000000000    0.38476000000000
H        -0.84815000000000    1.85798000000000   -3.09523000000000
H        -0.78432000000000    1.29439000000000   -1.37864000000000
12
 energy: -21.584236595835 gnorm: 0.053958413627 xtb: 6.2.3 (830e466)
C         1.12886769969735    1.62276745993930   -2.31312871857963
C        -0.33806335128852    1.97930198570264   -2.13512311325332
C         2.23706850204255   -0.30627121305943   -0.09853334645625
O         1.79150692598735    1.74991598760529   -1.06241866329821
O         2.64303762294388    0.71036384139784   -0.87467114265135
O         2.95382807524940   -1.24762753494910    0.07694396308338
H        -0.43516392626667    3.00738087010649   -1.78325843943797
H         1.60957598464870    2.28485970138459   -3.04944788988655
H         1.21714253428832    0.58823075731421   -2.68077600993407
H         1.24399844372470   -0.23921342034281    0.36905613175463
H        -0.86277964120600    1.87328646810987   -3.08509034935881
H        -0.80001886982104    1.31659509679111   -1.39935242198185
12
 energy: -21.587497047181 gnorm: 0.011954862705 xtb: 6.2.3 (830e466)
C         1.11182372142236    1.61468737103192   -2.32235552428881
C        -0.35077057309790    1.98470978889446   -2.13919723415461
C         2.27231696699403   -0.31343925433065   -0.08263009208819
O         1.76249172860629    1.72409370525748   -1.05492389238842
O         2.68630500613266    0.69197657963693   -0.85812547634191
O         2.96228447632168   -1.26250393237743    0.09674870728234
H        -0.43285813405749    3.00530676297281   -1.78415916250378
H         1.60158628966767    2.28749385363870   -3.03562541556878
H         1.21245941112600    0.58867813567722   -2.68787100341879
H         1.24743217278033   -0.20091418582640    0.33343766450383
H        -0.86607691271322    1.89293499030997   -3.08719844616350
H        -0.81799415318241    1.32656618511498   -1.41390012486939
12
 energy: -21.587715226718 gnorm: 0.016073614885 xtb: 6.2.3 (830e466)
C         1.10300619337949    1.60892511317101   -2.32482053056757
C        -0.35828444329261    1.99049794911232   -2.14566143948497
C         2.28004408868944   -0.33716560790142   -0.10379814291977
O         1.73686420987185    1.69908330018852   -1.04432339313809
O         2.70110612135964    0.67799131959939   -0.86033008261677
O         2.98619110909011   -1.26285215050236    0.13348941636492
H        -0.43034809808616    3.00820960123871   -1.77769233787252
H         1.60559983153031    2.29087123245327   -3.02008019508988
H         1.20050595609663    0.58760635471097   -2.70009580993357
H         1.27239610117986   -0.17002585263580    0.33911155187243
H        -0.86925701210230    1.91812378583549   -3.09936505736674
H        -0.83882405771625    1.32832495472987   -1.43223397924746
12
 energy: -21.588197913063 gnorm: 0.010793243652 xtb: 6.2.3 (830e466)
C         1.09865080171521    1.60361731558759   -2.32303218935167
C        -0.36162945887481    1.99451432664456   -2.14931642660599
C         2.30310060743192   -0.32585916193191   -0.07930514089967
O         1.72568679229595    1.68705570414918   -1.03927756713079
O         2.70582071390700    0.67439808870640   -0.86501151002706
O         2.99179058630823   -1.26889780552858    0.13596782043358
H        -0.42898187277000    3.01125556474705   -1.77260434987004
H         1.60937468386798    2.28515725079462   -3.01336338606754
H         1.18851079157680    0.58236767879739   -2.70234613309184
H         1.27984817839972   -0.16750846782816    0.32434222503794
H        -0.87003975114157    1.93448965556081   -3.10793667502797
H        -0.85313207271645    1.32899985030102   -1.44391666739896
12
 energy: -21.588384003666 gnorm: 0.006538798719 xtb: 6.2.3 (830e466)
C         1.09546486839332    1.60161933687049   -2.32169084923361
C        -0.36302259908054    2.00026422849992   -2.15342675700323
C         2.31124508031757   -0.32600419435167   -0.07300484082887
O         1.71524119213794    1.67536265896594   -1.03620981051826
O         2.69870437553678    0.67002645574415   -0.87497136508820
O         3.00492971476990   -1.26491452679204    0.14329006438503
H        -0.42942243318621    3.01390483431544   -1.76737032118132
H         1.61342652224175    2.28088167868632   -3.00920621603150
H         1.17708193673716    0.58011146693112   -2.70539032814377
H         1.29381630915581   -0.17259675773649    0.33618350486911
H        -0.86559592150507    1.95130329146161   -3.11609281394192
H        -0.86286904551841    1.32963152740519   -1.45791026728348
12
 energy: -21.588722590092 gnorm: 0.006932076875 xtb: 6.2.3 (830e466)
C         1.08150468968749    1.59304509056555   -2.32054466610990
C        -0.37077224999340    2.01937131982250   -2.16873098499391
C         2.34130605730898   -0.33220076803779   -0.05641401029187
O         1.67285499604776    1.63034734003608   -1.02419841894097
O         2.68339962137212    0.65284765677291   -0.90247667673798
O         3.05508097559650   -1.25232292735442    0.17453962637384
H        -0.42597142028560    3.02162212594628   -1.74998720705388
H         1.62592917958757    2.26852116092046   -2.99268195473900
H         1.14049807690380    0.57336901531886   -2.71929706133422
H         1.33783771700274   -0.18063543982177    0.37229953402354
H        -0.85549262516178    2.01116687218435   -3.14319904186949
H        -0.89717501806615    1.33445855364697   -1.50510913832621
12
 energy: -21.588937279976 gnorm: 0.010160825366 xtb: 6.2.3 (830e466)
C         1.06669962778072    1.58380127281826   -2.32051520669104
C        -0.37903332128219    2.03790690004356   -2.18431215406504
C         2.36912243248582   -0.34037334365499   -0.04227311011490
O         1.63144492571785    1.58965391906372   -1.01319397951613
O         2.66912932283482    0.63847969086361   -0.91826111924185
O         3.10647319849406   -1.23960871500303    0.19473185151178
H        -0.42064338903430    3.03066795024987   -1.74255751214328
H         1.63630073559279    2.25601607428017   -2.97617834640288
H         1.11000062960028    0.56731630986016   -2.73141204933032
H         1.37606358952927   -0.19430748012847    0.41014104351934
H        -0.84740680327717    2.06228317134600   -3.16645732303574
H        -0.92915094844193    1.34775425026110   -1.54551209448997
12
 energy: -21.589214505349 gnorm: 0.010023532897 xtb: 6.2.3 (830e466)
C         1.05117149326810    1.57349810562609   -2.32190036718729
C        -0.38662250757266    2.05611794827387   -2.19982859854663
C         2.39459292935512   -0.34844211610103   -0.02961797837510
O         1.58926938754079    1.55072369415392   -1.00413352248872
O         2.65317992416519    0.62696612525617   -0.92404584590226
O         3.16004574614733   -1.22437211274463    0.20484175294435
H        -0.41279299265838    3.04021131471114   -1.74124233336104
H         1.64534043632507    2.24211219739152   -2.95924046002004
H         1.08248493349108    0.56157163662541   -2.74374059785517
H         1.40934148189641   -0.21377445309032    0.45051160894029
H        -0.83887456745154    2.10720891279211   -3.18626792941001
H        -0.95813626450648    1.36776874710568   -1.58113572873845
12
 energy: -21.589627226255 gnorm: 0.008642516122 xtb: 6.2.3 (830e466)
C         1.02781576539769    1.55549860829955   -2.32469543346277
C        -0.39685693108506    2.08141055520874   -2.22124013801519
C         2.43166502223647   -0.35667968676519   -0.00985216771456
O         1.52893104482887    1.49733307913592   -0.99347259595250
O         2.63172948625296    0.61460347715367   -0.92020446013670
O         3.23882810447111   -1.19918873545172    0.21242362725094
H        -0.39582987561470    3.05495670204743   -1.74075498698688
H         1.65594560044638    2.21814685537048   -2.93487017385673
H         1.04201401118721    0.55050311897699   -2.76136151772145
H         1.45261775904008   -0.24768373165396    0.50168031959557
H        -0.82602659587266    2.17105128650933   -3.21438288714262
H        -1.00183339128831    1.39963847116866   -1.62906958585719
12
 energy: -21.590012769480 gnorm: 0.010033893087 xtb: 6.2.3 (830e466)
C         0.99937055301673    1.53163053960230   -2.32621319240429
C        -0.40674254554160    2.11272290261445   -2.24584004162452
C         2.47643092147023   -0.36265779484602    0.01455512311484
O         1.45710032083449    1.43450449326650   -0.98164523852599
O         2.60531640096719    0.60349877570331   -0.90799577206031
O         3.33386615740475   -1.16340526280112    0.21564221045533
H        -0.37535592149066    3.07418998611799   -1.74324922599842
H         1.66748784887056    2.18362405283990   -2.90452042954623
H         0.98943837015455    0.53459429796157   -2.78031561300116
H         1.50307543657976   -0.29763812866789    0.55470831942123
H        -0.80592649307714    2.24413135761389   -3.24656329327253
H        -1.05506104918882    1.44439478059501   -1.68436284655803
12
 energy: -21.590251399375 gnorm: 0.007921603604 xtb: 6.2.3 (830e466)
C         0.97928357671203    1.51436640903872   -2.32396470162156
C        -0.41090750248223    2.13326863304486   -2.26092862683186
C         2.50568447825350   -0.36238508439592    0.02960663007088
O         1.41053512586803    1.39166560556610   -0.97458288097096
O         2.58683864155297    0.59768981725897   -0.89575400884767
O         3.39222933672972   -1.13417448955875    0.21039429689555
H        -0.36273426344945    3.08660065962772   -1.74615412764025
H         1.67298226736090    2.15571585185208   -2.88041203276613
H         0.95056302548451    0.52398282114279   -2.79168959104751
H         1.53864898997788   -0.33348828023690    0.58591308254109
H        -0.78461449622166    2.28786370816982   -3.26748828321401
H        -1.08950917978614    1.47848434849037   -1.72073975656767
12
 energy: -21.590384871055 gnorm: 0.011650912315 xtb: 6.2.3 (830e466)
C         0.95481675084580    1.49517864408422   -2.32369209260048
C        -0.41585245247074    2.15853429462366   -2.27889488319106
C         2.54173230947644   -0.36308969314742    0.04989245478768
O         1.35084031261954    1.33277503015465   -0.96668239440409
O         2.56026949776888    0.58325348345171   -0.89682597997065
O         3.46482807618293   -1.09666116543617    0.22481211460570
H        -0.34746770955745    3.09987428581416   -1.73684949758124
H         1.68281453651711    2.12605401460966   -2.85183602733005
H         0.90003825154764    0.51371054826866   -2.81365179444406
H         1.58741841923593   -0.37105169263197    0.62425341422902
H        -0.76025616027646    2.35078675889885   -3.29462837022364
H        -1.13018183188954    1.51022549130986   -1.77169694387725
12
 energy: -21.590582937378 gnorm: 0.005904902920 xtb: 6.2.3 (830e466)
C         0.94340577223596    1.48628241658191   -2.31879261692386
C        -0.41143537722646    2.16910634469972   -2.28197683437634
C         2.55176185012306   -0.35699579349990    0.05306670331090
O         1.32701538170455    1.30215029371405   -0.96607202445960
O         2.54242741496025    0.57588223899966   -0.89790006225765
O         3.48856510958707   -1.06531740095674    0.23123226472018
H        -0.34494162421194    3.10579069609854   -1.73529565134836
H         1.68574003438998    2.10670975265152   -2.83224170935399
H         0.87436324753943    0.51298253113389   -2.82476705196754
H         1.60930655264799   -0.39388810357044    0.62443968871861
H        -0.73806290744904    2.36431907190729   -3.29855395325757
H        -1.13914545430078    1.53256795224036   -1.78893875280488
12
 energy: -21.590655890827 gnorm: 0.007376870105 xtb: 6.2.3 (830e466)
C         0.93008856322175    1.47456548866999   -2.31638694477561
C        -0.41404569740355    2.18374759883885   -2.29123675683556
C         2.56985699567983   -0.35858176852202    0.05908223050370
O         1.29135217397694    1.26576199983438   -0.95939607571143
O         2.52760835894660    0.56756201582321   -0.89983627046106
O         3.53049480507738   -1.04034026265543    0.23673888691537
H        -0.33801705633209    3.11497114446079   -1.73929083926076
H         1.69299241170010    2.08781683133179   -2.81257892880178
H         0.85279209603678    0.50850502569858   -2.83378501301443
H         1.63435629047206   -0.41602084065722    0.64296106444061
H        -0.72624774515931    2.39511340161158   -3.30902430244764
H        -1.16223119621642    1.55648936556533   -1.81304705055153
12
 energy: -21.590691921907 gnorm: 0.004091538718 xtb: 6.2.3 (830e466)
C         0.92629291232090    1.47058442243408   -2.31563875403692
C        -0.41540335961533    2.18472857139692   -2.29313546793364
C         2.57341055139457   -0.35720464493985    0.06000374988628
O         1.28323475457838    1.25218137861520   -0.95927200597061
O         2.52488714165881    0.56250554411982   -0.90555755088326
O         3.53589666104901   -1.03191653975850    0.23802148358105
H        -0.33314227475649    3.11351146704743   -1.73382619025528
H         1.69234739428789    2.08430574707301   -2.80470264076516
H         0.85152890617810    0.50914005770035   -2.83861982863170
H         1.64150703475772   -0.41205010802957    0.65262881841967
H        -0.72283804017201    2.40785207041282   -3.31329949764761
H        -1.16872168168148    1.55595203392815   -1.82240211576293
12
 energy: -21.590733618023 gnorm: 0.003522859807 xtb: 6.2.3 (830e466)
C         0.92347748363811    1.46789566707048   -2.31670659270209
C        -0.41498955973517    2.18651330407788   -2.29369353820258
C         2.57398094130511   -0.35694758645344    0.06010758638659
O         1.27618875410396    1.23818686492704   -0.96143502832063
O         2.52020054151910    0.55703142878144   -0.90952627409218
O         3.54483243221144   -1.01860935041231    0.24538601369708
H        -0.32890287458514    3.11369740353966   -1.73252115600084
H         1.69254353124773    2.08345814326470   -2.79696870065802
H         0.84954005252696    0.51123751952043   -2.84698704416461
H         1.64046744772990   -0.41539919168449    0.65172687164079
H        -0.72114142645322    2.41125629578062   -3.31127708301138
H        -1.16719732350870    1.56126950158783   -1.82390505457225
12
 energy: -21.590777029300 gnorm: 0.003491578694 xtb: 6.2.3 (830e466)
C         0.91479899660215    1.46020764380163   -2.31940972003406
C        -0.41469943210202    2.19397402729999   -2.29602768086631
C         2.58514621114302   -0.35582450268554    0.06703755490005
O         1.25385641036531    1.20197287573854   -0.96439289255093
O         2.51051085367657    0.54357894979189   -0.91587358327628
O         3.57051528590478   -0.99221703742261    0.26248696423406
H        -0.32251771421609    3.11484826445172   -1.72726118936455
H         1.69624362418334    2.07769982723934   -2.77860713249772
H         0.83406292351884    0.51330749969088   -2.86878455945619
H         1.65055730199133   -0.42300265995376    0.65465591111022
H        -0.71071274043586    2.43007357187700   -3.31263341842475
H        -1.17876172063131    1.57497154017076   -1.83699025377365
12
 energy: -21.590802090429 gnorm: 0.003715724228 xtb: 6.2.3 (830e466)
C         0.90970476126094    1.45529203560929   -2.32393379921017
C        -0.41415763946692    2.19820350445040   -2.29585686719678
C         2.59130509922044   -0.35424478205536    0.07351414968685
O         1.24161155835331    1.17579300591294   -0.97217142137028
O         2.50354002032597    0.53254297950728   -0.92048483211859
O         3.58711706818317   -0.97120238554526    0.27865707876447
H        -0.31800289949159    3.11239916614633   -1.71687672533960
H         1.69699525127718    2.07382264218253   -2.76903145199544
H         0.82658981208149    0.51694318424308   -2.88756272992284
H         1.65416027903815   -0.42756968836284    0.65679813385467
H        -0.70363311311210    2.44761979618222   -3.31249533509676
H        -1.18623019766996    1.57999054172923   -1.84635620005567
12
 energy: -21.590822589351 gnorm: 0.004762526793 xtb: 6.2.3 (830e466)
C         0.90677749541533    1.45239986769120   -2.33080345266469
C        -0.41368702375488    2.20114478939418   -2.29637614286647
C         2.59624277816514   -0.35252079792927    0.08082134341141
O         1.22794698341032    1.15117916821663   -0.97986458199725
O         2.49831438405549    0.52234801240915   -0.92344716475886
O         3.59654904205306   -0.95529261276536    0.29173637241105
H        -0.31484912919480    3.10800441838464   -1.70605018406292
H         1.70015098145059    2.07317091092590   -2.76239609521904
H         0.82254914555300    0.52287873576094   -2.90841591217062
H         1.65814096575609   -0.42734869045161    0.66275979820740
H        -0.70183037750867    2.46206427544370   -3.31014118169499
H        -1.18730524540059    1.58156192291972   -1.85362279859515
12
 energy: -21.590836489973 gnorm: 0.003572310685 xtb: 6.2.3 (830e466)
C         0.90096551317988    1.44642584702759   -2.33650782178843
C        -0.41341274683777    2.20735524094688   -2.29918107649671
C         2.60338459909623   -0.35069756070252    0.08819688430553
O         1.20719869170620    1.12116451451719   -0.98726296181225
O         2.48848404542410    0.51203198035838   -0.92502119335671
O         3.61686182408979   -0.93207099521636    0.30565051330044
H        -0.30763078447403    3.10549926690410   -1.69519737598776
H         1.70364724513480    2.06643220728197   -2.75279500287238
H         0.81192740960646    0.52699594189911   -2.92987407382973
H         1.66820019755234   -0.43657739024553    0.67474961795809
H        -0.69682159969580    2.48581605921822   -3.31075712083845
H        -1.19380439478213    1.58721488801077   -1.86780038858177
12
 energy: -21.590850541421 gnorm: 0.002456211462 xtb: 6.2.3 (830e466)
C         0.90258035425158    1.44751394634301   -2.33794408269027
C        -0.41320074195049    2.20617262271363   -2.29808413292298
C         2.60270307684280   -0.34641721652450    0.09094023178091
O         1.20824882924867    1.12046693380987   -0.99079308871663
O         2.48786580169931    0.50837481466672   -0.92798591433142
O         3.61270307350323   -0.93428913698392    0.30519378793644
H        -0.30794923240885    3.10283692976798   -1.69385923265134
H         1.70438889800387    2.06798183627373   -2.75361394123092
H         0.81353200471640    0.52956441999126   -2.93240217415182
H         1.66812139333638   -0.43300975121398    0.67690837819927
H        -0.69782430275544    2.48584848450438   -3.30802582802855
H        -1.19216915448737    1.58454611665162   -1.86613400319283
12
 energy: -21.590857865061 gnorm: 0.003410908040 xtb: 6.2.3 (830e466)
C         0.90633051953346    1.45031192119024   -2.34183531064224
C        -0.41278122821042    2.20366753331095   -2.29567708594801
C         2.59683316766260   -0.34832005587230    0.08887826611617
O         1.20908681255096    1.11571869553447   -0.99970580606251
O         2.48564127934219    0.49790867491956   -0.93538010701000
O         3.60519801324981   -0.93627579335439    0.30768631706993
H        -0.30933223925445    3.09629869508374   -1.68895779373947
H         1.70594607322236    2.07389844749729   -2.75407944305237
H         0.81825640009439    0.53711845865483   -2.94166354110052
H         1.67208741621161   -0.41515742977894    0.69058077813171
H        -0.70023530511400    2.48722313007747   -3.30193668802613
H        -1.18803090928843    1.57719772273689   -1.86370958573671
12
 energy: -21.590874804863 gnorm: 0.001100435339 xtb: 6.2.3 (830e466)
C         0.90595128745527    1.45020872673344   -2.34232483125608
C        -0.41289050993394    2.20419320635812   -2.29596342005218
C         2.59832407544946   -0.34717558965561    0.09142039958894
O         1.20917077705493    1.11551219195658   -0.99938207655412
O         2.48503157319560    0.49509986641078   -0.93632447366899
O         3.60602795183908   -0.93842187882069    0.30820905443587
H        -0.30963422257936    3.09714620742946   -1.68762770390605
H         1.70481650663775    2.07586532502957   -2.75457520268214
H         0.81841112744701    0.53724415584239   -2.94393616576902
H         1.67233756582353   -0.41417922980623    0.69210100332484
H        -0.70120685071028    2.48762564267352   -3.30291928164242
H        -1.18733928167896    1.57647137584848   -1.86447730181879
12
 energy: -21.590887504028 gnorm: 0.001412398113 xtb: 6.2.3 (830e466)
C         0.90738316273306    1.45232809315588   -2.34574532240214
C        -0.41345402073180    2.20342167200436   -2.29513236597109
C         2.59848951525591   -0.34641568992414    0.09553551106421
O         1.20973857418059    1.11121364126726   -1.00407977950938
O         2.48195423756746    0.48100056285881   -0.94393859665100
O         3.60357417674148   -0.94397975593508    0.31105372959927
H        -0.31159989751498    3.09475883717806   -1.68238594436823
H         1.70440568431898    2.08363591880081   -2.75492081100755
H         0.82225910536606    0.54271019947936   -2.95402823783399
H         1.67598948378993   -0.40000510422697    0.70418061641986
H        -0.70459429036141    2.48960158357144   -3.30126812826093
H        -1.18514573134519    1.57132004177001   -1.86507067107919
12
 energy: -21.590900508205 gnorm: 0.001629621895 xtb: 6.2.3 (830e466)
C         0.90895194620575    1.45507479196809   -2.34935700110829
C        -0.41414144131496    2.20221496298216   -2.29404788336778
C         2.59811656516637   -0.34659700275560    0.09863817298417
O         1.20969192711942    1.10456718049710   -1.00988255223646
O         2.47764311182433    0.46392136616381   -0.95367661359048
O         3.60054060218243   -0.94856124030452    0.31434730188627
H        -0.31406590015944    3.09130445712295   -1.67735503963797
H         1.70479532348862    2.09169476948216   -2.75334976570456
H         0.82700108942349    0.54973427370758   -2.96462346405098
H         1.68136219295090   -0.38199197888155    0.71808403753480
H        -0.70735121202936    2.49216434196923   -3.29865605129472
H        -1.18354420485747    1.56606407804838   -1.86592114141414
12
 energy: -21.590914416251 gnorm: 0.000968458781 xtb: 6.2.3 (830e466)
C         0.90961266774259    1.45721498015468   -2.35190100615682
C        -0.41470128399484    2.20144847530364   -2.29340186034455
C         2.59844822393031   -0.34682153660881    0.10094680366856
O         1.20809877040391    1.09625813748359   -1.01451865838187
O         2.47236372687947    0.44767739440389   -0.96287378314022
O         3.59894126980111   -0.95116289640226    0.31697673483953
H        -0.31624978255345    3.08836830736498   -1.67369755497171
H         1.70554922343218    2.09773856152119   -2.74922119727846
H         0.83066568220925    0.55624301048334   -2.97339095151283
H         1.68774308493386   -0.36502121459343    0.72969902251065
H        -0.70834151385222    2.49505227468571   -3.29666868142891
H        -1.18313006893209    1.56259450620328   -1.86774886780353
12
 energy: -21.590931301487 gnorm: 0.000892308226 xtb: 6.2.3 (830e466)
C         0.91003067308147    1.45932222915047   -2.35510921298432
C        -0.41526350440538    2.20090528737891   -2.29288771122517
C         2.59944890560234   -0.34608676648382    0.10449858889707
O         1.20407421819236    1.08231375151096   -1.02101300478660
O         2.46379083457515    0.42492092907001   -0.97564212980822
O         3.59739950552004   -0.95480620881823    0.31903943189304
H        -0.31946167886800    3.08383229866129   -1.66771270030608
H         1.70698081449516    2.10491539019734   -2.74136194350225
H         0.83467225863200    0.56546985592492   -2.98662119237983
H         1.69855600212358   -0.33971810030945    0.74752510549825
H        -0.70818875257116    2.50062595433553   -3.29428645338144
H        -1.18303927637747    1.55789537938187   -1.87222877791462
12
 energy: -21.590950830569 gnorm: 0.002198019943 xtb: 6.2.3 (830e466)
C         0.91006903830524    1.46162216599418   -2.36022732318458
C        -0.41623927955968    2.20064287172996   -2.29258272583690
C         2.60203029620672   -0.34423838340139    0.11093315932336
O         1.19550475350049    1.05818017457106   -1.03148222979259
O         2.44893145803011    0.38836297437825   -0.99459003412460
O         3.59626617456710   -0.95996515124663    0.32181515305651
H        -0.32407965780325    3.07588468205366   -1.65616599897802
H         1.70952114438272    2.11480206147782   -2.72838911562681
H         0.83949455896442    0.57990482588448   -3.00903124326263
H         1.71844329812376   -0.29893564773679    0.77718850089645
H        -0.70676265300195    2.51232062990182   -3.29104638130445
H        -1.18417913171561    1.55100879639337   -1.88222176116592
12
 energy: -21.590963271196 gnorm: 0.002563845316 xtb: 6.2.3 (830e466)
C         0.90975440156023    1.46214816196601   -2.36367447350154
C        -0.41669994418616    2.20064999618805   -2.29239031801829
C         2.60407212172772   -0.34200075077658    0.11532581149952
O         1.18808161833013    1.04059833021532   -1.03901621708474
O         2.43767555697583    0.36326381779020   -1.00632835863269
O         3.59576431535855   -0.96283719485077    0.32336920552755
H        -0.32683423292831    3.06931558925255   -1.64655179686043
H         1.71138069884327    2.11981037868068   -2.71903992860069
H         0.84202709658801    0.58930831265339   -3.02464384734538
H         1.73382624024599   -0.26965268185734    0.79665494788367
H        -0.70444352468692    2.52256966802637   -3.28847741318869
H        -1.18560434782826    1.54641637271189   -1.89102761167848
12
 energy: -21.590980140369 gnorm: 0.001990540069 xtb: 6.2.3 (830e466)
C         0.90874052689777    1.46125534393189   -2.36689558026826
C        -0.41700126345991    2.20097487321981   -2.29242693397027
C         2.60693525617140   -0.33838604620382    0.11980215793934
O         1.17789166433772    1.02007311575266   -1.04709065183642
O         2.42398047339449    0.33598510827147   -1.01751261344541
O         3.59602331148243   -0.96475236734210    0.32436591004891
H        -0.32932397368767    3.06055183850628   -1.63389857156400
H         1.71361511916528    2.12254146759305   -2.70786768993947
H         0.84319729474397    0.59865169972720   -3.04121622749411
H         1.75306642388831   -0.23626243456930    0.81649515841346
H        -0.69950651572942    2.53697651868500   -3.28554645894623
H        -1.18861831720429    1.54198088242762   -1.90400849893773
12
 energy: -21.590998634333 gnorm: 0.001182143064 xtb: 6.2.3 (830e466)
C         0.90639415284304    1.45839525597492   -2.36958397490628
C        -0.41730639746456    2.20191578748518   -2.29272481846507
C         2.61156193700904   -0.33248418701308    0.12456640068562
O         1.16346903281984    0.99417097717977   -1.05627574038522
O         2.40522419315924    0.30079863783252   -1.03096190491690
O         3.59804599973710   -0.96479266091533    0.32508820075528
H        -0.33274845824348    3.04740184620377   -1.61540161623517
H         1.71614554389919    2.12244503085845   -2.69314410829100
H         0.84261437338432    0.60829611904278   -3.05939139492682
H         1.77960702293417   -0.19377365896575    0.83940443089494
H        -0.68889432374230    2.55952403840943   -3.28159651004972
H        -1.19511307633552    1.53769281390711   -1.92577896415986
12
 energy: -21.590992253894 gnorm: 0.004207274140 xtb: 6.2.3 (830e466)
C         0.90366513200197    1.45601890625121   -2.37268463214215
C        -0.41803387675615    2.20299733420541   -2.29295920256503
C         2.61721406710450   -0.32665890382289    0.13005469100946
O         1.14825219436653    0.96411183129280   -1.06663130586694
O         2.38313497899201    0.25610541742597   -1.04954611776791
O         3.60120868768291   -0.96411016791220    0.32743668520307
H        -0.33807136072288    3.03195875541957   -1.59436045197880
H         1.71843447141688    2.12432859943246   -2.67660307044038
H         0.84272784281528    0.61975162093310   -3.08027623909552
H         1.80974578102430   -0.14383300904336    0.86776025701799
H        -0.67618435561257    2.58562623289416   -3.27652408137640
H        -1.20309356231270    1.53329338292353   -1.95146653199761
12
 energy: -21.591016616841 gnorm: 0.001035332696 xtb: 6.2.3 (830e466)
C         0.90164237106224    1.45296758259272   -2.37087764602298
C        -0.41794895925898    2.20400158356750   -2.29336885761995
C         2.61941619487635   -0.32452547816179    0.12884770786245
O         1.14473555499950    0.96101528225129   -1.06552108564277
O         2.37893364690609    0.25149131879322   -1.04909301556756
O         3.60477098891668   -0.95919583545829    0.32752673932852
H        -0.33887885156122    3.02717028926688   -1.58890098139413
H         1.71797718530856    2.11873155025746   -2.67490692043911
H         0.83927584646638    0.61681249229634   -3.07764358126873
H         1.81531103470622   -0.13980855431467    0.86532880488937
H        -0.66813918581779    2.59480489104226   -3.27521075452342
H        -1.20809582660395    1.53612487786680   -1.96198040960190
12
 energy: -21.591020664846 gnorm: 0.000692617948 xtb: 6.2.3 (830e466)
C         0.90008558075609    1.45062663472691   -2.37170404633271
C        -0.41785232016706    2.20438574741372   -2.29324782789814