12
 energy: -21.546286348790 gnorm: 0.126021881705 xtb: 6.2.3 (830e466)
C         1.66921000000000    1.54686000000000   -2.20026000000000
C         0.95157000000000    0.79764000000000   -1.10875000000000
C         0.71989000000000   -0.52073000000000   -1.18228000000000
O         0.83363000000000    2.53811000000000   -2.74644000000000
O         0.78199000000000    3.52022000000000   -1.86339000000000
O         0.07286000000000   -1.17216000000000   -0.18997000000000
H         1.36002000000000    4.23344000000000   -2.23774000000000
H         2.61106000000000    1.99157000000000   -1.80584000000000
H         1.97006000000000    0.86122000000000   -3.02158000000000
H         1.05066000000000   -1.08901000000000   -2.04596000000000
H        -0.24827000000000   -0.72115000000000    0.60425000000000
H         0.61633000000000    1.35361000000000   -0.23784000000000
12
 energy: -21.558484752443 gnorm: 0.050429498453 xtb: 6.2.3 (830e466)
C         1.67721779675051    1.52812842302765   -2.19447042957541
C         0.97400613444963    0.78064394413360   -1.10107491572125
C         0.71514069695951   -0.52282957412125   -1.16331968501862
O         0.86063262723420    2.53224026892455   -2.76313027476320
O         0.75465764083045    3.58027274765549   -1.87638327803847
O         0.06832923573923   -1.21033565809510   -0.20033573174776
H         1.35649539056134    4.27329915772960   -2.21861641965224
H         2.60458862540744    1.99044908757032   -1.80850865447623
H         1.94974288239032    0.85144403317169   -3.01542194850217
H         1.02861856592353   -1.11423276609801   -2.00976394017550
H        -0.23223641731524   -0.71129876779730    0.57027869053928
H         0.63181682106907    1.36183910389878   -0.25505341286842
12
 energy: -21.561704308165 gnorm: 0.007372286330 xtb: 6.2.3 (830e466)
C         1.69051536581305    1.51765513858240   -2.17951430509069
C         0.98095496682681    0.77325160155923   -1.09363372876402
C         0.70045988086972   -0.52041715164721   -1.15437884941798
O         0.89267605517813    2.52735080127957   -2.77502752349217
O         0.73013657905824    3.61579161911723   -1.88833464570251
O         0.06620835168530   -1.24434744075212   -0.21145079903292
H         1.33235824881094    4.29842688610554   -2.21840541529800
H         2.61552926823694    1.97471731050594   -1.79729813734412
H         1.93135633258559    0.85652749759063   -3.01306428240580
H         1.00387426567703   -1.13648211466985   -1.98712697933885
H        -0.21082335530480   -0.69321986553492    0.53560407521566
H         0.65576404056305    1.37036571786357   -0.25316940932860
12
 energy: -21.561856348698 gnorm: 0.005457165608 xtb: 6.2.3 (830e466)
C         1.69529263453278    1.51480163984484   -2.17775729057719
C         0.98744401014810    0.77215289197988   -1.08918149162565
C         0.70479217187252   -0.52071698658843   -1.15070395360900
O         0.90231748096157    2.52738341648749   -2.77532988708919
O         0.72327171033145    3.61557174946102   -1.88518411165306
O         0.06175630237938   -1.24619520475132   -0.21361647030079
H         1.31184805957501    4.30613995084821   -2.22014687916372
H         2.62393164099238    1.96342894742594   -1.79484717015892
H         1.92748151528307    0.85598940560985   -3.01690394879333
H         0.99738498556810   -1.14016008284667   -1.98680137279674
H        -0.21416694391207   -0.68109086053638    0.52253954970312
H         0.66765643226771    1.37231513306558   -0.24786697393554
12
 energy: -21.561953079402 gnorm: 0.004102537736 xtb: 6.2.3 (830e466)
C         1.70236723272395    1.51153048346906   -2.17673731923566
C         0.98961872072171    0.77153832306490   -1.08849472940043
C         0.70157766351125   -0.52003970662563   -1.15269206698764
O         0.91623272244771    2.52859616125918   -2.77392105935855
O         0.71919226796871    3.60933093816717   -1.87683586874671
O         0.05779875599502   -1.24404192241646   -0.21296896292310
H         1.28211722396327    4.31669379697611   -2.22258028208661
H         2.63647780797463    1.94938163395452   -1.79327126666374
H         1.92633908436544    0.85363876933324   -3.01998574084756
H         0.99380531568972   -1.14293609548343   -1.98741459432061
H        -0.21523500873699   -0.66699159388805    0.51328519574857
H         0.67871821337558    1.37291921218939   -0.24418330517795
12
 energy: -21.562039593262 gnorm: 0.004729821836 xtb: 6.2.3 (830e466)
C         1.71439625416758    1.50654768590647   -2.17645505047164
C         0.99705876603688    0.76929568716090   -1.08821460849175
C         0.70070128614942   -0.52032725293123   -1.15499996758487
O         0.93686532092057    2.53007065741794   -2.76973991193593
O         0.71796395635288    3.59500222139036   -1.85981526469306
O         0.04971174703282   -1.23627114961494   -0.21128455585461
H         1.23187377400108    4.33271236207258   -2.22760704830047
H         2.65519269816478    1.93181548255808   -1.79342028118849
H         1.92923226942862    0.84945112663716   -3.02317987044042
H         0.98323262723425   -1.14451349960052   -1.99241679617002
H        -0.21854468605280   -0.64655911550756    0.50452654854143
H         0.69132598656392    1.37239579451079   -0.24319319341016
12
 energy: -21.562086576540 gnorm: 0.005485183051 xtb: 6.2.3 (830e466)
C         1.72120462644564    1.50391880454034   -2.17782544996935
C         0.99987579760059    0.76812781024182   -1.09125921991487
C         0.69692850299494   -0.51996592619544   -1.15821376221939
O         0.94906945747936    2.53183955374375   -2.76852212272422
O         0.71952575282482    3.58560612805029   -1.84893549621876
O         0.04499992490853   -1.22963658922188   -0.20968771247182
H         1.20318986792603    4.33894202539846   -2.22762883501182
H         2.66379518970952    1.92427589623316   -1.79390089367805
H         1.93363334142958    0.84724749823832   -3.02472940819097
H         0.97835600457944   -1.14548401306797   -1.99400127589401
H        -0.21884815334545   -0.63676288450749    0.50462600771015
H         0.69727968744699    1.37151169654664   -0.24572183141689
12
 energy: -21.562147481985 gnorm: 0.004168818477 xtb: 6.2.3 (830e466)
C         1.73073188203529    1.50084235125127   -2.18103620582742
C         1.00466733099879    0.76700992933251   -1.09703401366227
C         0.69249998441506   -0.51894085630866   -1.16176468707004
O         0.96514010567404    2.53414535237570   -2.76928578566192
O         0.72157548902506    3.57223848662397   -1.83492943257914
O         0.03784876172791   -1.21891688266134   -0.20798870063045
H         1.16603266856347    4.34205671844471   -2.22331578416080
H         2.67329303482098    1.91801464287847   -1.79459552021843
H         1.94297406685632    0.84481647192935   -3.02705828856238
H         0.96856352537758   -1.14633621333485   -1.99636948994031
H        -0.21823941533094   -0.62636236423614    0.50951733851906
H         0.70392256583644    1.37105236370502   -0.25193943020590
12
 energy: -21.562180126328 gnorm: 0.004597932652 xtb: 6.2.3 (830e466)
C         1.74084107542499    1.49757370575694   -2.18300176355225
C         1.01105899707164    0.76631423749812   -1.10025458535430
C         0.68901705790344   -0.51736374171024   -1.16357143659312
O         0.97964903179320    2.53516443261279   -2.76906277514518
O         0.72367220999466    3.56151430899086   -1.82226453190041
O         0.02918463705335   -1.21074957017548   -0.20892666832693
H         1.12779217621636    4.34775747624152   -2.22284762567310
H         2.68424008983867    1.91102431160843   -1.79456873163665
H         1.95059559886779    0.84243872096416   -3.03039221085575
H         0.95837060428361   -1.14799595368970   -1.99768496187952
H        -0.21963327396650   -0.61778474544357    0.51139191165990
H         0.71422179551877    1.37172681734619   -0.25461662074271
12
 energy: -21.562215865986 gnorm: 0.001738968037 xtb: 6.2.3 (830e466)
C         1.75050667465278    1.49518272523783   -2.18386324147575
C         1.01773988599340    0.76654988275230   -1.10217624262951
C         0.68466377657715   -0.51417302162186   -1.16487696213808
O         0.99155100201321    2.53566111670920   -2.76870706955043
O         0.72842648150744    3.55397850566118   -1.81238291723685
O         0.01944067657670   -1.20386922214299   -0.21276878299011
H         1.09102701574585    4.34947810709575   -2.22593848589853
H         2.69401890619065    1.90692577181162   -1.79410587019164
H         1.95912305792821    0.84079684477262   -3.03244394500119
H         0.94729658634071   -1.14806772221464   -1.99874689314527
H        -0.22128818263299   -0.61559340557361    0.51502834599399
H         0.72650411910687    1.37275041751262   -0.25481793573664
12
 energy: -21.562094013904 gnorm: 0.017698820843 xtb: 6.2.3 (830e466)
C         1.77428403760675    1.48819290663211   -2.18048980386256
C         1.03570941602405    0.76479967098689   -1.09962209484288
C         0.67611291918744   -0.50851130250139   -1.16795715763645
O         1.02066488494889    2.53571985432717   -2.75980775543273
O         0.74639954751326    3.53947256697359   -1.78684230034899
O        -0.00384057823777   -1.19241332941503   -0.22275102406500
H         0.99263585075827    4.36762937654238   -2.25303283451154
H         2.72237435637629    1.89064569141633   -1.79181100902070
H         1.97384224466043    0.83566755121620   -3.03381360333042
H         0.92022083359931   -1.14615946963180   -2.00590075157685
H        -0.22873453709944   -0.60750247720066    0.51355254973448
H         0.75934102466251    1.37207896065423   -0.24732421510637
12
 energy: -21.562257447755 gnorm: 0.004526378192 xtb: 6.2.3 (830e466)
C         1.76219031010187    1.49212277197754   -2.17874064342544
C         1.02781792797949    0.76575054125258   -1.09649025545944
C         0.68010872756376   -0.51044545398147   -1.16602625153819
O         1.00381198507856    2.53420905231037   -2.76195345411141
O         0.74145936115001    3.55158426910514   -1.80316426321038
O         0.00710538165780   -1.20160880841310   -0.22087563300003
H         1.04036130327625    4.35916482308008   -2.24978279213233
H         2.70839900554446    1.89988413805106   -1.79131561292235
H         1.96578969992060    0.83829194502893   -3.02982177109532
H         0.93125903360617   -1.14394805546204   -2.00501278867896
H        -0.22578880689333   -0.61685550686717    0.51242795715287
H         0.74649607101433    1.37147028391810   -0.24504449157903
12
 energy: -21.562282159005 gnorm: 0.001962714853 xtb: 6.2.3 (830e466)
C         1.76258787344275    1.49224588779721   -2.17560934172472
C         1.02810483070829    0.76554764850589   -1.09337954365143
C         0.67745399203100   -0.50956420180352   -1.16732612237236
O         1.00412756007130    2.53322453335203   -2.76081071220159
O         0.74683570501829    3.55541289386962   -1.80585107416645
O         0.00649993819087   -1.20396592698579   -0.22308125135986
H         1.03508202484051    4.35959955353345   -2.25983544850528
H         2.70805661178889    1.90109298977700   -1.78818571536005
H         1.96710717809306    0.83781779726883   -3.02570240251086
H         0.92726118892739   -1.13995050390333   -2.00902643381763
H        -0.22456434588721   -0.62138429960773    0.51266322138605
H         0.75045744277485    1.36954362819637   -0.23965517571584
12
 energy: -21.562334301883 gnorm: 0.001645611360 xtb: 6.2.3 (830e466)
C         1.76751273419979    1.49138903605644   -2.16533749315117
C         1.03259691192436    0.76386672292730   -1.08310765979050
C         0.66920794962681   -0.50692077101901   -1.17168516723513
O         1.01022481637055    2.52967084339807   -2.75590474924133
O         0.76686303624522    3.56440752663499   -1.80965665399818
O         0.00092421020674   -1.20880846981738   -0.23049659256666
H         1.00158041732164    4.36474576860271   -2.29639896146770
H         2.71069439293991    1.90278297505788   -1.77673383394785
H         1.97448651560799    0.83508926720185   -3.01282945315295
H         0.90841012586400   -1.12625554442445   -2.02486603256457
H        -0.22200722541342   -0.63214918615160    0.51245279335645
H         0.76851611510638    1.36180183153323   -0.22123619624041
12
 energy: -21.561688276156 gnorm: 0.033684312994 xtb: 6.2.3 (830e466)
C         1.79086712182072    1.48715970859319   -2.13830038601723
C         1.05253972689552    0.75808970875000   -1.05804139871547
C         0.64367863129227   -0.49777863184692   -1.18428502526483
O         1.03721438880995    2.51974806229881   -2.73980742694998
O         0.82900229840539    3.58129905025701   -1.80771313882440
O        -0.02571544638426   -1.21378285348177   -0.25416365668832
H         0.87040199737736    4.38145327545710   -2.40132457163850
H         2.72836959933437    1.90419052653362   -1.74477562199005
H         2.00443365774948    0.82703455250455   -2.98121088055721
H         0.84503348670934   -1.09039390240430   -2.06810858600503
H        -0.21707456138214   -0.65607362551921    0.51367290473544
H         0.83025909937196    1.33867412885795   -0.17174221208441
12
 energy: -21.562368514194 gnorm: 0.006530592389 xtb: 6.2.3 (830e466)
C         1.77901703040657    1.48995637964782   -2.15191752421614
C         1.04266021481459    0.76095395271363   -1.07100050169436
C         0.65648524057660   -0.50241715369387   -1.17788733707126
O         1.02289038395946    2.52316949753722   -2.75054373964784
O         0.79296352119885    3.57230936195075   -1.81238616539206
O        -0.01233992612124   -1.21078176169886   -0.24178401306210
H         0.94068217125670    4.37151820609103   -2.34480574710687
H         2.71828127909208    1.90596405721995   -1.75939837008606
H         1.99209967706457    0.83106733762085   -2.99618061715842
H         0.87313222519897   -1.10739604663813   -2.04790168602779
H        -0.21746454693656   -0.64369993685579    0.51382976318699
H         0.80060272948940    1.34897610610543   -0.19582406172411
12
 energy: -21.562390418783 gnorm: 0.003394703440 xtb: 6.2.3 (830e466)
C         1.77902081429767    1.49021512087865   -2.15305813027206
C         1.04326306536493    0.76064285792297   -1.07233765032556
C         0.65632685207077   -0.50220388286999   -1.17793956237131
O         1.02205276507463    2.52285463534007   -2.75099847844165
O         0.79314735545679    3.57113869921821   -1.81171719286102
O        -0.01356085384298   -1.20886047256427   -0.24162745409723
H         0.94019838849770    4.36875422050387   -2.34171752972190
H         2.71750785414540    1.90754935064268   -1.75973727447661
H         1.99393484175891    0.83161544175325   -2.99751327397540
H         0.87326325487208   -1.10789481169936   -2.04651898021284
H        -0.21731259614340   -0.64197781592945    0.51425273453812
H         0.80116825844746    1.34778665680339   -0.19688720778255
12
 energy: -21.562403537719 gnorm: 0.000982671506 xtb: 6.2.3 (830e466)
C         1.78122519226991    1.49025253113192   -2.15365997593616
C         1.04550108288467    0.75988690641904   -1.07373369705959
C         0.65491986094724   -0.50176960744902   -1.17877291602033
O         1.02315284000056    2.52191241379352   -2.75126797195974
O         0.79396696277993    3.56904239106142   -1.81032249881107
O        -0.01656551410716   -1.20564170363807   -0.24175837451749
H         0.93220908417798    4.36566008216436   -2.33903789099986
H         2.71878212136937    1.90912357623341   -1.75954896407740
H         1.99850383377022    0.83205804134569   -2.99796213983994
H         0.86925559758395   -1.10871975749619   -2.04683539672535
H        -0.21618300439228   -0.63836708629903    0.51471839966991
H         0.80424194271558    1.34618221273300   -0.19761857372298
12
 energy: -21.562416146597 gnorm: 0.001449171670 xtb: 6.2.3 (830e466)
C         1.78527134161029    1.48960784366921   -2.15362353356150
C         1.04922865046868    0.75874861609146   -1.07446770486417
C         0.65263530498505   -0.50074744864150   -1.18037252050289
O         1.02645382039919    2.52100277585316   -2.75039039258855
O         0.79764567344902    3.56653294942559   -1.80728946962221
O        -0.02145140808979   -1.20137004154446   -0.24272843480281
H         0.91467456716151    4.36305790598883   -2.33941473995593
H         2.72216419859869    1.90920690264049   -1.75870808054711
H         2.00396690094153    0.83191922842762   -2.99809437113701
H         0.86338010655938   -1.10878252392300   -2.04824656086641
H        -0.21586565757014   -0.63345214065194    0.51417312042199
H         0.81090650148658    1.34389593266457   -0.19663731197341
12
 energy: -21.562373934444 gnorm: 0.013679215109 xtb: 6.2.3 (830e466)
C         1.81434213651680    1.48418510161522   -2.14971586568604
C         1.07435848850290    0.75197696400164   -1.07481711677072
C         0.63654598960333   -0.49329083379352   -1.19111522446405
O         1.05349710714799    2.51481062105444   -2.74408739865017
O         0.82565488830819    3.55266015288701   -1.78896143061361
O        -0.05323176686832   -1.17687355561419   -0.25104848207684
H         0.78905421712472    4.35041938031549   -2.35250792532661
H         2.74755367781788    1.90699245610951   -1.75019196539392
H         2.03907519823197    0.82888894384201   -2.99490206774503
H         0.81822529914743   -1.10377895948064   -2.06399943700238
H        -0.21316721641459   -0.60632202685673    0.51136395677023
H         0.85710198088167    1.32995175591979   -0.18581704304086
12
 energy: -21.562456096833 gnorm: 0.002070629563 xtb: 6.2.3 (830e466)
C         1.80035212841170    1.48672467923339   -2.15127163552879
C         1.06215946675283    0.75554049737227   -1.07403153569056
C         0.64482552487356   -0.49685357621591   -1.18578965713645
O         1.04043506920404    2.51775553905591   -2.74714443291332
O         0.81102923141748    3.55965413635382   -1.79854215125516
O        -0.03726126049491   -1.18919438516853   -0.24701587064785
H         0.85081341658478    4.35614488680982   -2.34597536190995
H         2.73566891846458    1.90760036809575   -1.75443151347346
H         2.02115944205206    0.83016667467997   -2.99614755385762
H         0.84012842517509   -1.10573582018802   -2.05698486080326
H        -0.21471661114024   -0.61965395621658    0.51233837960716
H         0.83441624869901    1.33747095618814   -0.19080380639075
12
 energy: -21.562467366071 gnorm: 0.000875633245 xtb: 6.2.3 (830e466)
C         1.80086558641638    1.48624089035190   -2.15060012445959
C         1.06203763733837    0.75601491476253   -1.07293313448347
C         0.64465771214897   -0.49630218785405   -1.18578551410846
O         1.04201835586401    2.51854911512606   -2.74576511728609
O         0.81605115739374    3.56193592421792   -1.79835060582358
O        -0.03685682166531   -1.19011289505688   -0.24771055618082
H         0.84443633185290    4.35561394659322   -2.34878948950164
H         2.73729005127329    1.90537073355230   -1.75484223883986
H         2.01900571319231    0.82955695201719   -2.99582667083019
H         0.84085417169839   -1.10405237024969   -2.05754914962848
H        -0.21656713415728   -0.62117112524193    0.51197108621340
H         0.83521723864419    1.33797610178144   -0.18961848507123
12
 energy: -21.562504153715 gnorm: 0.002618093598 xtb: 6.2.3 (830e466)
C         1.80406688711135    1.48305567300240   -2.14713536797009
C         1.06292809072480    0.75797159245402   -1.06649504971775
C         0.64521709767701   -0.49390135947825   -1.18451693553214
O         1.05286585796748    2.52347593092272   -2.73855312221325
O         0.84999750212109    3.57502741978194   -1.79502250891405
O        -0.03656339971311   -1.19451340976228   -0.25191648836468
H         0.80037652108895    4.35405076211775   -2.36557783873247
H         2.74677959314863    1.89190093587846   -1.75694159685968
H         2.00799866935791    0.82547888523181   -2.99448286781317
H         0.84300289483879   -1.09465302810586   -2.06073120002078
H        -0.22707897467433   -0.62947143179047    0.50940059226557
H         0.83941926035139    1.34119802974780   -0.18382761612750
12
 energy: -21.562517088645 gnorm: 0.003536510264 xtb: 6.2.3 (830e466)
C         1.80536183072920    1.48192936708669   -2.14681563521899
C         1.06223328354300    0.75858320026690   -1.06627535037171
C         0.64393287126210   -0.49304808263830   -1.18443698506522
O         1.05866863313301    2.52556407373015   -2.73777305246796
O         0.86408833268242    3.57886302700932   -1.79308302850383
O        -0.03775847857941   -1.19467182731972   -0.25265469811286
H         0.78108221202453    4.35317942079627   -2.36825461332262
H         2.74958580800178    1.88726682951001   -1.75673209933514
H         2.00700666306849    0.82394025550595   -2.99454461313231
H         0.84280450545344   -1.09338390673958   -2.06071045993603
H        -0.22800468551289   -0.63096409211002    0.50916724798816
H         0.84000902419430    1.34236173490237   -0.18368671252151
12
 energy: -21.562539504750 gnorm: 0.004570638424 xtb: 6.2.3 (830e466)
C         1.80753089554976    1.48038472783915   -2.14783302054313
C         1.06021725111365    0.75945850411132   -1.06879493732686
C         0.64143602533597   -0.49211278424446   -1.18439224523161
O         1.07037240056877    2.52927304549255   -2.73972408324593
O         0.88449625841923    3.58244537934216   -1.79002484874986
O        -0.04089972961642   -1.19268805581223   -0.25247171600825
H         0.74995034805597    4.35030297269164   -2.36571296581237
H         2.75289118853050    1.88061800240390   -1.75501575610019
H         2.00963332874181    0.82162497243340   -2.99544580953310
H         0.84004465902310   -1.09384115700986   -2.05986042132710
H        -0.22543652380445   -0.63041779592371    0.51018613521875
H         0.83877389808207    1.34457218867617   -0.18671033134037
12
 energy: -21.562553782315 gnorm: 0.002247085222 xtb: 6.2.3 (830e466)
C         1.80855661268181    1.48031147455535   -2.14985919013466
C         1.05827996407186    0.75976579321372   -1.07312817444408
C         0.63954562652939   -0.49204379621147   -1.18512270822491
O         1.07584169016345    2.53048389201462   -2.74337245427939
O         0.88631781458043    3.58006466113848   -1.78906356028748
O        -0.04299018371679   -1.18930867339923   -0.25082612788002
H         0.74218488533108    4.34749044617714   -2.35704721726254
H         2.75292904180825    1.87958926821181   -1.75302009672218
H         2.01493883561662    0.82135808690864   -2.99679064143908
H         0.83736412682250   -1.09723451209714   -2.05847574435613
H        -0.22013948898293   -0.62622048360628    0.51211696225093
H         0.83618107509431    1.34536384309438   -0.19121104722048
12
 energy: -21.562566950870 gnorm: 0.003349816929 xtb: 6.2.3 (830e466)
C         1.81244702970957    1.47906544248199   -2.15086247634851
C         1.05830377452732    0.76010553437935   -1.07593256117396
C         0.63840727541408   -0.49147536970768   -1.18606460162538
O         1.08430135895789    2.53248590617786   -2.74272682605774
O         0.89985671722133    3.58102892382871   -1.78565564211408
O        -0.04648353469485   -1.18537477759852   -0.25077516854606
H         0.71581803623173    4.34260195118967   -2.35335399092284
H         2.75794531221753    1.87420157450272   -1.75189081191803
H         2.01774882523213    0.82022747694508   -2.99825402548949
H         0.83419848602861   -1.09853160538563   -2.05869033661122
H        -0.21893066743878   -0.62117632350370    0.51297969018833
H         0.83539738659342    1.34646126669018   -0.19457324938103
12
 energy: -21.562578405458 gnorm: 0.003535850115 xtb: 6.2.3 (830e466)
C         1.81644476055417    1.47817799298787   -2.15179275751318
C         1.05987385206544    0.75989892490997   -1.07806771914750
C         0.63820770094521   -0.49117930926600   -1.18734852248324
O         1.08975659848163    2.53372891106926   -2.74089074296265
O         0.90768149144904    3.58083599961511   -1.78261436914768
O        -0.04992068877788   -1.18076536973279   -0.25085145885749
H         0.69571159631143    4.33670945733088   -2.34906937851588
H         2.76313006509867    1.87000774205320   -1.75206178780317
H         2.01944184268255    0.82020992656986   -3.00014050651048
H         0.83277110487188   -1.10055941996777   -2.05860710876585
H        -0.22000886068976   -0.61391375192418    0.51270820354079
H         0.83592053700758    1.34646889635462   -0.19706385183367
12
 energy: -21.562589208408 gnorm: 0.001695011264 xtb: 6.2.3 (830e466)
C         1.82006771497175    1.47761581729410   -2.15250435123922
C         1.06299405660441    0.75922909358460   -1.07894151270336
C         0.63899490333164   -0.49107984916082   -1.18854832106334
O         1.09176850525776    2.53408213969196   -2.73834900000840
O         0.90940717282632    3.57973661121445   -1.78032363075084
O        -0.05261907702842   -1.17630735268931   -0.25095896159586
H         0.68358319614923    4.33044758787694   -2.34458503574933
H         2.76786838354621    1.86757885674930   -1.75392641912556
H         2.01964905521554    0.82107512402887   -3.00222680439931
H         0.83324176028840   -1.10275855237425   -2.05807299922412
H        -0.22408686307102   -0.60565220412857    0.51076883608453
H         0.83814119190814    1.34565272791277   -0.19813180022521
12
 energy: -21.562592595831 gnorm: 0.005033555995 xtb: 6.2.3 (830e466)
C         1.82677349691671    1.47531290696907   -2.15425749808284
C         1.06620888188004    0.75930203801975   -1.08116229570890
C         0.63766674753935   -0.48951639549430   -1.18984506084372
O         1.10434349326565    2.53769886806366   -2.73725029324298
O         0.92803774969175    3.58136600794042   -1.77531174177146
O        -0.05822753600464   -1.16905355597243   -0.25091013676733
H         0.64112864764513    4.31861872551179   -2.33528212223879
H         2.77721974790504    1.85884234446489   -1.75647482901647
H         2.02110388758575    0.81996366962421   -3.00588980537034
H         0.83281311764402   -1.10535634426652   -2.05593251152434
H        -0.23042473148750   -0.59433454570116    0.50733456194918
H         0.84236649741867    1.34677628084067   -0.20081826738203
12
 energy: -21.562604903204 gnorm: 0.001872486045 xtb: 6.2.3 (830e466)
C         1.82578256942007    1.47541355087989   -2.15387309607788
C         1.06650396236601    0.75956287015378   -1.07981521414137
C         0.63790239859471   -0.48917607256749   -1.18912466961811
O         1.10253178276089    2.53691826933386   -2.73822357854452
O         0.92493459488827    3.58122811439594   -1.77668000660846
O        -0.05687472419931   -1.17057176825324   -0.25097916930298
H         0.64720387109874    4.31927790665527   -2.33572707138883
H         2.77580801607713    1.86054758307125   -1.75712200700639
H         2.02044972449469    0.81958129961118   -3.00516485989559
H         0.83293871932144   -1.10374281139128   -2.05608717492981
H        -0.23156573545782   -0.59673843464555    0.50652453470257
H         0.84339482063515    1.34731949275642   -0.19952768718865
12
 energy: -21.562612906051 gnorm: 0.000882346111 xtb: 6.2.3 (830e466)
C         1.82856435293599    1.47424799226675   -2.15393468308999
C         1.06863007230128    0.76070843407867   -1.07910439480033
C         0.63741986505494   -0.48712652083984   -1.18872018498247
O         1.10673623698628    2.53649441454588   -2.73927917767962
O         0.93085554678998    3.58142224085352   -1.77686687608489
O        -0.05804350923865   -1.16898170017668   -0.25162867082668
H         0.63198346531207    4.31255497048135   -2.33132134237898
H         2.77899247350805    1.85897039069286   -1.75814240593441
H         2.02185647300924    0.81738820587937   -3.00497375389458
H         0.82975986266676   -1.10039736097807   -2.05726337705035
H        -0.23474430448373   -0.59550297817863    0.50481819243881
H         0.84699946515776    1.34984191137486   -0.19938332571653
12
 energy: -21.562620322123 gnorm: 0.001919423887 xtb: 6.2.3 (830e466)
C         1.83371003138420    1.47259907569722   -2.15427205727308
C         1.07115181585254    0.76224684961247   -1.07933107141408
C         0.63485917761286   -0.48376488223986   -1.18960529904505
O         1.11521326213930    2.53690574710671   -2.73990280286975
O         0.94372577137291    3.58240795334625   -1.77665328235626
O        -0.06219595184468   -1.16483965034618   -0.25320438722748
H         0.60131882455826    4.30104648351684   -2.32482501866803
H         2.78532668368016    1.85464050463217   -1.75871288258940
H         2.02494456988729    0.81468431287941   -3.00502120751042
H         0.82561503610188   -1.09676012984286   -2.05885319080987
H        -0.23792954754012   -0.59166273195274    0.50373878107130
H         0.85327032679537    1.35211646759060   -0.19915758130788
12
 energy: -21.562626287699 gnorm: 0.001864159160 xtb: 6.2.3 (830e466)
C         1.83678012951550    1.47212320272541   -2.15353446579763
C         1.07328192059801    0.76316117495571   -1.07825824147181
C         0.63221271417523   -0.48096905226636   -1.19064696682984
O         1.11908056128707    2.53606473654682   -2.74013885749252
O         0.95153327412400    3.58383697990782   -1.77916373601079
O        -0.06627446845355   -1.16255411674263   -0.25579511360018
H         0.58304723316063    4.29267082959631   -2.32329936087373
H         2.78866815617258    1.85366469630626   -1.75785526559588
H         2.02815290672149    0.81306275530686   -3.00325269121016
H         0.82095116762057   -1.09195961084953   -2.06197219149721
H        -0.23809517671063   -0.59166540372167    0.50459205019915
H         0.85967158178905    1.35218380823505   -0.19647515981941
12
 energy: -21.562631287112 gnorm: 0.001408895508 xtb: 6.2.3 (830e466)
C         1.83824955671808    1.47269525906458   -2.15126500043946
C         1.07504529504887    0.76332131576587   -1.07567011688766