      -----------------------------------------------------------      
     |                   =====================                   |     
     |                           x T B                           |     
     |                   =====================                   |     
     |                         S. Grimme                         |     
     |          Mulliken Center for Theoretical Chemistry        |     
     |                    University of Bonn                     |     
      -----------------------------------------------------------      

   * xtb version 6.2.3 (830e466) compiled by 'ehlert@majestix' on 2020-03-16

   xtb is free software: you can redistribute it and/or modify it under
   the terms of the GNU Lesser General Public License as published by
   the Free Software Foundation, either version 3 of the License, or
   (at your option) any later version.
   
   xtb is distributed in the hope that it will be useful,
   but WITHOUT ANY WARRANTY; without even the implied warranty of
   MERCHANTABILITY or FITNESS FOR A PARTICULAR PURPOSE.  See the
   GNU Lesser General Public License for more details.
   
   Cite this work as:
   * S. Grimme, C. Bannwarth, P. Shushkov, J. Chem. Theory Comput., 2017,
     13, 1989-2009. DOI: 10.1021/acs.jctc.7b00118
   * C. Bannwarth, S. Ehlert and S. Grimme., J. Chem. Theory Comput., 2019,
     15, 1652-1671. DOI: 10.1021/acs.jctc.8b01176
   * P. Pracht, E. Caldeweyher, S. Ehlert, S. Grimme, ChemRxiv, 2019, preprint.
     DOI: 10.26434/chemrxiv.8326202.v1
   
   for DFT-D4:
   * E. Caldeweyher, C. Bannwarth and S. Grimme, J. Chem. Phys., 2017,
     147, 034112. DOI: 10.1063/1.4993215
   * E. Caldeweyher, S. Ehlert, A. Hansen, H. Neugebauer, S. Spicher,
     C. Bannwarth and S. Grimme, J. Chem. Phys., 2019, 150, 154122.
     DOI: 10.1063/1.5090222
   
   for sTDA-xTB:
   * S. Grimme and C. Bannwarth, J. Chem. Phys., 2016, 145, 054103.
     DOI: 10.1063/1.4959605
   
   in the mass-spec context:
   * V. Asgeirsson, C. Bauer and S. Grimme, Chem. Sci., 2017, 8, 4879.
     DOI: 10.1039/c7sc00601b
   
   for metadynamics refer to:
   * S. Grimme, J. Chem. Theory Comput., 2019, 155, 2847-2862
     DOI: 10.1021/acs.jctc.9b00143
   
   with help from (in alphabetical order)
   C. Bannwarth, F. Bohle, G. Brandenburg, E. Caldeweyher, M. Checinski,
   S. Dohm, S. Ehlert, S. Ehrlich, F. März, H. Neugebauer, J. Pisarek,
   P. Pracht, P. Shushkov, and S. Spicher.
   
 * started run on 2020/12/23 at 21:41:00.497     

           -------------------------------------------------
          |                Calculation Setup                |
           -------------------------------------------------

          program call               : xtb -c 0 -u 0 -a 1.0 --iterations 100 --opt normal --namespace product_9 /scratch/bell/zhao922/YARP/paper-example/potential_product/test/reaction_channel/pp_0/pp_14_1.xyz
          hostname                   : bell-fe05.rcac.purdue.edu
          calculation namespace      : product_9
          coordinate file            : /scratch/bell/zhao922/YARP/paper-example/potential_product/test/reaction_channel/pp_0/pp_14_1.xyz
          omp threads                :                    32
          number of atoms            :                    12
          number of electrons        :                    36
          charge                     :                     0
          spin                       :                   0.0
          first test random number   :      0.27756139896471


molecular fragmentation (1/2 indicates fragments):
111121212111
# atoms in fragment 1/2:     9     3
 fragment masses (1/2) :       72.06       18.02
CMA distance (Bohr)    :   8.360
constraining FC (au)   :  0.0500
           ------------------------------------------------- 
          |                 G F N 2 - x T B                 |
          | Geometry, Frequencies, Noncovalent interactions |
          |            JCTC 2019 parametrisation            |
           ------------------------------------------------- 
             k(s)              :                1.8500
             k(p)              :                2.2300
             k(d)              :                2.2300
             k(f)              :                2.0000
             kEN (H0ij)        :               -2.0000
             D4 a1             :                0.5200
             D4 a2             :                5.0000
             D4 s6             :                1.0000
             D4 s8             :                2.7000
             D4 s9             :                5.0000
             alphaj            :                2.0000

  Z AO/shell   Hii/eV     exponent
  1     Wed Apr 25 08:07:45 CEST 2018   EN: 2.200 GM2: 0.406  GM3: 0.0800  RAES: 1.40
     1s    -10.707211    1.230000
  6     Wed Apr 25 08:07:45 CEST 2018   EN: 2.550 GM2: 0.538  GM3: 0.1500  RAES: 3.00
     2s    -13.970922    2.096432
     2p    -10.063292    1.800000
  8     Wed Apr 25 08:07:45 CEST 2018   EN: 3.440 GM2: 0.452  GM3:-0.0517  RAES: 1.80
     2s    -20.229985    2.439742
     2p    -15.503117    2.137023

           ------------------------------------------------- 
          |        Self-Consistent Charge Iterations        |
           ------------------------------------------------- 

          ...................................................
          :                      SETUP                      :
          :.................................................:
          :  # basis functions                  30          :
          :  # atomic orbitals                  30          :
          :  # shells                           18          :
          :  # electrons                        36          :
          :  max. iterations                   100          :
          :  Hamiltonian                  GFN2-xTB          :
          :  restarted?                      false          :
          :  GBSA solvation                  false          :
          :  PC potential                    false          :
          :  electronic temp.          300.0000000     K    :
          :  accuracy                    1.0000000          :
          :  -> integral cutoff          0.2500000E+02      :
          :  -> integral neglect         0.1000000E-07      :
          :  -> SCF convergence          0.1000000E-05 Eh   :
          :  -> wf. convergence          0.1000000E-03 e    :
          :  Broyden damping             0.4000000          :
          ...................................................

 iter      E             dE          RMSdq      gap      omega  full diag
   1    -21.7233775 -0.217234E+02  0.563E+00    4.04       0.0  T
   2    -21.7775776 -0.542001E-01  0.273E+00    3.13       1.0  T
   3    -21.7841704 -0.659276E-02  0.197E+00    3.56       1.0  T
   4    -21.7926579 -0.848754E-02  0.192E-01    3.33       1.0  T
   5    -21.7927847 -0.126788E-03  0.856E-02    3.36       1.0  T
   6    -21.7928200 -0.352793E-04  0.329E-02    3.35       1.0  T
   7    -21.7928194  0.616138E-06  0.153E-02    3.35       1.9  T
   8    -21.7928211 -0.168502E-05  0.486E-03    3.35       5.9  T
   9    -21.7928212 -0.167082E-06  0.162E-03    3.35      17.8  T
  10    -21.7928212 -0.113382E-07  0.524E-04    3.35      55.1  T
  11    -21.7928212 -0.950585E-09  0.260E-04    3.35     111.0  T

   *** convergence criteria satisfied after 11 iterations ***

         #    Occupation            Energy/Eh            Energy/eV
      -------------------------------------------------------------
         1        2.0000           -0.7451332             -20.2761
       ...           ...                  ...                  ...
        12        2.0000           -0.5429758             -14.7751
        13        2.0000           -0.5285832             -14.3835
        14        2.0000           -0.5103619             -13.8877
        15        2.0000           -0.4995211             -13.5927
        16        2.0000           -0.4464930             -12.1497
        17        2.0000           -0.4421999             -12.0329
        18        2.0000           -0.4305068             -11.7147 (HOMO)
        19                         -0.3073730              -8.3640 (LUMO)
        20                         -0.2925640              -7.9611
        21                          0.0373684               1.0168
        22                          0.0566305               1.5410
        23                          0.0763421               2.0774
       ...                                ...                  ...
        30                          0.5178916              14.0925
      -------------------------------------------------------------
                  HL-Gap            0.1231337 Eh            3.3506 eV
             Fermi-level           -0.3689399 Eh          -10.0394 eV

 SCC (total)                   0 d,  0 h,  0 min,  0.011 sec
 SCC setup                      ...        0 min,  0.000 sec (  1.518%)
 Dispersion                     ...        0 min,  0.000 sec (  0.518%)
 integral evaluation            ...        0 min,  0.001 sec ( 11.770%)
 zeroth order Hamiltonian       ...        0 min,  0.000 sec (  0.538%)
 iterations                     ...        0 min,  0.007 sec ( 65.514%)
 molecular gradient             ...        0 min,  0.002 sec ( 17.802%)
 printout                       ...        0 min,  0.000 sec (  0.917%)

         :::::::::::::::::::::::::::::::::::::::::::::::::::::
         ::                     SUMMARY                     ::
         :::::::::::::::::::::::::::::::::::::::::::::::::::::
         :: total energy             -21.603793691098 Eh    ::
         :: gradient norm              0.097396343984 Eh/a0 ::
         :: HOMO-LUMO gap              3.350639096168 eV    ::
         ::.................................................::
         :: SCC energy               -21.792821237166 Eh    ::
         :: -> isotropic ES            0.075253060108 Eh    ::
         :: -> anisotropic ES          0.000256904960 Eh    ::
         :: -> anisotropic XC          0.004042757869 Eh    ::
         :: -> dispersion             -0.005022856371 Eh    ::
         :: repulsion energy           0.189025678016 Eh    ::
         :: add. restraining           0.000000000000 Eh    ::
         :::::::::::::::::::::::::::::::::::::::::::::::::::::

      ----------------------------------------------------------- 
     |                   =====================                   |
     |                        A N C O P T                        |
     |                   =====================                   |
     |               Approximate Normal Coordinate               |
     |                Rational Function Optimizer                |
      ----------------------------------------------------------- 

          ...................................................
          :                      SETUP                      :
          :.................................................:
          :   optimization level            normal          :
          :   max. optcycles                   200          :
          :   ANC micro-cycles                  20          :
          :   degrees of freedom                30          :
          :.................................................:
          :   RF solver                   davidson          :
          :   write xtbopt.log                true          :
          :   linear?                        false          :
          :   energy convergence         0.5000000E-05 Eh   :
          :   grad. convergence          0.1000000E-02 Eh/α :
          :   maximium RF displ.         1.0000000          :
          :   Hlow (freq-cutoff)         0.1000000E-01      :
          :   Hmax (freq-cutoff)         5.0000000          :
          :   S6 in model hess.         20.0000000          :
          ...................................................

generating ANC from model Hessian ...
Using Lindh-Hessian (1995)
 Shifting diagonal of input Hessian by   9.867843300138669E-003
 Lowest  eigenvalues of input Hessian
   -0.000000   -0.000000   -0.000000   -0.000000    0.000000    0.000000
    0.010000    0.010183    0.010278    0.010366    0.010814    0.011066
    0.020156    0.023687    0.025266    0.050811    0.057653    0.071894
 Highest eigenvalues
    1.119256    1.298404    1.334620    1.430227    2.090909    2.119164
 

........................................................................
.............................. CYCLE    1 ..............................
........................................................................
   1    -21.7928212 -0.217928E+02  0.354E-05    3.35       0.0  T
   2    -21.7928212 -0.764899E-11  0.220E-05    3.35    1312.4  T
   3    -21.7928212 -0.376232E-11  0.691E-06    3.35    4179.4  T
     SCC iter.                  ...        0 min,  0.001 sec
     gradient                   ...        0 min,  0.002 sec
 * total energy  :   -21.6037937 Eh     change       -0.7281802E-08 Eh
   gradient norm :     0.0973992 Eh/α   predicted     0.0000000E+00 (-100.00%)
   displ. norm   :     0.2023226 α      lambda       -0.8046364E-02
   maximum displ.:     0.1133980 α      in ANC's #3, #16, #2, ...

........................................................................
.............................. CYCLE    2 ..............................
........................................................................
   1    -21.8111076 -0.218111E+02  0.418E-01    3.46       0.0  T
   2    -21.8112844 -0.176820E-03  0.254E-01    3.46       1.0  T
   3    -21.8112879 -0.342425E-05  0.947E-02    3.44       1.0  T
   4    -21.8113066 -0.187434E-04  0.266E-02    3.45       1.1  T
   5    -21.8113094 -0.279554E-05  0.859E-03    3.45       3.4  T
   6    -21.8113097 -0.339362E-06  0.284E-03    3.45      10.2  T
   7    -21.8113097 -0.251286E-08  0.522E-04    3.45      55.3  T
     SCC iter.                  ...        0 min,  0.003 sec
     gradient                   ...        0 min,  0.002 sec
 * total energy  :   -21.6091643 Eh     change       -0.5370594E-02 Eh
   gradient norm :     0.0395874 Eh/α   predicted    -0.4187868E-02 ( -22.02%)
   displ. norm   :     0.2277122 α      lambda       -0.3423225E-02
   maximum displ.:     0.1108677 α      in ANC's #3, #2, #8, ...

........................................................................
.............................. CYCLE    3 ..............................
........................................................................
   1    -21.8244380 -0.218244E+02  0.422E-01    3.53       0.0  T
   2    -21.8246023 -0.164333E-03  0.253E-01    3.53       1.0  T
   3    -21.8246056 -0.332536E-05  0.910E-02    3.51       1.0  T
   4    -21.8246263 -0.207059E-04  0.279E-02    3.52       1.0  T
   5    -21.8246289 -0.256583E-05  0.873E-03    3.52       3.3  T
   6    -21.8246292 -0.324332E-06  0.336E-03    3.52       8.6  T
   7    -21.8246292 -0.628686E-08  0.539E-04    3.52      53.6  T
     SCC iter.                  ...        0 min,  0.088 sec
     gradient                   ...        0 min,  0.002 sec
 * total energy  :   -21.6100240 Eh     change       -0.8596880E-03 Eh
   gradient norm :     0.0229860 Eh/α   predicted    -0.1800368E-02 ( 109.42%)
   displ. norm   :     0.1512151 α      lambda       -0.1149077E-02
   maximum displ.:     0.0863625 α      in ANC's #3, #2, #5, ...

........................................................................
.............................. CYCLE    4 ..............................
........................................................................
   1    -21.8203542 -0.218204E+02  0.277E-01    3.50       0.0  T
   2    -21.8203665 -0.122180E-04  0.172E-01    3.50       1.0  T
   3    -21.8203694 -0.293300E-05  0.197E-02    3.50       1.5  T
   4    -21.8203717 -0.226965E-05  0.746E-03    3.50       3.9  T
   5    -21.8203718 -0.181604E-06  0.251E-03    3.50      11.5  T
   6    -21.8203718 -0.300725E-08  0.107E-03    3.50      26.9  T
     SCC iter.                  ...        0 min,  0.002 sec
     gradient                   ...        0 min,  0.002 sec
 * total energy  :   -21.6107307 Eh     change       -0.7066766E-03 Eh
   gradient norm :     0.0078587 Eh/α   predicted    -0.5876742E-03 ( -16.84%)
   displ. norm   :     0.2251160 α      lambda       -0.5048383E-03
   maximum displ.:     0.1690350 α      in ANC's #3, #5, #2, ...

........................................................................
.............................. CYCLE    5 ..............................
........................................................................
   1    -21.8130967 -0.218131E+02  0.483E-01    3.49       0.0  T
   2    -21.8131476 -0.508827E-04  0.298E-01    3.49       1.0  T
   3    -21.8131525 -0.490630E-05  0.459E-02    3.49       1.0  T
   4    -21.8131644 -0.118969E-04  0.161E-02    3.49       1.8  T
   5    -21.8131655 -0.111538E-05  0.353E-03    3.49       8.2  T
   6    -21.8131655 -0.245807E-08  0.127E-03    3.49      22.8  T
   7    -21.8131655 -0.222704E-08  0.204E-04    3.49     141.2  T
     SCC iter.                  ...        0 min,  0.003 sec
     gradient                   ...        0 min,  0.087 sec
 * total energy  :   -21.6104298 Eh     change        0.3008336E-03 Eh
   gradient norm :     0.0314491 Eh/α   predicted    -0.2652125E-03 (-188.16%)
   displ. norm   :     0.1376130 α      lambda       -0.1368480E-02
   maximum displ.:     0.1345950 α      in ANC's #3, #6, #4, ...

........................................................................
.............................. CYCLE    6 ..............................
........................................................................
   1    -21.8189828 -0.218190E+02  0.344E-01    3.50       0.0  T
   2    -21.8190252 -0.424372E-04  0.210E-01    3.50       1.0  T
   3    -21.8190324 -0.720434E-05  0.356E-02    3.49       1.0  T
   4    -21.8190351 -0.267375E-05  0.145E-02    3.50       2.0  T
   5    -21.8190365 -0.140557E-05  0.317E-03    3.50       9.1  T
   6    -21.8190365 -0.383017E-08  0.116E-03    3.50      24.8  T
     SCC iter.                  ...        0 min,  0.002 sec
     gradient                   ...        0 min,  0.002 sec
 * total energy  :   -21.6109889 Eh     change       -0.5590636E-03 Eh
   gradient norm :     0.0041665 Eh/α   predicted    -0.6971978E-03 (  24.71%)
   displ. norm   :     0.1102911 α      lambda       -0.1299907E-03
   maximum displ.:     0.0743040 α      in ANC's #5, #2, #6, ...

........................................................................
.............................. CYCLE    7 ..............................
........................................................................
   1    -21.8194772 -0.218195E+02  0.880E-02    3.50       0.0  T
   2    -21.8194781 -0.904498E-06  0.539E-02    3.50       1.0  T
   3    -21.8194781 -0.203026E-08  0.766E-03    3.50       3.8  T
   4    -21.8194785 -0.440120E-06  0.264E-03    3.50      10.9  T
   5    -21.8194785 -0.781452E-08  0.106E-03    3.50      27.2  T
     SCC iter.                  ...        0 min,  0.002 sec
     gradient                   ...        0 min,  0.002 sec
 * total energy  :   -21.6111047 Eh     change       -0.1157804E-03 Eh
   gradient norm :     0.0035646 Eh/α   predicted    -0.6578620E-04 ( -43.18%)
   displ. norm   :     0.2894542 α      lambda       -0.3101871E-03
   maximum displ.:     0.1899348 α      in ANC's #5, #2, #6, ...

........................................................................
.............................. CYCLE    8 ..............................
........................................................................
   1    -21.8199607 -0.218200E+02  0.235E-01    3.50       0.0  T
   2    -21.8199669 -0.617484E-05  0.144E-01    3.50       1.0  T
   3    -21.8199653  0.155462E-05  0.235E-02    3.51       1.2  T
   4    -21.8199700 -0.465961E-05  0.656E-03    3.50       4.4  T
   5    -21.8199700 -0.288441E-07  0.269E-03    3.50      10.7  T
   6    -21.8199700 -0.531582E-08  0.494E-04    3.50      58.5  T
   7    -21.8199700 -0.379000E-09  0.274E-04    3.50     105.5  T
     SCC iter.                  ...        0 min,  0.088 sec
     gradient                   ...        0 min,  0.002 sec
 * total energy  :   -21.6113090 Eh     change       -0.2043096E-03 Eh
   gradient norm :     0.0059642 Eh/α   predicted    -0.1680901E-03 ( -17.73%)
   displ. norm   :     0.1887483 α      lambda       -0.1365097E-03
   maximum displ.:     0.1249079 α      in ANC's #5, #2, #6, ...

........................................................................
.............................. CYCLE    9 ..............................
........................................................................
   1    -21.8199086 -0.218199E+02  0.147E-01    3.51       0.0  T
   2    -21.8199118 -0.321063E-05  0.907E-02    3.50       1.0  T
   3    -21.8199107  0.110122E-05  0.181E-02    3.51       1.6  T
   4    -21.8199135 -0.281871E-05  0.484E-03    3.50       6.0  T
   5    -21.8199135 -0.187185E-07  0.211E-03    3.50      13.7  T
   6    -21.8199135 -0.709407E-08  0.491E-04    3.50      58.8  T
     SCC iter.                  ...        0 min,  0.002 sec
     gradient                   ...        0 min,  0.002 sec
 * total energy  :   -21.6113579 Eh     change       -0.4891797E-04 Eh
   gradient norm :     0.0049765 Eh/α   predicted    -0.7068669E-04 (  44.50%)
   displ. norm   :     0.0321337 α      lambda       -0.5444577E-04
   maximum displ.:     0.0184682 α      in ANC's #6, #5, #10, ...

........................................................................
.............................. CYCLE   10 ..............................
........................................................................
   1    -21.8210583 -0.218211E+02  0.571E-02    3.51       0.0  T
   2    -21.8210587 -0.415780E-06  0.350E-02    3.51       1.0  T
   3    -21.8210589 -0.126904E-06  0.293E-03    3.51       9.9  T
   4    -21.8210589 -0.268035E-07  0.133E-03    3.51      21.8  T
     SCC iter.                  ...        0 min,  0.002 sec
     gradient                   ...        0 min,  0.087 sec
 * total energy  :   -21.6113943 Eh     change       -0.3636933E-04 Eh
   gradient norm :     0.0028895 Eh/α   predicted    -0.2725119E-04 ( -25.07%)
   displ. norm   :     0.0859190 α      lambda       -0.5137047E-04
   maximum displ.:     0.0732787 α      in ANC's #6, #2, #3, ...

........................................................................
.............................. CYCLE   11 ..............................
........................................................................
   1    -21.8211102 -0.218211E+02  0.139E-01    3.52       0.0  T
   2    -21.8211109 -0.669229E-06  0.839E-02    3.51       1.0  T
   3    -21.8211111 -0.211878E-06  0.462E-03    3.51       6.2  T
   4    -21.8211112 -0.972473E-07  0.236E-03    3.51      12.3  T
   5    -21.8211112 -0.931741E-08  0.101E-03    3.51      28.6  T
   6    -21.8211112 -0.767244E-09  0.259E-04    3.51     111.4  T
   7    -21.8211112 -0.142776E-09  0.987E-05    3.51     292.4  T
     SCC iter.                  ...        0 min,  0.003 sec
     gradient                   ...        0 min,  0.002 sec
 * total energy  :   -21.6114356 Eh     change       -0.4136748E-04 Eh
   gradient norm :     0.0034635 Eh/α   predicted    -0.2587422E-04 ( -37.45%)
   displ. norm   :     0.2609882 α      lambda       -0.1273932E-03
   maximum displ.:     0.2164026 α      in ANC's #6, #2, #3, ...

........................................................................
.............................. CYCLE   12 ..............................
........................................................................
   1    -21.8192411 -0.218192E+02  0.410E-01    3.52       0.0  T
   2    -21.8192503 -0.921670E-05  0.250E-01    3.52       1.0  T
   3    -21.8192536 -0.328590E-05  0.181E-02    3.52       1.6  T
   4    -21.8192553 -0.173563E-05  0.922E-03    3.52       3.1  T
   5    -21.8192554 -0.960872E-07  0.384E-03    3.52       7.5  T
   6    -21.8192555 -0.174337E-07  0.814E-04    3.52      35.5  T
   7    -21.8192555 -0.162019E-08  0.300E-04    3.52      96.2  T
     SCC iter.                  ...        0 min,  0.003 sec
     gradient                   ...        0 min,  0.003 sec
 * total energy  :   -21.6114344 Eh     change        0.1182392E-05 Eh
   gradient norm :     0.0124252 Eh/α   predicted    -0.6803191E-04 (*******%)
   displ. norm   :     0.1270160 α      lambda       -0.2074370E-03
   maximum displ.:     0.1109009 α      in ANC's #6, #2, #3, ...

........................................................................
.............................. CYCLE   13 ..............................
........................................................................
   1    -21.8207052 -0.218207E+02  0.218E-01    3.52       0.0  T
   2    -21.8207087 -0.354411E-05  0.133E-01    3.52       1.0  T
   3    -21.8207098 -0.110134E-05  0.111E-02    3.52       2.6  T
   4    -21.8207104 -0.613557E-06  0.562E-03    3.52       5.1  T
   5    -21.8207105 -0.556610E-07  0.217E-03    3.52      13.3  T
   6    -21.8207105 -0.424970E-08  0.704E-04    3.52      41.0  T
     SCC iter.                  ...        0 min,  0.002 sec
     gradient                   ...        0 min,  0.002 sec
 * total energy  :   -21.6115070 Eh     change       -0.7258474E-04 Eh
   gradient norm :     0.0026585 Eh/α   predicted    -0.1053924E-03 (  45.20%)
   displ. norm   :     0.0809766 α      lambda       -0.4592457E-04
   maximum displ.:     0.0627391 α      in ANC's #6, #2, #4, ...

........................................................................
.............................. CYCLE   14 ..............................
........................................................................
   1    -21.8203140 -0.218203E+02  0.105E-01    3.52       0.0  T
   2    -21.8203144 -0.360848E-06  0.633E-02    3.52       1.0  T
   3    -21.8203145 -0.106334E-06  0.413E-03    3.52       7.0  T
   4    -21.8203146 -0.998671E-07  0.200E-03    3.52      14.4  T
   5    -21.8203146 -0.485542E-08  0.602E-04    3.52      48.0  T
   6    -21.8203146 -0.337160E-09  0.140E-04    3.52     206.6  T
     SCC iter.                  ...        0 min,  0.002 sec
     gradient                   ...        0 min,  0.002 sec
 * total energy  :   -21.6115498 Eh     change       -0.4274540E-04 Eh
   gradient norm :     0.0037252 Eh/α   predicted    -0.2311410E-04 ( -45.93%)
   displ. norm   :     0.6485917 α      lambda       -0.3614883E-03
   maximum displ.:     0.4826784 α      in ANC's #6, #2, #4, ...

........................................................................
.............................. CYCLE   15 ..............................
........................................................................
   1    -21.8094318 -0.218094E+02  0.823E-01    3.51       0.0  T
   2    -21.8094906 -0.587608E-04  0.501E-01    3.51       1.0  T
   3    -21.8095160 -0.254465E-04  0.433E-02    3.51       1.0  T
   4    -21.8095222 -0.611472E-05  0.241E-02    3.51       1.2  T
   5    -21.8095235 -0.132650E-05  0.908E-03    3.51       3.2  T
   6    -21.8095236 -0.728147E-07  0.179E-03    3.51      16.1  T
   7    -21.8095236 -0.849884E-08  0.542E-04    3.51      53.2  T
   8    -21.8095236 -0.428180E-09  0.257E-04    3.51     112.4  T
     SCC iter.                  ...        0 min,  0.090 sec
     gradient                   ...        0 min,  0.002 sec
 * total energy  :   -21.6104123 Eh     change        0.1137464E-02 Eh
   gradient norm :     0.0455893 Eh/α   predicted    -0.2567958E-03 (-122.58%)
   displ. norm   :     0.3739334 α      lambda       -0.3568841E-02
   maximum displ.:     0.3130440 α      in ANC's #6, #4, #2, ...

........................................................................
.............................. CYCLE   16 ..............................
........................................................................
   1    -21.8193667 -0.218194E+02  0.553E-01    3.51       0.0  T
   2    -21.8194270 -0.603181E-04  0.336E-01    3.51       1.0  T
   3    -21.8194430 -0.159979E-04  0.417E-02    3.51       1.0  T
   4    -21.8194475 -0.445919E-05  0.209E-02    3.52       1.4  T
   5    -21.8194492 -0.171294E-05  0.823E-03    3.51       3.5  T
   6    -21.8194492 -0.458653E-07  0.251E-03    3.51      11.5  T
   7    -21.8194492 -0.104919E-07  0.473E-04    3.51      61.1  T
     SCC iter.                  ...        0 min,  0.003 sec
     gradient                   ...        0 min,  0.002 sec
 * total energy  :   -21.6116940 Eh     change       -0.1281687E-02 Eh
   gradient norm :     0.0049665 Eh/α   predicted    -0.2033929E-02 (  58.69%)
   displ. norm   :     0.0786912 α      lambda       -0.7074066E-04
   maximum displ.:     0.0670664 α      in ANC's #5, #8, #2, ...

........................................................................
.............................. CYCLE   17 ..............................
........................................................................
   1    -21.8204045 -0.218204E+02  0.787E-02    3.52       0.0  T
   2    -21.8204052 -0.697517E-06  0.486E-02    3.52       1.0  T
   3    -21.8204053 -0.141811E-06  0.566E-03    3.52       5.1  T
   4    -21.8204055 -0.229059E-06  0.215E-03    3.52      13.4  T
   5    -21.8204055 -0.404120E-08  0.981E-04    3.52      29.4  T
     SCC iter.                  ...        0 min,  0.002 sec
     gradient                   ...        0 min,  0.087 sec
 * total energy  :   -21.6117405 Eh     change       -0.4645090E-04 Eh
   gradient norm :     0.0039399 Eh/α   predicted    -0.3558976E-04 ( -23.38%)
   displ. norm   :     0.1427811 α      lambda       -0.1063742E-03
   maximum displ.:     0.0818048 α      in ANC's #6, #5, #2, ...

........................................................................
.............................. CYCLE   18 ..............................
........................................................................
   1    -21.8203525 -0.218204E+02  0.171E-01    3.51       0.0  T
   2    -21.8203538 -0.131440E-05  0.104E-01    3.51       1.0  T
   3    -21.8203542 -0.456870E-06  0.735E-03    3.51       3.9  T
   4    -21.8203545 -0.303749E-06  0.368E-03    3.51       7.8  T
   5    -21.8203546 -0.131482E-07  0.140E-03    3.51      20.6  T
   6    -21.8203546 -0.429044E-08  0.399E-04    3.51      72.4  T
   7    -21.8203546 -0.270521E-09  0.944E-05    3.51     305.9  T
     SCC iter.                  ...        0 min,  0.003 sec
     gradient                   ...        0 min,  0.002 sec
 * total energy  :   -21.6118285 Eh     change       -0.8804237E-04 Eh
   gradient norm :     0.0056466 Eh/α   predicted    -0.5427259E-04 ( -38.36%)
   displ. norm   :     0.4050284 α      lambda       -0.2360883E-03
   maximum displ.:     0.2312185 α      in ANC's #6, #2, #1, ...

........................................................................
.............................. CYCLE   19 ..............................
........................................................................
   1    -21.8178664 -0.218179E+02  0.431E-01    3.49       0.0  T
   2    -21.8178740 -0.760606E-05  0.261E-01    3.49       1.0  T
   3    -21.8178786 -0.464077E-05  0.143E-02    3.49       2.0  T
   4    -21.8178789 -0.248025E-06  0.852E-03    3.49       3.4  T
   5    -21.8178790 -0.105826E-06  0.272E-03    3.49      10.6  T
   6    -21.8178790 -0.186253E-07  0.921E-04    3.49      31.4  T
     SCC iter.                  ...        0 min,  0.003 sec
     gradient                   ...        0 min,  0.002 sec
 * total energy  :   -21.6118818 Eh     change       -0.5326236E-04 Eh
   gradient norm :     0.0167824 Eh/α   predicted    -0.1374006E-03 ( 157.97%)
   displ. norm   :     0.0928783 α      lambda       -0.2551412E-03
   maximum displ.:     0.0652436 α      in ANC's #6, #5, #8, ...

........................................................................
.............................. CYCLE   20 ..............................
........................................................................
   1    -21.8198725 -0.218199E+02  0.137E-01    3.49       0.0  T
   2    -21.8198752 -0.268728E-05  0.833E-02    3.49       1.0  T
   3    -21.8198761 -0.968277E-06  0.774E-03    3.49       3.7  T
   4    -21.8198762 -0.730372E-07  0.315E-03    3.49       9.2  T
   5    -21.8198762 -0.285424E-07  0.168E-03    3.49      17.2  T
   6    -21.8198762 -0.388626E-08  0.410E-04    3.49      70.4  T
     SCC iter.                  ...        0 min,  0.003 sec
     gradient                   ...        0 min,  0.002 sec
 * total energy  :   -21.6120186 Eh     change       -0.1368684E-03 Eh
   gradient norm :     0.0061170 Eh/α   predicted    -0.1286712E-03 (  -5.99%)
   displ. norm   :     0.1904823 α      lambda       -0.1325609E-03
   maximum displ.:     0.1403690 α      in ANC's #2, #1, #6, ...
 * RMSD in coord.:     0.5484866 α      energy gain  -0.8224936E-02 Eh

generating ANC from model Hessian ...
Using Lindh-Hessian (1995)
 Shifting diagonal of input Hessian by   1.040447549105119E-002
 Lowest  eigenvalues of input Hessian
    0.010000   -0.000000   -0.000000    0.000000    0.000000    0.000000
    0.000000    0.010541    0.010784    0.011180    0.011244    0.012573
    0.019466    0.023016    0.026117    0.052656    0.061800    0.075427
 Highest eigenvalues
    1.212720    1.291245    1.370505    1.418849    2.203940    2.227782
 

........................................................................
.............................. CYCLE   21 ..............................
........................................................................
   1    -21.8200305 -0.218200E+02  0.147E-01    3.49       0.0  T
   2    -21.8200321 -0.160699E-05  0.889E-02    3.49       1.0  T
   3    -21.8200322 -0.168385E-07  0.915E-03    3.49       3.2  T
   4    -21.8200327 -0.572720E-06  0.359E-03    3.49       8.0  T
   5    -21.8200328 -0.257008E-07  0.141E-03    3.49      20.5  T
   6    -21.8200328 -0.118193E-08  0.382E-04    3.49      75.6  T
   7    -21.8200328 -0.188141E-09  0.119E-04    3.49     242.8  T
     SCC iter.                  ...        0 min,  0.003 sec
     gradient                   ...        0 min,  0.002 sec
 * total energy  :   -21.6121329 Eh     change       -0.1142973E-03 Eh
   gradient norm :     0.0040966 Eh/α   predicted     0.0000000E+00 (-100.00%)
   displ. norm   :     0.0924268 α      lambda       -0.1174560E-03
   maximum displ.:     0.0561381 α      in ANC's #1, #4, #6, ...

........................................................................
.............................. CYCLE   22 ..............................
........................................................................
   1    -21.8209597 -0.218210E+02  0.148E-01    3.49       0.0  T
   2    -21.8209609 -0.116201E-05  0.901E-02    3.49       1.0  T
   3    -21.8209611 -0.183649E-06  0.785E-03    3.49       3.7  T
   4    -21.8209615 -0.421838E-06  0.321E-03    3.49       9.0  T
   5    -21.8209615 -0.125386E-07  0.115E-03    3.49      25.2  T
   6    -21.8209615 -0.878202E-09  0.264E-04    3.49     109.4  T
     SCC iter.                  ...        0 min,  0.088 sec
     gradient                   ...        0 min,  0.002 sec
 * total energy  :   -21.6122338 Eh     change       -0.1008319E-03 Eh
   gradient norm :     0.0024814 Eh/α   predicted    -0.5922948E-04 ( -41.26%)
   displ. norm   :     0.2912874 α      lambda       -0.2900629E-03
   maximum displ.:     0.1722200 α      in ANC's #4, #1, #6, ...

........................................................................
.............................. CYCLE   23 ..............................
........................................................................
   1    -21.8199069 -0.218199E+02  0.421E-01    3.50       0.0  T
   2    -21.8199149 -0.792495E-05  0.255E-01    3.50       1.0  T
   3    -21.8199164 -0.154739E-05  0.216E-02    3.51       1.3  T
   4    -21.8199198 -0.338361E-05  0.927E-03    3.50       3.1  T
   5    -21.8199199 -0.721347E-07  0.308E-03    3.50       9.4  T
   6    -21.8199199 -0.120339E-07  0.557E-04    3.50      51.8  T
   7    -21.8199199 -0.879197E-09  0.223E-04    3.50     129.3  T
     SCC iter.                  ...        0 min,  0.003 sec
     gradient                   ...        0 min,  0.002 sec
 * total energy  :   -21.6123639 Eh     change       -0.1301520E-03 Eh
   gradient norm :     0.0121207 Eh/α   predicted    -0.1573483E-03 (  20.90%)
   displ. norm   :     0.0717029 α      lambda       -0.2109545E-03
   maximum displ.:     0.0488057 α      in ANC's #6, #4, #3, ...

........................................................................
.............................. CYCLE   24 ..............................
........................................................................
   1    -21.8207122 -0.218207E+02  0.158E-01    3.50       0.0  T
   2    -21.8207160 -0.372538E-05  0.986E-02    3.50       1.0  T
   3    -21.8207177 -0.171100E-05  0.777E-03    3.50       3.7  T
   4    -21.8207179 -0.245670E-06  0.384E-03    3.50       7.5  T
   5    -21.8207180 -0.473591E-07  0.122E-03    3.50      23.7  T
   6    -21.8207180 -0.927994E-09  0.384E-04    3.50      75.2  T
     SCC iter.                  ...        0 min,  0.002 sec
     gradient                   ...        0 min,  0.087 sec
 * total energy  :   -21.6124556 Eh     change       -0.9172963E-04 Eh
   gradient norm :     0.0083095 Eh/α   predicted    -0.1060209E-03 (  15.58%)
   displ. norm   :     0.0594439 α      lambda       -0.1229896E-03
   maximum displ.:     0.0313726 α      in ANC's #5, #3, #4, ...

........................................................................
.............................. CYCLE   25 ..............................
........................................................................
   1    -21.8213013 -0.218213E+02  0.718E-02    3.50       0.0  T
   2    -21.8213029 -0.155718E-05  0.445E-02    3.50       1.0  T
   3    -21.8213034 -0.511676E-06  0.648E-03    3.50       4.5  T
   4    -21.8213035 -0.990535E-07  0.305E-03    3.50       9.5  T
   5    -21.8213035 -0.353615E-07  0.116E-03    3.50      24.9  T
   6    -21.8213035 -0.122994E-08  0.505E-04    3.50      57.1  T
     SCC iter.                  ...        0 min,  0.002 sec
     gradient                   ...        0 min,  0.002 sec
 * total energy  :   -21.6125251 Eh     change       -0.6947439E-04 Eh
   gradient norm :     0.0023001 Eh/α   predicted    -0.6171216E-04 ( -11.17%)
   displ. norm   :     0.3106105 α      lambda       -0.2250956E-03
   maximum displ.:     0.2091534 α      in ANC's #4, #3, #1, ...

........................................................................
.............................. CYCLE   26 ..............................
........................................................................
   1    -21.8180369 -0.218180E+02  0.386E-01    3.47       0.0  T
   2    -21.8180444 -0.748426E-05  0.234E-01    3.46       1.0  T
   3    -21.8180470 -0.258972E-05  0.191E-02    3.45       1.5  T
   4    -21.8180494 -0.235234E-05  0.938E-03    3.44       3.1  T
   5    -21.8180494 -0.780539E-07  0.291E-03    3.44       9.9  T
   6    -21.8180495 -0.204757E-07  0.483E-04    3.44      59.8  T
   7    -21.8180495 -0.419121E-09  0.186E-04    3.44     154.9  T
     SCC iter.                  ...        0 min,  0.003 sec
     gradient                   ...        0 min,  0.002 sec
 * total energy  :   -21.6126011 Eh     change       -0.7594119E-04 Eh
   gradient norm :     0.0122692 Eh/α   predicted    -0.1234136E-03 (  62.51%)
   displ. norm   :     0.0652181 α      lambda       -0.2040494E-03
   maximum displ.:     0.0461392 α      in ANC's #1, #6, #4, ...

........................................................................
.............................. CYCLE   27 ..............................
........................................................................
   1    -21.8208924 -0.218209E+02  0.957E-02    3.50       0.0  T
   2    -21.8208951 -0.270421E-05  0.592E-02    3.49       1.0  T
   3    -21.8208959 -0.803431E-06  0.874E-03    3.50       3.3  T
   4    -21.8208962 -0.279550E-06  0.402E-03    3.50       7.2  T
   5    -21.8208962 -0.319063E-07  0.180E-03    3.50      16.1  T
   6    -21.8208962 -0.617384E-08  0.740E-04    3.50      39.0  T
     SCC iter.                  ...        0 min,  0.087 sec
     gradient                   ...        0 min,  0.002 sec
 * total energy  :   -21.6126959 Eh     change       -0.9487768E-04 Eh
   gradient norm :     0.0030427 Eh/α   predicted    -0.1024602E-03 (   7.99%)
   displ. norm   :     0.1557227 α      lambda       -0.8623220E-04
   maximum displ.:     0.1138643 α      in ANC's #3, #4, #6, ...

........................................................................
.............................. CYCLE   28 ..............................
........................................................................
   1    -21.8209728 -0.218210E+02  0.161E-01    3.50       0.0  T
   2    -21.8209735 -0.777667E-06  0.975E-02    3.49       1.0  T
   3    -21.8209739 -0.367503E-06  0.479E-03    3.49       6.0  T
   4    -21.8209740 -0.701344E-07  0.280E-03    3.49      10.3  T
   5    -21.8209740 -0.135086E-07  0.119E-03    3.49      24.2  T
   6    -21.8209740 -0.154398E-08  0.266E-04    3.49     108.4  T
   7    -21.8209740 -0.193548E-09  0.104E-04    3.49     277.5  T
     SCC iter.                  ...        0 min,  0.003 sec
     gradient                   ...        0 min,  0.002 sec
 * total energy  :   -21.6127678 Eh     change       -0.7183516E-04 Eh
   gradient norm :     0.0046347 Eh/α   predicted    -0.4415953E-04 ( -38.53%)
   displ. norm   :     0.4264781 α      lambda       -0.2284412E-03
   maximum displ.:     0.3182181 α      in ANC's #3, #4, #6, ...

........................................................................
.............................. CYCLE   29 ..............................
........................................................................
   1    -21.8197970 -0.218198E+02  0.394E-01    3.45       0.0  T
   2    -21.8198032 -0.618165E-05  0.238E-01    3.44       1.0  T
   3    -21.8198071 -0.390648E-05  0.123E-02    3.44       2.3  T
   4    -21.8198072 -0.109407E-06  0.635E-03    3.44       4.5  T
   5    -21.8198072 -0.239220E-07  0.218E-03    3.44      13.2  T
   6    -21.8198072 -0.255398E-07  0.484E-04    3.44      59.7  T
     SCC iter.                  ...        0 min,  0.002 sec
     gradient                   ...        0 min,  0.087 sec
 * total energy  :   -21.6128333 Eh     change       -0.6550191E-04 Eh
   gradient norm :     0.0095403 Eh/α   predicted    -0.1349899E-03 ( 106.09%)
   displ. norm   :     0.0773071 α      lambda       -0.1732525E-03
   maximum displ.:     0.0516555 α      in ANC's #4, #1, #6, ...

........................................................................
.............................. CYCLE   30 ..............................
........................................................................
   1    -21.8221192 -0.218221E+02  0.998E-02    3.48       0.0  T
   2    -21.8221213 -0.216228E-05  0.608E-02    3.48       1.0  T
   3    -21.8221221 -0.759493E-06  0.734E-03    3.48       3.9  T
   4    -21.8221222 -0.109840E-06  0.382E-03    3.48       7.6  T
   5    -21.8221223 -0.470361E-07  0.165E-03    3.48      17.5  T
   6    -21.8221223 -0.241330E-08  0.460E-04    3.48      62.8  T
     SCC iter.                  ...        0 min,  0.003 sec
     gradient                   ...        0 min,  0.002 sec
 * total energy  :   -21.6128965 Eh     change       -0.6320097E-04 Eh
   gradient norm :     0.0038561 Eh/α   predicted    -0.8714398E-04 (  37.88%)
   displ. norm   :     0.1407806 α      lambda       -0.9475834E-04
   maximum displ.:     0.1204888 α      in ANC's #3, #4, #8, ...

........................................................................
.............................. CYCLE   31 ..............................
........................................................................
   1    -21.8210460 -0.218210E+02  0.151E-01    3.47       0.0  T
   2    -21.8210481 -0.207950E-05  0.914E-02    3.47       1.0  T
   3    -21.8210488 -0.725926E-06  0.712E-03    3.48       4.1  T
   4    -21.8210489 -0.109901E-06  0.383E-03    3.48       7.5  T
   5    -21.8210490 -0.538445E-07  0.158E-03    3.48      18.3  T
   6    -21.8210490 -0.162140E-08  0.389E-04    3.48      74.2  T
   7    -21.8210490 -0.190308E-09  0.960E-05    3.48     300.6  T
     SCC iter.                  ...        0 min,  0.003 sec
     gradient                   ...        0 min,  0.002 sec
 * total energy  :   -21.6129029 Eh     change       -0.6446050E-05 Eh
   gradient norm :     0.0102122 Eh/α   predicted    -0.4831877E-04 ( 649.59%)
   displ. norm   :     0.0647158 α      lambda       -0.1127203E-03
   maximum displ.:     0.0423818 α      in ANC's #3, #5, #2, ...

........................................................................
.............................. CYCLE   32 ..............................
........................................................................
   1    -21.8214939 -0.218215E+02  0.721E-02    3.47       0.0  T
   2    -21.8214949 -0.107104E-05  0.445E-02    3.46       1.0  T
   3    -21.8214954 -0.500802E-06  0.500E-03    3.46       5.8  T
   4    -21.8214955 -0.277194E-07  0.259E-03    3.46      11.1  T
   5    -21.8214955 -0.231827E-07  0.887E-04    3.46      32.5  T
     SCC iter.                  ...        0 min,  0.002 sec
     gradient                   ...        0 min,  0.002 sec
 * total energy  :   -21.6129642 Eh     change       -0.6131519E-04 Eh
   gradient norm :     0.0024540 Eh/α   predicted    -0.5659500E-04 (  -7.70%)
   displ. norm   :     0.1628837 α      lambda       -0.6227336E-04
   maximum displ.:     0.1399350 α      in ANC's #3, #2, #5, ...

........................................................................
.............................. CYCLE   33 ..............................
........................................................................
   1    -21.8206943 -0.218207E+02  0.152E-01    3.44       0.0  T
   2    -21.8206956 -0.128978E-05  0.927E-02    3.44       1.0  T
   3    -21.8206963 -0.682881E-06  0.622E-03    3.44       4.6  T
   4    -21.8206964 -0.134276E-06  0.376E-03    3.44       7.7  T
   5    -21.8206964 -0.842908E-08  0.150E-03    3.44      19.3  T
   6    -21.8206964 -0.103815E-07  0.240E-04    3.44     120.5  T
   7    -21.8206964 -0.639062E-10  0.819E-05    3.44     352.6  T
     SCC iter.                  ...        0 min,  0.003 sec
     gradient                   ...        0 min,  0.002 sec
 * total energy  :   -21.6129989 Eh     change       -0.3469163E-04 Eh
   gradient norm :     0.0043572 Eh/α   predicted    -0.3196296E-04 (  -7.87%)
   displ. norm   :     0.1479068 α      lambda       -0.5732348E-04
   maximum displ.:     0.1283361 α      in ANC's #3, #2, #19, ...

........................................................................
.............................. CYCLE   34 ..............................
........................................................................
   1    -21.8208035 -0.218208E+02  0.136E-01    3.43       0.0  T
   2    -21.8208045 -0.107336E-05  0.825E-02    3.43       1.0  T
   3    -21.8208050 -0.481420E-06  0.621E-03    3.43       4.6  T
   4    -21.8208052 -0.181109E-06  0.335E-03    3.43       8.6  T
   5    -21.8208052 -0.147702E-07  0.130E-03    3.43      22.3  T
   6    -21.8208052 -0.187138E-08  0.257E-04    3.43     112.3  T
     SCC iter.                  ...        0 min,  0.002 sec
     gradient                   ...        0 min,  0.289 sec
 * total energy  :   -21.6130458 Eh     change       -0.4685191E-04 Eh
   gradient norm :     0.0036746 Eh/α   predicted    -0.2928715E-04 ( -37.49%)
   displ. norm   :     0.2245413 α      lambda       -0.9841440E-04
   maximum displ.:     0.1774774 α      in ANC's #3, #2, #19, ...

........................................................................
.............................. CYCLE   35 ..............................
........................................................................
   1    -21.8215499 -0.218215E+02  0.203E-01    3.43       0.0  T
   2    -21.8215528 -0.287050E-05  0.124E-01    3.42       1.0  T
   3    -21.8215540 -0.118202E-05  0.107E-02    3.42       2.7  T
   4    -21.8215546 -0.627715E-06  0.537E-03    3.42       5.4  T
   5    -21.8215546 -0.308955E-07  0.192E-03    3.42      15.1  T
   6    -21.8215546 -0.359771E-08  0.335E-04    3.42      86.1  T
   7    -21.8215546 -0.178058E-09  0.164E-04    3.42     175.6  T
     SCC iter.                  ...        0 min,  0.002 sec
     gradient                   ...        0 min,  0.001 sec
 * total energy  :   -21.6131027 Eh     change       -0.5695624E-04 Eh
   gradient norm :     0.0033375 Eh/α   predicted    -0.5168737E-04 (  -9.25%)
   displ. norm   :     0.2324001 α      lambda       -0.4824559E-04
   maximum displ.:     0.1970533 α      in ANC's #3, #2, #19, ...

........................................................................
.............................. CYCLE   36 ..............................
........................................................................
   1    -21.8196935 -0.218197E+02  0.210E-01    3.38       0.0  T
   2    -21.8196954 -0.185428E-05  0.127E-01    3.39       1.0  T
   3    -21.8196965 -0.109892E-05  0.705E-03    3.38       4.1  T
   4    -21.8196965 -0.617536E-07  0.410E-03    3.38       7.0  T
   5    -21.8196966 -0.327677E-07  0.154E-03    3.38      18.8  T
   6    -21.8196966 -0.416389E-08  0.546E-04    3.38      52.8  T
   7    -21.8196966 -0.867296E-09  0.117E-04    3.38     246.2  T
     SCC iter.                  ...        0 min,  0.101 sec
     gradient                   ...        0 min,  0.004 sec
 * total energy  :   -21.6130968 Eh     change        0.5900231E-05 Eh
   gradient norm :     0.0088868 Eh/α   predicted    -0.2542750E-04 (-530.96%)
   displ. norm   :     0.0657918 α      lambda       -0.1011620E-03
   maximum displ.:     0.0530846 α      in ANC's #3, #4, #6, ...

........................................................................
.............................. CYCLE   37 ..............................
........................................................................
   1    -21.8219255 -0.218219E+02  0.654E-02    3.41       0.0  T
   2    -21.8219270 -0.157016E-05  0.395E-02    3.40       1.0  T
   3    -21.8219274 -0.361162E-06  0.680E-03    3.40       4.2  T
   4    -21.8219275 -0.858684E-07  0.301E-03    3.40       9.6  T
   5    -21.8219275 -0.375612E-07  0.118E-03    3.40      24.4  T
   6    -21.8219275 -0.149474E-08  0.549E-04    3.40      52.6  T
     SCC iter.                  ...        0 min,  0.002 sec
     gradient                   ...        0 min,  0.002 sec
 * total energy  :   -21.6131345 Eh     change       -0.3764574E-04 Eh
   gradient norm :     0.0051673 Eh/α   predicted    -0.5080193E-04 (  34.95%)
   displ. norm   :     0.0556830 α      lambda       -0.4577739E-04
   maximum displ.:     0.0454397 α      in ANC's #3, #7, #19, ...

........................................................................
.............................. CYCLE   38 ..............................
........................................................................
   1    -21.8219486 -0.218219E+02  0.521E-02    3.40       0.0  T
   2    -21.8219489 -0.284355E-06  0.317E-02    3.40       1.0  T
   3    -21.8219490 -0.157380E-06  0.239E-03    3.40      12.1  T
   4    -21.8219490 -0.438294E-08  0.124E-03    3.40      23.3  T
     SCC iter.                  ...        0 min,  0.001 sec
     gradient                   ...        0 min,  0.002 sec
 * total energy  :   -21.6131579 Eh     change       -0.2341826E-04 Eh
   gradient norm :     0.0023252 Eh/α   predicted    -0.2295742E-04 (  -1.97%)
   displ. norm   :     0.1413198 α      lambda       -0.3735028E-04
   maximum displ.:     0.1166154 α      in ANC's #3, #2, #19, ...

........................................................................
.............................. CYCLE   39 ..............................
........................................................................
   1    -21.8215223 -0.218215E+02  0.126E-01    3.39       0.0  T
   2    -21.8215229 -0.589221E-06  0.763E-02    3.39       1.0  T
   3    -21.8215233 -0.404540E-06  0.398E-03    3.39       7.3  T
   4    -21.8215233 -0.995328E-08  0.227E-03    3.39      12.7  T
   5    -21.8215233 -0.135599E-07  0.585E-04    3.39      49.4  T
   6    -21.8215233 -0.592216E-09  0.195E-04    3.39     148.3  T
     SCC iter.                  ...        0 min,  0.002 sec
     gradient                   ...        0 min,  0.091 sec
 * total energy  :   -21.6131863 Eh     change       -0.2835862E-04 Eh
   gradient norm :     0.0036312 Eh/α   predicted    -0.1904663E-04 ( -32.84%)
   displ. norm   :     0.2572737 α      lambda       -0.6258528E-04
   maximum displ.:     0.2001971 α      in ANC's #3, #2, #19, ...

........................................................................
.............................. CYCLE   40 ..............................
........................................................................
   1    -21.8202677 -0.218203E+02  0.226E-01    3.37       0.0  T
   2    -21.8202688 -0.116300E-05  0.136E-01    3.36       1.0  T
   3    -21.8202695 -0.666817E-06  0.625E-03    3.36       4.6  T
   4    -21.8202696 -0.903701E-07  0.380E-03    3.36       7.6  T
   5    -21.8202696 -0.258715E-07  0.110E-03    3.36      26.2  T
   6    -21.8202696 -0.141440E-08  0.318E-04    3.36      90.9  T
   7    -21.8202696 -0.179934E-09  0.116E-04    3.36     248.7  T
     SCC iter.                  ...        0 min,  0.002 sec
     gradient                   ...        0 min,  0.001 sec
 * total energy  :   -21.6132054 Eh     change       -0.1915486E-04 Eh
   gradient norm :     0.0074448 Eh/α   predicted    -0.3336333E-04 (  74.18%)
   displ. norm   :     0.0517609 α      lambda       -0.8008462E-04
   maximum displ.:     0.0345985 α      in ANC's #3, #7, #9, ...

........................................................................
.............................. CYCLE   41 ..............................
........................................................................
   1    -21.8218778 -0.218219E+02  0.591E-02    3.38       0.0  T
   2    -21.8218789 -0.111477E-05  0.361E-02    3.37       1.0  T
   3    -21.8218793 -0.359417E-06  0.540E-03    3.37       5.4  T
   4    -21.8218793 -0.422944E-07  0.202E-03    3.37      14.3  T
   5    -21.8218793 -0.157347E-07  0.987E-04    3.37      29.2  T
     SCC iter.                  ...        0 min,  0.002 sec
     gradient                   ...        0 min,  0.091 sec
 * total energy  :   -21.6132484 Eh     change       -0.4294628E-04 Eh
   gradient norm :     0.0024112 Eh/α   predicted    -0.4014943E-04 (  -6.51%)
   displ. norm   :     0.0983642 α      lambda       -0.2932380E-04
   maximum displ.:     0.0568695 α      in ANC's #3, #2, #7, ...

........................................................................
.............................. CYCLE   42 ..............................
........................................................................
   1    -21.8218687 -0.218219E+02  0.898E-02    3.37       0.0  T
   2    -21.8218691 -0.355609E-06  0.542E-02    3.37       1.0  T
   3    -21.8218692 -0.145255E-06  0.403E-03    3.37       7.2  T
   4    -21.8218693 -0.849634E-07  0.216E-03    3.37      13.3  T
   5    -21.8218693 -0.591451E-08  0.703E-04    3.37      41.1  T
   6    -21.8218693 -0.777380E-09  0.218E-04    3.37     132.2  T
     SCC iter.                  ...        0 min,  0.002 sec
     gradient                   ...        0 min,  0.001 sec
 * total energy  :   -21.6132726 Eh     change       -0.2425031E-04 Eh
   gradient norm :     0.0015175 Eh/α   predicted    -0.1480299E-04 ( -38.96%)
   displ. norm   :     0.4015613 α      lambda       -0.5215761E-04
   maximum displ.:     0.2451742 α      in ANC's #3, #2, #19, ...
 * RMSD in coord.:     0.7558195 α      energy gain  -0.1253977E-02 Eh

generating ANC from model Hessian ...
Using Lindh-Hessian (1995)
 Shifting diagonal of input Hessian by   9.760467471805031E-003
 Lowest  eigenvalues of input Hessian
   -0.000000   -0.000000   -0.000000   -0.000000    0.000000    0.000000
    0.010000    0.010116    0.010255    0.010944    0.014923    0.016698
    0.019306    0.023455    0.025662    0.052638    0.058952    0.077607
 Highest eigenvalues
    1.192441    1.286685    1.380223    1.410319    2.198371    2.224966
 

........................................................................
.............................. CYCLE   43 ..............................
........................................................................
   1    -21.8191522 -0.218192E+02  0.382E-01    3.33       0.0  T
   2    -21.8191587 -0.648831E-05  0.231E-01    3.34       1.0  T
   3    -21.8191623 -0.364700E-05  0.152E-02    3.34       1.9  T
   4    -21.8191632 -0.835450E-06  0.914E-03    3.34       3.2  T
   5    -21.8191633 -0.962055E-07  0.288E-03    3.34      10.0  T
   6    -21.8191633 -0.249344E-07  0.738E-04    3.34      39.1  T
   7    -21.8191633 -0.111442E-08  0.182E-04    3.34     158.2  T
     SCC iter.                  ...        0 min,  0.092 sec
     gradient                   ...        0 min,  0.002 sec
 * total energy  :   -21.6132565 Eh     change        0.1613157E-04 Eh
   gradient norm :     0.0092656 Eh/α   predicted     0.0000000E+00 (-100.00%)
   displ. norm   :     0.0294227 α      lambda       -0.1031787E-03
   maximum displ.:     0.0188506 α      in ANC's #2, #3, #19, ...

........................................................................
.............................. CYCLE   44 ..............................
........................................................................
   1    -21.8214239 -0.218214E+02  0.479E-02    3.37       0.0  T
   2    -21.8214247 -0.866055E-06  0.288E-02    3.36       1.0  T
   3    -21.8214249 -0.130781E-06  0.537E-03    3.36       5.4  T
   4    -21.8214249 -0.725779E-07  0.211E-03    3.36      13.7  T
   5    -21.8214250 -0.153542E-07  0.793E-04    3.36      36.4  T
     SCC iter.                  ...        0 min,  0.002 sec
     gradient                   ...        0 min,  0.001 sec
 * total energy  :   -21.6133211 Eh     change       -0.6465356E-04 Eh
   gradient norm :     0.0021423 Eh/α   predicted    -0.5163538E-04 ( -20.14%)
   displ. norm   :     0.0366790 α      lambda       -0.2442762E-04
   maximum displ.:     0.0229983 α      in ANC's #2, #3, #4, ...

........................................................................
.............................. CYCLE   45 ..............................
........................................................................
   1    -21.8222532 -0.218223E+02  0.538E-02    3.37       0.0  T
   2    -21.8222534 -0.250901E-06  0.328E-02    3.37       1.0  T
   3    -21.8222535 -0.107141E-06  0.218E-03    3.37      13.3  T
   4    -21.8222535 -0.645642E-08  0.931E-04    3.37      31.0  T
   5    -21.8222535 -0.138008E-08  0.473E-04    3.37      61.0  T
     SCC iter.                  ...        0 min,  0.092 sec
     gradient                   ...        0 min,  0.001 sec
 * total energy  :   -21.6133319 Eh     change       -0.1081912E-04 Eh
   gradient norm :     0.0014733 Eh/α   predicted    -0.1222984E-04 (  13.04%)
   displ. norm   :     0.0636633 α      lambda       -0.1699656E-04
   maximum displ.:     0.0431831 α      in ANC's #2, #3, #4, ...

........................................................................
.............................. CYCLE   46 ..............................
........................................................................
   1    -21.8224335 -0.218224E+02  0.100E-01    3.37       0.0  T
   2    -21.8224340 -0.483617E-06  0.614E-02    3.37       1.0  T
   3    -21.8224343 -0.274489E-06  0.354E-03    3.37       8.2  T
   4    -21.8224343 -0.462036E-07  0.200E-03    3.37      14.5  T
   5    -21.8224343 -0.321335E-08  0.252E-04    3.37     114.6  T
   6    -21.8224343 -0.961080E-10  0.125E-04    3.37     231.7  T
     SCC iter.                  ...        0 min,  0.002 sec
     gradient                   ...        0 min,  0.001 sec
 * total energy  :   -21.6133470 Eh     change       -0.1509177E-04 Eh
   gradient norm :     0.0019077 Eh/α   predicted    -0.8515187E-05 ( -43.58%)
   displ. norm   :     0.0855997 α      lambda       -0.1532127E-04
   maximum displ.:     0.0567423 α      in ANC's #2, #3, #4, ...

........................................................................
.............................. CYCLE   47 ..............................
........................................................................
   1    -21.8217107 -0.218217E+02  0.136E-01    3.37       0.0  T
   2    -21.8217116 -0.915843E-06  0.829E-02    3.37       1.0  T
   3    -21.8217121 -0.467485E-06  0.433E-03    3.37       6.7  T
   4    -21.8217121 -0.308248E-07  0.240E-03    3.37      12.0  T
   5    -21.8217121 -0.110711E-07  0.884E-04    3.37      32.7  T
   6    -21.8217121 -0.103752E-08  0.304E-04    3.37      95.1  T
     SCC iter.                  ...        0 min,  0.092 sec
     gradient                   ...        0 min,  0.001 sec
 * total energy  :   -21.6133618 Eh     change       -0.1474090E-04 Eh
   gradient norm :     0.0031083 Eh/α   predicted    -0.7686554E-05 ( -47.86%)
   displ. norm   :     0.0591775 α      lambda       -0.1531840E-04
   maximum displ.:     0.0332501 α      in ANC's #3, #2, #5, ...

........................................................................
.............................. CYCLE   48 ..............................
........................................................................
   1    -21.8214537 -0.218215E+02  0.768E-02    3.37       0.0  T
   2    -21.8214538 -0.171736E-06  0.462E-02    3.37       1.0  T
   3    -21.8214539 -0.960786E-07  0.232E-03    3.37      12.4  T
   4    -21.8214540 -0.113133E-07  0.141E-03    3.37      20.4  T
   5    -21.8214540 -0.188262E-08  0.522E-04    3.37      55.3  T
   6    -21.8214540 -0.779117E-09  0.150E-04    3.37     192.9  T
     SCC iter.                  ...        0 min,  0.003 sec
     gradient                   ...        0 min,  0.001 sec
 * total energy  :   -21.6133729 Eh     change       -0.1116102E-04 Eh
   gradient norm :     0.0024369 Eh/α   predicted    -0.7683966E-05 ( -31.15%)
   displ. norm   :     0.0709401 α      lambda       -0.1377830E-04
   maximum displ.:     0.0440341 α      in ANC's #3, #2, #5, ...

........................................................................
.............................. CYCLE   49 ..............................
........................................................................
   1    -21.8214007 -0.218214E+02  0.925E-02    3.37       0.0  T
   2    -21.8214011 -0.365349E-06  0.560E-02    3.37       1.0  T
   3    -21.8214013 -0.236925E-06  0.310E-03    3.37       9.3  T
   4    -21.8214014 -0.930303E-08  0.180E-03    3.37      16.0  T
   5    -21.8214014 -0.401745E-08  0.556E-04    3.37      51.9  T
   6    -21.8214014 -0.857096E-09  0.199E-04    3.37     144.9  T
     SCC iter.                  ...        0 min,  0.002 sec
     gradient                   ...        0 min,  0.001 sec
 * total energy  :   -21.6133828 Eh     change       -0.9895201E-05 Eh
   gradient norm :     0.0020470 Eh/α   predicted    -0.6924705E-05 ( -30.02%)
   displ. norm   :     0.0682946 α      lambda       -0.1208601E-04
   maximum displ.:     0.0449642 α      in ANC's #3, #2, #1, ...

........................................................................
.............................. CYCLE   50 ..............................
........................................................................
   1    -21.8215549 -0.218216E+02  0.895E-02    3.37       0.0  T
   2    -21.8215554 -0.477507E-06  0.546E-02    3.37       1.0  T
   3    -21.8215557 -0.310357E-06  0.338E-03    3.37       8.6  T
   4    -21.8215557 -0.956306E-08  0.194E-03    3.37      14.8  T
   5    -21.8215557 -0.795868E-08  0.610E-04    3.37      47.4  T
   6    -21.8215557 -0.740293E-09  0.201E-04    3.37     143.8  T
     SCC iter.                  ...        0 min,  0.002 sec
     gradient                   ...        0 min,  0.001 sec
 * total energy  :   -21.6133918 Eh     change       -0.8967500E-05 Eh
   gradient norm :     0.0015525 Eh/α   predicted    -0.6071000E-05 ( -32.30%)
   displ. norm   :     0.1217891 α      lambda       -0.1111679E-04
   maximum displ.:     0.0816690 α      in ANC's #3, #2, #1, ...

........................................................................
.............................. CYCLE   51 ..............................
........................................................................
   1    -21.8216534 -0.218217E+02  0.156E-01    3.38       0.0  T
   2    -21.8216546 -0.128829E-05  0.954E-02    3.38       1.0  T
   3    -21.8216555 -0.832727E-06  0.557E-03    3.38       5.2  T
   4    -21.8216555 -0.256581E-07  0.331E-03    3.38       8.7  T
   5    -21.8216555 -0.285234E-07  0.840E-04    3.38      34.4  T
   6    -21.8216555 -0.779885E-09  0.244E-04    3.38     118.2  T
     SCC iter.                  ...        0 min,  0.092 sec
     gradient                   ...        0 min,  0.001 sec
 * total energy  :   -21.6134000 Eh     change       -0.8197704E-05 Eh
   gradient norm :     0.0019896 Eh/α   predicted    -0.5594565E-05 ( -31.75%)
   displ. norm   :     0.0880816 α      lambda       -0.1495374E-04
   maximum displ.:     0.0624218 α      in ANC's #1, #3, #2, ...

........................................................................
.............................. CYCLE   52 ..............................
........................................................................
   1    -21.8227392 -0.218227E+02  0.862E-02    3.40       0.0  T
   2    -21.8227406 -0.141770E-05  0.528E-02    3.39       1.0  T
   3    -21.8227414 -0.748108E-06  0.592E-03    3.39       4.9  T
   4    -21.8227414 -0.348750E-07  0.299E-03    3.39       9.6  T
   5    -21.8227415 -0.354798E-07  0.125E-03    3.39      23.1  T
   6    -21.8227415 -0.150976E-08  0.112E-04    3.39     256.6  T
   7    -21.8227415 -0.200515E-10  0.517E-05    3.39     558.7  T
     SCC iter.                  ...        0 min,  0.002 sec
     gradient                   ...        0 min,  0.001 sec
 * total energy  :   -21.6133952 Eh     change        0.4780765E-05 Eh
   gradient norm :     0.0045298 Eh/α   predicted    -0.7501063E-05 (-256.90%)
   displ. norm   :     0.1003823 α      lambda       -0.2561524E-04
   maximum displ.:     0.0668951 α      in ANC's #3, #2, #1, ...

........................................................................
.............................. CYCLE   53 ..............................
........................................................................
   1    -21.8216461 -0.218216E+02  0.139E-01    3.38       0.0  T
   2    -21.8216472 -0.110771E-05  0.844E-02    3.39       1.0  T
   3    -21.8216477 -0.469164E-06  0.507E-03    3.40       5.7  T
   4    -21.8216477 -0.395032E-07  0.264E-03    3.39      10.9  T
   5    -21.8216477 -0.139930E-07  0.117E-03    3.39      24.7  T
     SCC iter.                  ...        0 min,  0.092 sec
     gradient                   ...        0 min,  0.002 sec
 * total energy  :   -21.6134008 Eh     change       -0.5573141E-05 Eh
   gradient norm :     0.0027182 Eh/α   predicted    -0.1293726E-04 ( 132.14%)
   displ. norm   :     0.0661100 α      lambda       -0.2658281E-04
   maximum displ.:     0.0440923 α      in ANC's #3, #1, #2, ...

........................................................................
.............................. CYCLE   54 ..............................
........................................................................
   1    -21.8220279 -0.218220E+02  0.877E-02    3.40       0.0  T
   2    -21.8220286 -0.655094E-06  0.538E-02    3.39       1.0  T
   3    -21.8220290 -0.404889E-06  0.388E-03    3.39       7.4  T
   4    -21.8220290 -0.254332E-07  0.239E-03    3.39      12.1  T
   5    -21.8220290 -0.545280E-08  0.796E-04    3.39      36.3  T
   6    -21.8220290 -0.234519E-08  0.265E-04    3.39     109.0  T
     SCC iter.                  ...        0 min,  0.002 sec
     gradient                   ...        0 min,  0.001 sec
 * total energy  :   -21.6134122 Eh     change       -0.1136541E-04 Eh
   gradient norm :     0.0009434 Eh/α   predicted    -0.1334884E-04 (  17.45%)
   displ. norm   :     0.0467723 α      lambda       -0.2940542E-05
   maximum displ.:     0.0289367 α      in ANC's #3, #1, #2, ...

........................................................................
.............................. CYCLE   55 ..............................
........................................................................
   1    -21.8218771 -0.218219E+02  0.500E-02    3.40       0.0  T
   2    -21.8218772 -0.128816E-06  0.303E-02    3.40       1.0  T
   3    -21.8218773 -0.770489E-07  0.176E-03    3.40      16.4  T
   4    -21.8218773 -0.333304E-08  0.104E-03    3.40      27.7  T
   5    -21.8218773 -0.191102E-08  0.399E-04    3.40      72.3  T
   6    -21.8218773 -0.340776E-09  0.878E-05    3.40     328.7  T
     SCC iter.                  ...        0 min,  0.092 sec
     gradient                   ...        0 min,  0.001 sec
 * total energy  :   -21.6134161 Eh     change       -0.3907423E-05 Eh
   gradient norm :     0.0007726 Eh/α   predicted    -0.1470942E-05 ( -62.36%)
   displ. norm   :     0.2361711 α      lambda       -0.1608973E-04
   maximum displ.:     0.1316152 α      in ANC's #3, #1, #2, ...

   *** GEOMETRY OPTIMIZATION CONVERGED AFTER 55 ITERATIONS ***

------------------------------------------------------------------------
 total energy gain   :        -0.0096224 Eh       -6.0381 kcal/mol
 total RMSD          :         1.1860645 a0        0.6276 Å
 total power (kW/mol):        -0.4593370 (step)   -8.4567 (real)
------------------------------------------------------------------------

 ANCopt (total)                0 d,  0 h,  0 min,  2.987 sec
 optimizer setup                ...        0 min,  0.000 sec (  0.011%)
 model hessian                  ...        0 min,  0.086 sec (  2.868%)
 ANC generation                 ...        0 min,  0.001 sec (  0.039%)
 coordinate transformation      ...        0 min,  0.002 sec (  0.070%)
 single point calculation       ...        0 min,  2.876 sec ( 96.256%)
 optimization log               ...        0 min,  0.004 sec (  0.132%)
 hessian update                 ...        0 min,  0.007 sec (  0.235%)
 rational function              ...        0 min,  0.004 sec (  0.123%)

================
 final structure:
================
12
 xtb: 6.2.3 (830e466)
C         1.04069191524689    1.21047782180088   -1.43870319909680
C         0.32014571124325    0.09551319040133   -0.72805552924508
C         1.14293398918487   -1.17200070186226   -0.76372971283503
O         0.52400561543319    1.94881817789168   -2.22859285150565
O         1.95440395958809    4.38952426078935   -2.97062142098606
O         2.29972059438894   -1.23588299316304   -0.47128059926057
H         1.40735734587567    4.94220751847839   -3.53221814881831
H         2.10731788973367    1.28729004093142   -1.17248358868055
H         1.45098745127189    3.58152684570785   -2.81018106567429
H         0.57848086499683   -2.06120228814043   -1.09807051851683
H        -0.67754816846160   -0.04820223256791   -1.14161162095017
H         0.24050283149685    0.40151035973134    0.31975825557155
 
 Bond Distances (Angstroems)
 ---------------------------
C1-C2=1.5058         C1-O4=1.1983         C1-H8=1.1020         C2-C1=1.5058         C2-C3=1.5116         C2-H11=1.0895        
C2-H12=1.0945        C3-C2=1.5116         C3-O6=1.1949         C3-H10=1.1050        O4-C1=1.1983         O5-H7=0.9592         
O5-H9=0.9654         O6-C3=1.1949         H7-O5=0.9592         H8-C1=1.1020         H9-O5=0.9654         H10-C3=1.1050        
H11-C2=1.0895        H12-C2=1.0945        
 C  H  Rav=1.0978 sigma=0.0061  Rmin=1.0895  Rmax=1.1050     4
 C  C  Rav=1.5087 sigma=0.0029  Rmin=1.5058  Rmax=1.5116     2
 O  H  Rav=0.9623 sigma=0.0031  Rmin=0.9592  Rmax=0.9654     2
 O  C  Rav=1.1966 sigma=0.0017  Rmin=1.1949  Rmax=1.1983     2
 
 selected bond angles (degree)
 --------------------
O4-C1-C2=124.12                H8-C1-C2=113.63                H8-C1-O4=122.25                C3-C2-C1=110.44                
H11-C2-C1=110.90               H11-C2-C3=112.26               H12-C2-C1=106.24               H12-C2-C3=107.26               
H12-C2-H11=109.49              O6-C3-C2=124.47                H10-C3-C2=113.82               H10-C3-O6=121.71               
H9-O5-H7=106.39                
 
 selected dihedral angles (degree)
 ---------------------------------
C3-C2-C1-O4=134.10            C3-C2-C1-H8=314.59            H11-C2-C1-O4=  8.99           H11-C2-C1-H8=189.48           
H12-C2-C1-O4=250.10           H12-C2-C1-H8= 70.59           O6-C3-C2-C1= 49.09            O6-C3-C2-H11=173.42           
O6-C3-C2-H12=293.73           H10-C3-C2-C1=229.53           H10-C3-C2-H11=353.86          H10-C3-C2-H12=114.17          
 
 CMA Distance (Angstroems)
 ---------------------------
R(CMA):  4.6673
           -------------------------------------------------
          |                Final Singlepoint                |
           -------------------------------------------------

          ...................................................
          :                      SETUP                      :
          :.................................................:
          :  # basis functions                  30          :
          :  # atomic orbitals                  30          :
          :  # shells                           18          :
          :  # electrons                        36          :
          :  max. iterations                   100          :
          :  Hamiltonian                  GFN2-xTB          :
          :  restarted?                      false          :
          :  GBSA solvation                  false          :
          :  PC potential                    false          :
          :  electronic temp.          300.0000000     K    :
          :  accuracy                    1.0000000          :
          :  -> integral cutoff          0.2500000E+02      :
          :  -> integral neglect         0.1000000E-07      :
          :  -> SCF convergence          0.1000000E-05 Eh   :
          :  -> wf. convergence          0.1000000E-03 e    :
          :  Broyden damping             0.4000000          :
          ...................................................

 iter      E             dE          RMSdq      gap      omega  full diag
   1    -21.8218773 -0.218219E+02  0.268E-05    3.40       0.0  T
   2    -21.8218773 -0.116529E-11  0.164E-05    3.40    1760.0  T
   3    -21.8218773 -0.124345E-12  0.682E-06    3.40    4231.4  T

   *** convergence criteria satisfied after 3 iterations ***

         #    Occupation            Energy/Eh            Energy/eV
      -------------------------------------------------------------
         1        2.0000           -0.7517637             -20.4565
       ...           ...                  ...                  ...
        12        2.0000           -0.5411757             -14.7261
        13        2.0000           -0.5341075             -14.5338
        14        2.0000           -0.5075849             -13.8121
        15        2.0000           -0.4879541             -13.2779
        16        2.0000           -0.4466625             -12.1543
        17        2.0000           -0.4294437             -11.6858
        18        2.0000           -0.4226040             -11.4996 (HOMO)
        19                         -0.2977799              -8.1030 (LUMO)
        20                         -0.2907214              -7.9109
        21                          0.0575236               1.5653
        22                          0.0757791               2.0621
        23                          0.1107843               3.0146
       ...                                ...                  ...
        30                          0.5986928              16.2913
      -------------------------------------------------------------
                  HL-Gap            0.1248241 Eh            3.3966 eV
             Fermi-level           -0.3601920 Eh           -9.8013 eV

 SCC (total)                   0 d,  0 h,  0 min,  0.003 sec
 SCC setup                      ...        0 min,  0.000 sec (  6.368%)
 Dispersion                     ...        0 min,  0.000 sec (  1.239%)
 integral evaluation            ...        0 min,  0.000 sec ( 14.388%)
 zeroth order Hamiltonian       ...        0 min,  0.000 sec (  2.022%)
 iterations                     ...        0 min,  0.001 sec ( 28.558%)
 molecular gradient             ...        0 min,  0.001 sec ( 35.633%)
 printout                       ...        0 min,  0.000 sec (  5.668%)

         :::::::::::::::::::::::::::::::::::::::::::::::::::::
         ::                     SUMMARY                     ::
         :::::::::::::::::::::::::::::::::::::::::::::::::::::
         :: total energy             -21.613416060262 Eh    ::
         :: gradient norm              0.000773344585 Eh/a0 ::
         :: HOMO-LUMO gap              3.396636802326 eV    ::
         ::.................................................::
         :: SCC energy               -21.821877300182 Eh    ::
         :: -> isotropic ES            0.074213494977 Eh    ::
         :: -> anisotropic ES         -0.001668356630 Eh    ::
         :: -> anisotropic XC          0.003378595272 Eh    ::
         :: -> dispersion             -0.004968621869 Eh    ::
         :: repulsion energy           0.208473544245 Eh    ::
         :: add. restraining           0.000000000000 Eh    ::
         :::::::::::::::::::::::::::::::::::::::::::::::::::::

           -------------------------------------------------
          |                Property Printout                |
           -------------------------------------------------

    * Orbital Energies and Occupations

         #    Occupation            Energy/Eh            Energy/eV
      -------------------------------------------------------------
         1        2.0000           -0.7517637             -20.4565
       ...           ...                  ...                  ...
         6        2.0000           -0.6235553             -16.9678
         7        2.0000           -0.6056696             -16.4811
         8        2.0000           -0.5906015             -16.0711
         9        2.0000           -0.5753106             -15.6550
        10        2.0000           -0.5696159             -15.5000
        11        2.0000           -0.5500055             -14.9664
        12        2.0000           -0.5411757             -14.7261
        13        2.0000           -0.5341075             -14.5338
        14        2.0000           -0.5075849             -13.8121
        15        2.0000           -0.4879541             -13.2779
        16        2.0000           -0.4466625             -12.1543
        17        2.0000           -0.4294437             -11.6858
        18        2.0000           -0.4226040             -11.4996 (HOMO)
        19                         -0.2977799              -8.1030 (LUMO)
        20                         -0.2907214              -7.9109
        21                          0.0575236               1.5653
        22                          0.0757791               2.0621
        23                          0.1107843               3.0146
        24                          0.1155507               3.1443
        25                          0.1452975               3.9537
        26                          0.1967506               5.3539
        27                          0.2323804               6.3234
        28                          0.2839522               7.7267
        29                          0.5909624              16.0809
        30                          0.5986928              16.2913
      -------------------------------------------------------------
                  HL-Gap            0.1248241 Eh            3.3966 eV
             Fermi-level           -0.3601920 Eh           -9.8013 eV

     #   Z        covCN         q      C6AA      α(0)
     1   6 C      2.760     0.224    23.284     7.902
     2   6 C      3.802    -0.112    22.639     6.774
     3   6 C      2.760     0.216    23.429     7.927
     4   8 O      0.856    -0.315    20.055     6.004
     5   8 O      1.610    -0.586    24.862     6.730
     6   8 O      0.856    -0.298    19.744     5.957
     7   1 H      0.805     0.273     0.807     1.411
     8   1 H      0.923     0.059     2.209     2.324
     9   1 H      0.805     0.297     0.729     1.341
    10   1 H      0.922     0.041     2.439     2.443
    11   1 H      0.925     0.084     1.937     2.177
    12   1 H      0.924     0.116     1.644     2.005

 Mol. C6AA /au·bohr⁶  :       1272.621623
 Mol. C8AA /au·bohr⁸  :      27373.586307
 Mol. α(0) /au        :         52.994821


Wiberg/Mayer (AO) data.
largest (>0.10) Wiberg bond orders for each atom
          total WBO             WBO to atom ...
     1  C   3.908        O    4 1.915    C    2 0.993    H    8 0.931
     2  C   3.993        C    1 0.993    C    3 0.983    H   11 0.971    H   12 0.903
     3  C   3.919        O    6 1.943    C    2 0.983    H   10 0.930
     4  O   2.125        C    1 1.915
     5  O   1.827        H    7 0.925    H    9 0.889
     6  O   2.123        C    3 1.943
     7  H   0.925        O    5 0.925
     8  H   0.996        C    1 0.931
     9  H   0.911        O    5 0.889
    10  H   0.998        C    3 0.930
    11  H   0.993        C    2 0.971
    12  H   0.986        C    2 0.903

molecular dipole:
                 x           y           z       tot (Debye)
 q only:       -1.164      -0.684       0.386
   full:       -1.497      -0.854       0.386       4.489
molecular quadrupole (traceless):
                xx          xy          yy          xz          yz          zz
 q only:       -3.549      -5.056      -1.655       4.968       4.877       5.204
  q+dip:       -5.330      -6.757      -1.971       6.617       5.957       7.300
   full:       -6.226      -7.017      -1.996       6.030       5.986       8.222

           -------------------------------------------------
          |                Geometry Summary                 |
           -------------------------------------------------

      molecular mass/u    :       90.0780670
   center of mass at/Å    :        1.2396695       1.0148210      -1.5034913
  moments of inertia/u·Å² :        0.5735359E+02   0.4621481E+03   0.5065487E+03
rotational constants/cm⁻¹ :        0.2939246E+00   0.3647669E-01   0.3327939E-01

 * 7 selected distances

     #   Z        #   Z                                     value/Å
     1   6 C      4   8 O                                 1.1983476 (max)
     3   6 C      6   8 O                                 1.1948902
     5   8 O      7   1 H                                 0.9592235 (min)
     1   6 C      8   1 H                                 1.1020272
     5   8 O      9   1 H                                 0.9654165
     2   6 C     11   1 H                                 1.0895301
     2   6 C     12   1 H                                 1.0944821

 * 3 distinct bonds (by element types)

   Z      Z             #   av. dist./Å        max./Å        min./Å
   1 H    6 C           3     1.0953465     1.1020272     1.0895301
   1 H    8 O           2     0.9623200     0.9654165     0.9592235
   6 C    8 O           2     1.1966189     1.1983476     1.1948902


optimized geometry written to: xtbopt.xyz


           -------------------------------------------------
          | TOTAL ENERGY              -21.613416060262 Eh   |
          | GRADIENT NORM               0.000773344585 Eh/α |
          | HOMO-LUMO GAP               3.396636802326 eV   |
           -------------------------------------------------

------------------------------------------------------------------------
 * finished run on 2020/12/23 at 21:41:03.763     
------------------------------------------------------------------------
 total:
 * wall-time:     0 d,  0 h,  0 min,  3.265 sec
 *  cpu-time:     0 d,  0 h,  0 min, 13.358 sec
 * ratio c/w:     4.091 speedup
 SCF:
 * wall-time:     0 d,  0 h,  0 min,  0.012 sec
 *  cpu-time:     0 d,  0 h,  0 min,  0.242 sec
 * ratio c/w:    21.062 speedup
 ANC optimizer:
 * wall-time:     0 d,  0 h,  0 min,  2.994 sec
 *  cpu-time:     0 d,  0 h,  0 min, 11.982 sec
 * ratio c/w:     4.002 speedup

