      -----------------------------------------------------------      
     |                   =====================                   |     
     |                           x T B                           |     
     |                   =====================                   |     
     |                         S. Grimme                         |     
     |          Mulliken Center for Theoretical Chemistry        |     
     |                    University of Bonn                     |     
      -----------------------------------------------------------      

   * xtb version 6.2.3 (830e466) compiled by 'ehlert@majestix' on 2020-03-16

   xtb is free software: you can redistribute it and/or modify it under
   the terms of the GNU Lesser General Public License as published by
   the Free Software Foundation, either version 3 of the License, or
   (at your option) any later version.
   
   xtb is distributed in the hope that it will be useful,
   but WITHOUT ANY WARRANTY; without even the implied warranty of
   MERCHANTABILITY or FITNESS FOR A PARTICULAR PURPOSE.  See the
   GNU Lesser General Public License for more details.
   
   Cite this work as:
   * S. Grimme, C. Bannwarth, P. Shushkov, J. Chem. Theory Comput., 2017,
     13, 1989-2009. DOI: 10.1021/acs.jctc.7b00118
   * C. Bannwarth, S. Ehlert and S. Grimme., J. Chem. Theory Comput., 2019,
     15, 1652-1671. DOI: 10.1021/acs.jctc.8b01176
   * P. Pracht, E. Caldeweyher, S. Ehlert, S. Grimme, ChemRxiv, 2019, preprint.
     DOI: 10.26434/chemrxiv.8326202.v1
   
   for DFT-D4:
   * E. Caldeweyher, C. Bannwarth and S. Grimme, J. Chem. Phys., 2017,
     147, 034112. DOI: 10.1063/1.4993215
   * E. Caldeweyher, S. Ehlert, A. Hansen, H. Neugebauer, S. Spicher,
     C. Bannwarth and S. Grimme, J. Chem. Phys., 2019, 150, 154122.
     DOI: 10.1063/1.5090222
   
   for sTDA-xTB:
   * S. Grimme and C. Bannwarth, J. Chem. Phys., 2016, 145, 054103.
     DOI: 10.1063/1.4959605
   
   in the mass-spec context:
   * V. Asgeirsson, C. Bauer and S. Grimme, Chem. Sci., 2017, 8, 4879.
     DOI: 10.1039/c7sc00601b
   
   for metadynamics refer to:
   * S. Grimme, J. Chem. Theory Comput., 2019, 155, 2847-2862
     DOI: 10.1021/acs.jctc.9b00143
   
   with help from (in alphabetical order)
   C. Bannwarth, F. Bohle, G. Brandenburg, E. Caldeweyher, M. Checinski,
   S. Dohm, S. Ehlert, S. Ehrlich, F. März, H. Neugebauer, J. Pisarek,
   P. Pracht, P. Shushkov, and S. Spicher.
   
 * started run on 2020/12/23 at 21:41:12.744     

           -------------------------------------------------
          |                Calculation Setup                |
           -------------------------------------------------

          program call               : xtb -c 0 -u 0 -a 1.0 --iterations 100 --opt normal --namespace product_11 /scratch/bell/zhao922/YARP/paper-example/potential_product/test/reaction_channel/pp_0/pp_15_1.xyz
          hostname                   : bell-fe05.rcac.purdue.edu
          calculation namespace      : product_11
          coordinate file            : /scratch/bell/zhao922/YARP/paper-example/potential_product/test/reaction_channel/pp_0/pp_15_1.xyz
          omp threads                :                    32
          number of atoms            :                    12
          number of electrons        :                    36
          charge                     :                     0
          spin                       :                   0.0
          first test random number   :      0.27091895697085

           ------------------------------------------------- 
          |                 G F N 2 - x T B                 |
          | Geometry, Frequencies, Noncovalent interactions |
          |            JCTC 2019 parametrisation            |
           ------------------------------------------------- 
             k(s)              :                1.8500
             k(p)              :                2.2300
             k(d)              :                2.2300
             k(f)              :                2.0000
             kEN (H0ij)        :               -2.0000
             D4 a1             :                0.5200
             D4 a2             :                5.0000
             D4 s6             :                1.0000
             D4 s8             :                2.7000
             D4 s9             :                5.0000
             alphaj            :                2.0000

  Z AO/shell   Hii/eV     exponent
  1     Wed Apr 25 08:07:45 CEST 2018   EN: 2.200 GM2: 0.406  GM3: 0.0800  RAES: 1.40
     1s    -10.707211    1.230000
  6     Wed Apr 25 08:07:45 CEST 2018   EN: 2.550 GM2: 0.538  GM3: 0.1500  RAES: 3.00
     2s    -13.970922    2.096432
     2p    -10.063292    1.800000
  8     Wed Apr 25 08:07:45 CEST 2018   EN: 3.440 GM2: 0.452  GM3:-0.0517  RAES: 1.80
     2s    -20.229985    2.439742
     2p    -15.503117    2.137023

           ------------------------------------------------- 
          |        Self-Consistent Charge Iterations        |
           ------------------------------------------------- 

          ...................................................
          :                      SETUP                      :
          :.................................................:
          :  # basis functions                  30          :
          :  # atomic orbitals                  30          :
          :  # shells                           18          :
          :  # electrons                        36          :
          :  max. iterations                   100          :
          :  Hamiltonian                  GFN2-xTB          :
          :  restarted?                      false          :
          :  GBSA solvation                  false          :
          :  PC potential                    false          :
          :  electronic temp.          300.0000000     K    :
          :  accuracy                    1.0000000          :
          :  -> integral cutoff          0.2500000E+02      :
          :  -> integral neglect         0.1000000E-07      :
          :  -> SCF convergence          0.1000000E-05 Eh   :
          :  -> wf. convergence          0.1000000E-03 e    :
          :  Broyden damping             0.4000000          :
          ...................................................

 iter      E             dE          RMSdq      gap      omega  full diag
   1    -21.7431564 -0.217432E+02  0.536E+00    4.41       0.0  T
   2    -21.7898951 -0.467387E-01  0.273E+00    3.37       1.0  T
   3    -21.7922743 -0.237920E-02  0.173E+00    3.88       1.0  T
   4    -21.7987768 -0.650250E-02  0.217E-01    3.57       1.0  T
   5    -21.7989783 -0.201502E-03  0.105E-01    3.62       1.0  T
   6    -21.7990099 -0.316418E-04  0.380E-02    3.61       1.0  T
   7    -21.7990106 -0.640157E-06  0.107E-02    3.61       2.7  T
   8    -21.7990113 -0.710878E-06  0.280E-03    3.61      10.3  T
   9    -21.7990113 -0.414277E-08  0.953E-04    3.61      30.3  T
  10    -21.7990113 -0.268956E-08  0.409E-04    3.61      70.5  T

   *** convergence criteria satisfied after 10 iterations ***

         #    Occupation            Energy/Eh            Energy/eV
      -------------------------------------------------------------
         1        2.0000           -0.7306044             -19.8808
       ...           ...                  ...                  ...
        12        2.0000           -0.5290034             -14.3949
        13        2.0000           -0.5123252             -13.9411
        14        2.0000           -0.5006213             -13.6226
        15        2.0000           -0.4760824             -12.9549
        16        2.0000           -0.4554684             -12.3939
        17        2.0000           -0.4360375             -11.8652
        18        2.0000           -0.4208981             -11.4532 (HOMO)
        19                         -0.2882682              -7.8442 (LUMO)
        20                         -0.0008356              -0.0227
        21                          0.0373250               1.0157
        22                          0.0717640               1.9528
        23                          0.0967498               2.6327
       ...                                ...                  ...
        30                          0.5190231              14.1233
      -------------------------------------------------------------
                  HL-Gap            0.1326299 Eh            3.6090 eV
             Fermi-level           -0.3545832 Eh           -9.6487 eV

 SCC (total)                   0 d,  0 h,  0 min,  0.008 sec
 SCC setup                      ...        0 min,  0.000 sec (  3.489%)
 Dispersion                     ...        0 min,  0.000 sec (  0.740%)
 integral evaluation            ...        0 min,  0.001 sec (  7.593%)
 zeroth order Hamiltonian       ...        0 min,  0.000 sec (  0.996%)
 iterations                     ...        0 min,  0.005 sec ( 58.097%)
 molecular gradient             ...        0 min,  0.002 sec ( 23.924%)
 printout                       ...        0 min,  0.000 sec (  2.648%)

         :::::::::::::::::::::::::::::::::::::::::::::::::::::
         ::                     SUMMARY                     ::
         :::::::::::::::::::::::::::::::::::::::::::::::::::::
         :: total energy             -21.637001505517 Eh    ::
         :: gradient norm              0.078400696869 Eh/a0 ::
         :: HOMO-LUMO gap              3.609043343327 eV    ::
         ::.................................................::
         :: SCC energy               -21.799011306771 Eh    ::
         :: -> isotropic ES            0.071509685106 Eh    ::
         :: -> anisotropic ES          0.001767456793 Eh    ::
         :: -> anisotropic XC         -0.000687609933 Eh    ::
         :: -> dispersion             -0.006035337637 Eh    ::
         :: repulsion energy           0.162004363167 Eh    ::
         :: add. restraining           0.000000000000 Eh    ::
         :::::::::::::::::::::::::::::::::::::::::::::::::::::

      ----------------------------------------------------------- 
     |                   =====================                   |
     |                        A N C O P T                        |
     |                   =====================                   |
     |               Approximate Normal Coordinate               |
     |                Rational Function Optimizer                |
      ----------------------------------------------------------- 

          ...................................................
          :                      SETUP                      :
          :.................................................:
          :   optimization level            normal          :
          :   max. optcycles                   200          :
          :   ANC micro-cycles                  20          :
          :   degrees of freedom                30          :
          :.................................................:
          :   RF solver                   davidson          :
          :   write xtbopt.log                true          :
          :   linear?                        false          :
          :   energy convergence         0.5000000E-05 Eh   :
          :   grad. convergence          0.1000000E-02 Eh/α :
          :   maximium RF displ.         1.0000000          :
          :   Hlow (freq-cutoff)         0.1000000E-01      :
          :   Hmax (freq-cutoff)         5.0000000          :
          :   S6 in model hess.         20.0000000          :
          ...................................................

generating ANC from model Hessian ...
Using Lindh-Hessian (1995)
 Shifting diagonal of input Hessian by   4.844977354857781E-003
 Lowest  eigenvalues of input Hessian
   -0.000000   -0.000000   -0.000000   -0.000000    0.000000    0.000000
    0.010000    0.012015    0.017170    0.026956    0.030932    0.041912
    0.051355    0.056251    0.070630    0.072186    0.079032    0.089883
 Highest eigenvalues
    1.169803    1.216067    1.364090    1.423695    1.550106    2.095828
 

........................................................................
.............................. CYCLE    1 ..............................
........................................................................
   1    -21.7990113 -0.217990E+02  0.180E-04    3.61       0.0  T
   2    -21.7990113 -0.200785E-09  0.906E-05    3.61     318.5  T
   3    -21.7990113 -0.709584E-10  0.287E-05    3.61    1005.4  T
     SCC iter.                  ...        0 min,  0.001 sec
     gradient                   ...        0 min,  0.001 sec
 * total energy  :   -21.6370015 Eh     change        0.3238000E-07 Eh
   gradient norm :     0.0784024 Eh/α   predicted     0.0000000E+00 (-100.00%)
   displ. norm   :     0.1930311 α      lambda       -0.6699070E-02
   maximum displ.:     0.1383195 α      in ANC's #6, #7, #8, ...

........................................................................
.............................. CYCLE    2 ..............................
........................................................................
   1    -21.8149880 -0.218150E+02  0.327E-01    3.71       0.0  T
   2    -21.8150745 -0.864928E-04  0.194E-01    3.69       1.0  T
   3    -21.8150830 -0.842764E-05  0.556E-02    3.68       1.0  T
   4    -21.8150879 -0.493984E-05  0.171E-02    3.69       1.7  T
   5    -21.8150887 -0.767696E-06  0.756E-03    3.68       3.8  T
   6    -21.8150888 -0.134642E-06  0.398E-03    3.68       7.2  T
   7    -21.8150888 -0.180456E-07  0.785E-04    3.68      36.8  T
     SCC iter.                  ...        0 min,  0.002 sec
     gradient                   ...        0 min,  0.001 sec
 * total energy  :   -21.6415829 Eh     change       -0.4581434E-02 Eh
   gradient norm :     0.0318799 Eh/α   predicted    -0.3474344E-02 ( -24.16%)
   displ. norm   :     0.2350485 α      lambda       -0.2917724E-02
   maximum displ.:     0.1074556 α      in ANC's #6, #2, #5, ...

........................................................................
.............................. CYCLE    3 ..............................
........................................................................
   1    -21.8243638 -0.218244E+02  0.351E-01    3.75       0.0  T
   2    -21.8244348 -0.710498E-04  0.210E-01    3.74       1.0  T
   3    -21.8244386 -0.381341E-05  0.540E-02    3.72       1.0  T
   4    -21.8244459 -0.729332E-05  0.176E-02    3.73       1.6  T
   5    -21.8244471 -0.115281E-05  0.692E-03    3.73       4.2  T
   6    -21.8244472 -0.968707E-07  0.349E-03    3.73       8.3  T
   7    -21.8244472 -0.778551E-08  0.643E-04    3.73      44.9  T
     SCC iter.                  ...        0 min,  0.088 sec
     gradient                   ...        0 min,  0.002 sec
 * total energy  :   -21.6426972 Eh     change       -0.1114306E-02 Eh
   gradient norm :     0.0194990 Eh/α   predicted    -0.1539459E-02 (  38.15%)
   displ. norm   :     0.1828049 α      lambda       -0.1651631E-02
   maximum displ.:     0.1018412 α      in ANC's #6, #8, #5, ...

........................................................................
.............................. CYCLE    4 ..............................
........................................................................
   1    -21.8240630 -0.218241E+02  0.319E-01    3.71       0.0  T
   2    -21.8240750 -0.119889E-04  0.198E-01    3.71       1.0  T
   3    -21.8240816 -0.660751E-05  0.165E-02    3.71       1.8  T
   4    -21.8240825 -0.818733E-06  0.925E-03    3.71       3.1  T
   5    -21.8240826 -0.908382E-07  0.348E-03    3.71       8.3  T
   6    -21.8240826 -0.183226E-07  0.130E-03    3.71      22.1  T
   7    -21.8240826 -0.775201E-08  0.386E-04    3.71      74.8  T
     SCC iter.                  ...        0 min,  0.003 sec
     gradient                   ...        0 min,  0.001 sec
 * total energy  :   -21.6435390 Eh     change       -0.8417987E-03 Eh
   gradient norm :     0.0170723 Eh/α   predicted    -0.8534104E-03 (   1.38%)
   displ. norm   :     0.1296946 α      lambda       -0.5708076E-03
   maximum displ.:     0.0690957 α      in ANC's #5, #3, #4, ...

........................................................................
.............................. CYCLE    5 ..............................
........................................................................
   1    -21.8218791 -0.218219E+02  0.194E-01    3.68       0.0  T
   2    -21.8218846 -0.545871E-05  0.120E-01    3.68       1.0  T
   3    -21.8218867 -0.215003E-05  0.106E-02    3.69       2.7  T
   4    -21.8218869 -0.157508E-06  0.448E-03    3.69       6.4  T
   5    -21.8218869 -0.608494E-07  0.224E-03    3.68      12.9  T
   6    -21.8218869 -0.491686E-08  0.652E-04    3.69      44.2  T
     SCC iter.                  ...        0 min,  0.003 sec
     gradient                   ...        0 min,  0.086 sec
 * total energy  :   -21.6440126 Eh     change       -0.4736291E-03 Eh
   gradient norm :     0.0125134 Eh/α   predicted    -0.2902036E-03 ( -38.73%)
   displ. norm   :     0.3728847 α      lambda       -0.1203130E-02
   maximum displ.:     0.2083013 α      in ANC's #5, #3, #4, ...

........................................................................
.............................. CYCLE    6 ..............................
........................................................................
   1    -21.8164249 -0.218164E+02  0.494E-01    3.59       0.0  T
   2    -21.8164528 -0.279841E-04  0.306E-01    3.60       1.0  T
   3    -21.8164670 -0.141597E-04  0.235E-02    3.61       1.2  T
   4    -21.8164678 -0.828550E-06  0.112E-02    3.60       2.6  T
   5    -21.8164680 -0.179774E-06  0.476E-03    3.60       6.1  T
   6    -21.8164680 -0.234269E-07  0.115E-03    3.60      25.1  T
   7    -21.8164680 -0.284054E-08  0.596E-04    3.60      48.4  T
     SCC iter.                  ...        0 min,  0.002 sec
     gradient                   ...        0 min,  0.002 sec
 * total energy  :   -21.6446803 Eh     change       -0.6676369E-03 Eh
   gradient norm :     0.0253573 Eh/α   predicted    -0.6852014E-03 (   2.63%)
   displ. norm   :     0.1153985 α      lambda       -0.7094274E-03
   maximum displ.:     0.0673389 α      in ANC's #3, #2, #5, ...

........................................................................
.............................. CYCLE    7 ..............................
........................................................................
   1    -21.8207677 -0.218208E+02  0.107E-01    3.62       0.0  T
   2    -21.8207764 -0.862163E-05  0.634E-02    3.62       1.0  T
   3    -21.8207775 -0.113837E-05  0.182E-02    3.62       1.6  T
   4    -21.8207785 -0.973409E-06  0.805E-03    3.61       3.6  T
   5    -21.8207787 -0.206009E-06  0.267E-03    3.62      10.8  T
   6    -21.8207787 -0.522162E-08  0.105E-03    3.62      27.5  T
     SCC iter.                  ...        0 min,  0.002 sec
     gradient                   ...        0 min,  0.001 sec
 * total energy  :   -21.6450639 Eh     change       -0.3836678E-03 Eh
   gradient norm :     0.0181694 Eh/α   predicted    -0.3594393E-03 (  -6.31%)
   displ. norm   :     0.2607044 α      lambda       -0.1058630E-02
   maximum displ.:     0.1679244 α      in ANC's #5, #6, #2, ...

........................................................................
.............................. CYCLE    8 ..............................
........................................................................
   1    -21.8228922 -0.218229E+02  0.355E-01    3.64       0.0  T
   2    -21.8229100 -0.177347E-04  0.218E-01    3.62       1.0  T
   3    -21.8229168 -0.686036E-05  0.241E-02    3.62       1.2  T
   4    -21.8229192 -0.237158E-05  0.124E-02    3.62       2.3  T
   5    -21.8229195 -0.270992E-06  0.499E-03    3.62       5.8  T
   6    -21.8229195 -0.194915E-07  0.119E-03    3.62      24.2  T
   7    -21.8229195 -0.329607E-08  0.446E-04    3.62      64.7  T
     SCC iter.                  ...        0 min,  0.003 sec
     gradient                   ...        0 min,  0.002 sec
 * total energy  :   -21.6455781 Eh     change       -0.5141893E-03 Eh
   gradient norm :     0.0193834 Eh/α   predicted    -0.5652921E-03 (   9.94%)
   displ. norm   :     0.2833272 α      lambda       -0.9346483E-03
   maximum displ.:     0.1751429 α      in ANC's #3, #6, #5, ...

........................................................................
.............................. CYCLE    9 ..............................
........................................................................
   1    -21.8198196 -0.218198E+02  0.372E-01    3.50       0.0  T
   2    -21.8198442 -0.246401E-04  0.232E-01    3.51       1.0  T
   3    -21.8198550 -0.107276E-04  0.247E-02    3.51       1.2  T
   4    -21.8198568 -0.179339E-05  0.118E-02    3.51       2.5  T
   5    -21.8198571 -0.303488E-06  0.574E-03    3.51       5.0  T
   6    -21.8198571 -0.329930E-07  0.241E-03    3.51      12.0  T
   7    -21.8198571 -0.205549E-07  0.509E-04    3.51      56.7  T
     SCC iter.                  ...        0 min,  0.002 sec
     gradient                   ...        0 min,  0.002 sec
 * total energy  :   -21.6460981 Eh     change       -0.5199325E-03 Eh
   gradient norm :     0.0248503 Eh/α   predicted    -0.5048379E-03 (  -2.90%)
   displ. norm   :     0.1330735 α      lambda       -0.1127812E-02
   maximum displ.:     0.0683285 α      in ANC's #4, #20, #1, ...

........................................................................
.............................. CYCLE   10 ..............................
........................................................................
   1    -21.8298776 -0.218299E+02  0.201E-01    3.62       0.0  T
   2    -21.8299136 -0.360061E-04  0.119E-01    3.59       1.0  T
   3    -21.8299181 -0.452962E-05  0.340E-02    3.58       1.0  T
   4    -21.8299197 -0.157578E-05  0.101E-02    3.58       2.9  T
   5    -21.8299199 -0.166012E-06  0.455E-03    3.58       6.3  T
   6    -21.8299199 -0.150417E-07  0.218E-03    3.58      13.2  T
     SCC iter.                  ...        0 min,  0.087 sec
     gradient                   ...        0 min,  0.002 sec
 * total energy  :   -21.6459209 Eh     change        0.1771486E-03 Eh
   gradient norm :     0.0278657 Eh/α   predicted    -0.5738912E-03 (-423.96%)
   displ. norm   :     0.2275533 α      lambda       -0.1488806E-02
   maximum displ.:     0.1470587 α      in ANC's #2, #3, #5, ...

........................................................................
.............................. CYCLE   11 ..............................
........................................................................
   1    -21.8253673 -0.218254E+02  0.226E-01    3.54       0.0  T
   2    -21.8253798 -0.125324E-04  0.139E-01    3.54       1.0  T
   3    -21.8253844 -0.463557E-05  0.174E-02    3.53       1.7  T
   4    -21.8253852 -0.721447E-06  0.842E-03    3.54       3.4  T
   5    -21.8253852 -0.804381E-07  0.350E-03    3.54       8.2  T
   6    -21.8253852 -0.117580E-07  0.839E-04    3.54      34.4  T
     SCC iter.                  ...        0 min,  0.003 sec
     gradient                   ...        0 min,  0.001 sec
 * total energy  :   -21.6467500 Eh     change       -0.8291113E-03 Eh
   gradient norm :     0.0130714 Eh/α   predicted    -0.7829524E-03 (  -5.57%)
   displ. norm   :     0.1710868 α      lambda       -0.3964299E-03
   maximum displ.:     0.0930976 α      in ANC's #5, #6, #3, ...

........................................................................
.............................. CYCLE   12 ..............................
........................................................................
   1    -21.8222111 -0.218222E+02  0.228E-01    3.49       0.0  T
   2    -21.8222196 -0.848065E-05  0.142E-01    3.50       1.0  T
   3    -21.8222239 -0.433968E-05  0.136E-02    3.50       2.1  T
   4    -21.8222244 -0.452749E-06  0.779E-03    3.50       3.7  T
   5    -21.8222245 -0.124366E-06  0.347E-03    3.50       8.3  T
   6    -21.8222245 -0.178160E-07  0.992E-04    3.50      29.1  T
   7    -21.8222245 -0.417482E-08  0.304E-04    3.50      95.0  T
     SCC iter.                  ...        0 min,  0.003 sec
     gradient                   ...        0 min,  0.087 sec
 * total energy  :   -21.6469099 Eh     change       -0.1598602E-03 Eh
   gradient norm :     0.0191431 Eh/α   predicted    -0.2040173E-03 (  27.62%)
   displ. norm   :     0.0868740 α      lambda       -0.4228393E-03
   maximum displ.:     0.0487617 α      in ANC's #3, #7, #2, ...

........................................................................
.............................. CYCLE   13 ..............................
........................................................................
   1    -21.8255088 -0.218255E+02  0.108E-01    3.50       0.0  T
   2    -21.8255136 -0.487052E-05  0.662E-02    3.50       1.0  T
   3    -21.8255151 -0.142012E-05  0.132E-02    3.50       2.2  T
   4    -21.8255155 -0.487864E-06  0.595E-03    3.49       4.9  T
   5    -21.8255156 -0.940510E-07  0.230E-03    3.50      12.6  T
   6    -21.8255157 -0.967616E-08  0.106E-03    3.50      27.4  T
     SCC iter.                  ...        0 min,  0.002 sec
     gradient                   ...        0 min,  0.001 sec
 * total energy  :   -21.6471562 Eh     change       -0.2463222E-03 Eh
   gradient norm :     0.0187984 Eh/α   predicted    -0.2130136E-03 ( -13.52%)
   displ. norm   :     0.3056931 α      lambda       -0.7825355E-03
   maximum displ.:     0.1775406 α      in ANC's #3, #2, #4, ...

........................................................................
.............................. CYCLE   14 ..............................
........................................................................
   1    -21.8248291 -0.218248E+02  0.332E-01    3.53       0.0  T
   2    -21.8248566 -0.275338E-04  0.206E-01    3.51       1.0  T
   3    -21.8248656 -0.901365E-05  0.254E-02    3.51       1.1  T
   4    -21.8248673 -0.163123E-05  0.110E-02    3.51       2.6  T
   5    -21.8248674 -0.153584E-06  0.482E-03    3.51       6.0  T
   6    -21.8248674 -0.202298E-07  0.129E-03    3.51      22.4  T
   7    -21.8248675 -0.508651E-08  0.404E-04    3.51      71.4  T
     SCC iter.                  ...        0 min,  0.003 sec
     gradient                   ...        0 min,  0.001 sec
 * total energy  :   -21.6474457 Eh     change       -0.2895001E-03 Eh
   gradient norm :     0.0160536 Eh/α   predicted    -0.4278320E-03 (  47.78%)
   displ. norm   :     0.1091566 α      lambda       -0.6422197E-03
   maximum displ.:     0.0516930 α      in ANC's #1, #20, #6, ...

........................................................................
.............................. CYCLE   15 ..............................
........................................................................
   1    -21.8280337 -0.218280E+02  0.144E-01    3.52       0.0  T
   2    -21.8280409 -0.723978E-05  0.898E-02    3.52       1.0  T
   3    -21.8280415 -0.539699E-06  0.194E-02    3.53       1.5  T
   4    -21.8280433 -0.184169E-05  0.568E-03    3.52       5.1  T
   5    -21.8280434 -0.531663E-07  0.332E-03    3.52       8.7  T
   6    -21.8280434 -0.190271E-07  0.108E-03    3.52      26.8  T
   7    -21.8280434 -0.150440E-08  0.251E-04    3.52     115.0  T
     SCC iter.                  ...        0 min,  0.087 sec
     gradient                   ...        0 min,  0.001 sec
 * total energy  :   -21.6478271 Eh     change       -0.3814003E-03 Eh
   gradient norm :     0.0083064 Eh/α   predicted    -0.3249358E-03 ( -14.80%)
   displ. norm   :     0.5497990 α      lambda       -0.1145409E-02
   maximum displ.:     0.2852542 α      in ANC's #3, #6, #1, ...

........................................................................
.............................. CYCLE   16 ..............................
........................................................................
   1    -21.8127007 -0.218127E+02  0.706E-01    3.07       0.0  T
   2    -21.8128748 -0.174168E-03  0.443E-01    3.16       1.0  T
   3    -21.8129186 -0.437806E-04  0.642E-02    3.19       1.0  T
   4    -21.8129325 -0.138957E-04  0.270E-02    3.19       1.1  T
   5    -21.8129346 -0.212735E-05  0.157E-02    3.18       1.8  T
   6    -21.8129350 -0.391943E-06  0.770E-03    3.18       3.8  T
   7    -21.8129352 -0.135175E-06  0.101E-03    3.18      28.6  T
   8    -21.8129352 -0.285097E-08  0.515E-04    3.18      56.1  T
     SCC iter.                  ...        0 min,  0.003 sec
     gradient                   ...        0 min,  0.001 sec
 * total energy  :   -21.6458778 Eh     change        0.1949329E-02 Eh
   gradient norm :     0.0747175 Eh/α   predicted    -0.7458107E-03 (-138.26%)
   displ. norm   :     0.2743955 α      lambda       -0.5479715E-02
   maximum displ.:     0.1352451 α      in ANC's #3, #6, #1, ...

........................................................................
.............................. CYCLE   17 ..............................
........................................................................
   1    -21.8282466 -0.218282E+02  0.392E-01    3.58       0.0  T
   2    -21.8283546 -0.108011E-03  0.240E-01    3.50       1.0  T
   3    -21.8283645 -0.991541E-05  0.613E-02    3.49       1.0  T
   4    -21.8283745 -0.100281E-04  0.192E-02    3.48       1.5  T
   5    -21.8283759 -0.134934E-05  0.909E-03    3.49       3.2  T
   6    -21.8283760 -0.146293E-06  0.488E-03    3.49       5.9  T
   7    -21.8283760 -0.307281E-07  0.692E-04    3.49      41.7  T
     SCC iter.                  ...        0 min,  0.004 sec
     gradient                   ...        0 min,  0.087 sec
 * total energy  :   -21.6482840 Eh     change       -0.2406231E-02 Eh
   gradient norm :     0.0076735 Eh/α   predicted    -0.2946148E-02 (  22.44%)
   displ. norm   :     0.0883043 α      lambda       -0.2121909E-03
   maximum displ.:     0.0551666 α      in ANC's #3, #19, #20, ...

........................................................................
.............................. CYCLE   18 ..............................
........................................................................
   1    -21.8285698 -0.218286E+02  0.114E-01    3.46       0.0  T
   2    -21.8285739 -0.408144E-05  0.710E-02    3.46       1.0  T
   3    -21.8285747 -0.768138E-06  0.125E-02    3.47       2.3  T
   4    -21.8285754 -0.711172E-06  0.512E-03    3.46       5.6  T
   5    -21.8285755 -0.851679E-07  0.226E-03    3.46      12.7  T
   6    -21.8285755 -0.792040E-08  0.107E-03    3.46      26.9  T
     SCC iter.                  ...        0 min,  0.003 sec
     gradient                   ...        0 min,  0.001 sec
 * total energy  :   -21.6484567 Eh     change       -0.1727090E-03 Eh
   gradient norm :     0.0084152 Eh/α   predicted    -0.1069237E-03 ( -38.09%)
   displ. norm   :     0.4963273 α      lambda       -0.8565853E-03
   maximum displ.:     0.2743387 α      in ANC's #3, #19, #20, ...

........................................................................
.............................. CYCLE   19 ..............................
........................................................................
   1    -21.8214890 -0.218215E+02  0.627E-01    3.28       0.0  T
   2    -21.8215525 -0.635675E-04  0.391E-01    3.31       1.0  T
   3    -21.8215847 -0.321376E-04  0.352E-02    3.33       1.0  T
   4    -21.8215882 -0.352887E-05  0.202E-02    3.32       1.4  T
   5    -21.8215886 -0.416637E-06  0.948E-03    3.32       3.0  T
   6    -21.8215888 -0.220775E-06  0.375E-03    3.32       7.7  T
   7    -21.8215889 -0.457292E-07  0.667E-04    3.32      43.3  T
   8    -21.8215889 -0.695941E-09  0.331E-04    3.32      87.2  T
     SCC iter.                  ...        0 min,  0.091 sec
     gradient                   ...        0 min,  0.002 sec
 * total energy  :   -21.6485066 Eh     change       -0.4987871E-04 Eh
   gradient norm :     0.0393446 Eh/α   predicted    -0.5337807E-03 ( 970.16%)
   displ. norm   :     0.2054574 α      lambda       -0.1281885E-02
   maximum displ.:     0.1262347 α      in ANC's #3, #20, #2, ...

........................................................................
.............................. CYCLE   20 ..............................
........................................................................
   1    -21.8289869 -0.218290E+02  0.254E-01    3.47       0.0  T
   2    -21.8290039 -0.169500E-04  0.158E-01    3.44       1.0  T
   3    -21.8290077 -0.385496E-05  0.222E-02    3.43       1.3  T
   4    -21.8290099 -0.216490E-05  0.848E-03    3.43       3.4  T
   5    -21.8290100 -0.123597E-06  0.482E-03    3.44       6.0  T
   6    -21.8290101 -0.374784E-07  0.205E-03    3.44      14.1  T
     SCC iter.                  ...        0 min,  0.002 sec
     gradient                   ...        0 min,  0.001 sec
 * total energy  :   -21.6490042 Eh     change       -0.4975882E-03 Eh
   gradient norm :     0.0112284 Eh/α   predicted    -0.6679983E-03 (  34.25%)
   displ. norm   :     0.1472171 α      lambda       -0.2841229E-03
   maximum displ.:     0.0868671 α      in ANC's #1, #3, #19, ...
 * RMSD in coord.:     0.8550326 α      energy gain  -0.1200269E-01 Eh

generating ANC from model Hessian ...
Using Lindh-Hessian (1995)
 Shifting diagonal of input Hessian by   4.337360117673179E-003
 Lowest  eigenvalues of input Hessian
   -0.000000   -0.000000   -0.000000    0.000000    0.000000    0.000000
    0.010000    0.013148    0.014548    0.028769    0.031905    0.046977
    0.052738    0.055372    0.072649    0.080863    0.086894    0.094392
 Highest eigenvalues
    1.208197    1.275356    1.354930    1.520046    1.621674    2.184611
 

........................................................................
.............................. CYCLE   21 ..............................
........................................................................
   1    -21.8287340 -0.218287E+02  0.177E-01    3.42       0.0  T
   2    -21.8287377 -0.374787E-05  0.110E-01    3.42       1.0  T
   3    -21.8287397 -0.194335E-05  0.121E-02    3.43       2.4  T
   4    -21.8287405 -0.780175E-06  0.625E-03    3.42       4.6  T
   5    -21.8287405 -0.411947E-07  0.170E-03    3.42      17.0  T
   6    -21.8287405 -0.867466E-08  0.495E-04    3.42      58.3  T
   7    -21.8287405 -0.456971E-09  0.130E-04    3.42     221.3  T
     SCC iter.                  ...        0 min,  0.091 sec
     gradient                   ...        0 min,  0.002 sec
 * total energy  :   -21.6492706 Eh     change       -0.2663930E-03 Eh
   gradient norm :     0.0099648 Eh/α   predicted     0.0000000E+00 (-100.00%)
   displ. norm   :     0.1654506 α      lambda       -0.4868437E-03
   maximum displ.:     0.1506353 α      in ANC's #1, #6, #3, ...

........................................................................
.............................. CYCLE   22 ..............................
........................................................................
   1    -21.8283170 -0.218283E+02  0.230E-01    3.44       0.0  T
   2    -21.8283235 -0.650856E-05  0.143E-01    3.43       1.0  T
   3    -21.8283241 -0.625544E-06  0.227E-02    3.44       1.3  T
   4    -21.8283280 -0.393661E-05  0.782E-03    3.43       3.7  T
   5    -21.8283281 -0.531829E-07  0.117E-03    3.43      24.7  T
   6    -21.8283281 -0.318596E-08  0.442E-04    3.43      65.3  T
     SCC iter.                  ...        0 min,  0.002 sec
     gradient                   ...        0 min,  0.002 sec
 * total energy  :   -21.6495458 Eh     change       -0.2752346E-03 Eh
   gradient norm :     0.0072900 Eh/α   predicted    -0.2500882E-03 (  -9.14%)
   displ. norm   :     0.2465288 α      lambda       -0.5635965E-03
   maximum displ.:     0.1778304 α      in ANC's #1, #3, #2, ...

........................................................................
.............................. CYCLE   23 ..............................
........................................................................
   1    -21.8267007 -0.218267E+02  0.279E-01    3.44       0.0  T
   2    -21.8267090 -0.827996E-05  0.172E-01    3.43       1.0  T
   3    -21.8267119 -0.289558E-05  0.210E-02    3.44       1.4  T
   4    -21.8267148 -0.289702E-05  0.933E-03    3.43       3.1  T
   5    -21.8267148 -0.782741E-07  0.214E-03    3.44      13.5  T
   6    -21.8267149 -0.114843E-07  0.772E-04    3.44      37.4  T
     SCC iter.                  ...        0 min,  0.002 sec
     gradient                   ...        0 min,  0.002 sec
 * total energy  :   -21.6499321 Eh     change       -0.3862732E-03 Eh
   gradient norm :     0.0065629 Eh/α   predicted    -0.2989258E-03 ( -22.61%)
   displ. norm   :     0.2068918 α      lambda       -0.2480200E-03
   maximum displ.:     0.1591912 α      in ANC's #1, #3, #2, ...

........................................................................
.............................. CYCLE   24 ..............................
........................................................................
   1    -21.8258156 -0.218258E+02  0.231E-01    3.40       0.0  T
   2    -21.8258210 -0.544139E-05  0.143E-01    3.40       1.0  T
   3    -21.8258246 -0.360957E-05  0.122E-02    3.40       2.4  T
   4    -21.8258250 -0.435339E-06  0.753E-03    3.40       3.8  T
   5    -21.8258251 -0.750654E-07  0.176E-03    3.40      16.4  T
   6    -21.8258251 -0.115542E-07  0.588E-04    3.40      49.1  T
     SCC iter.                  ...        0 min,  0.002 sec
     gradient                   ...        0 min,  0.002 sec
 * total energy  :   -21.6500849 Eh     change       -0.1527655E-03 Eh
   gradient norm :     0.0090925 Eh/α   predicted    -0.1293200E-03 ( -15.35%)
   displ. norm   :     0.1050568 α      lambda       -0.1700548E-03
   maximum displ.:     0.0850200 α      in ANC's #1, #3, #4, ...

........................................................................
.............................. CYCLE   25 ..............................
........................................................................
   1    -21.8281007 -0.218281E+02  0.102E-01    3.42       0.0  T
   2    -21.8281029 -0.215623E-05  0.623E-02    3.41       1.0  T
   3    -21.8281032 -0.299101E-06  0.934E-03    3.41       3.1  T
   4    -21.8281036 -0.454002E-06  0.352E-03    3.41       8.2  T
   5    -21.8281037 -0.209118E-07  0.179E-03    3.41      16.2  T
   6    -21.8281037 -0.562569E-08  0.752E-04    3.41      38.4  T
     SCC iter.                  ...        0 min,  0.091 sec
     gradient                   ...        0 min,  0.002 sec
 * total energy  :   -21.6501939 Eh     change       -0.1090143E-03 Eh
   gradient norm :     0.0034795 Eh/α   predicted    -0.8596627E-04 ( -21.14%)
   displ. norm   :     0.1050750 α      lambda       -0.8171610E-04
   maximum displ.:     0.0874878 α      in ANC's #1, #3, #5, ...

........................................................................
.............................. CYCLE   26 ..............................
........................................................................
   1    -21.8284974 -0.218285E+02  0.123E-01    3.39       0.0  T
   2    -21.8284990 -0.157945E-05  0.759E-02    3.39       1.0  T
   3    -21.8285000 -0.103641E-05  0.615E-03    3.39       4.7  T
   4    -21.8285001 -0.625978E-07  0.369E-03    3.39       7.8  T
   5    -21.8285001 -0.236388E-07  0.118E-03    3.39      24.4  T
   6    -21.8285001 -0.361356E-08  0.416E-04    3.39      69.4  T
   7    -21.8285001 -0.377792E-09  0.883E-05    3.39     327.1  T
     SCC iter.                  ...        0 min,  0.002 sec
     gradient                   ...        0 min,  0.001 sec
 * total energy  :   -21.6502463 Eh     change       -0.5238524E-04 Eh
   gradient norm :     0.0042865 Eh/α   predicted    -0.4130876E-04 ( -21.14%)
   displ. norm   :     0.0605008 α      lambda       -0.4646087E-04
   maximum displ.:     0.0410382 α      in ANC's #1, #5, #2, ...

........................................................................
.............................. CYCLE   27 ..............................
........................................................................
   1    -21.8292037 -0.218292E+02  0.806E-02    3.40       0.0  T
   2    -21.8292045 -0.783912E-06  0.497E-02    3.40       1.0  T
   3    -21.8292047 -0.250484E-06  0.472E-03    3.40       6.1  T
   4    -21.8292048 -0.109960E-06  0.207E-03    3.40      13.9  T
   5    -21.8292048 -0.302835E-08  0.945E-04    3.40      30.5  T
     SCC iter.                  ...        0 min,  0.002 sec
     gradient                   ...        0 min,  0.001 sec
 * total energy  :   -21.6502781 Eh     change       -0.3182013E-04 Eh
   gradient norm :     0.0032610 Eh/α   predicted    -0.2331510E-04 ( -26.73%)
   displ. norm   :     0.1094152 α      lambda       -0.4588858E-04
   maximum displ.:     0.0767710 α      in ANC's #1, #3, #5, ...

........................................................................
.............................. CYCLE   28 ..............................
........................................................................
   1    -21.8284694 -0.218285E+02  0.141E-01    3.38       0.0  T
   2    -21.8284712 -0.186352E-05  0.873E-02    3.38       1.0  T
   3    -21.8284725 -0.127301E-05  0.605E-03    3.38       4.8  T
   4    -21.8284726 -0.488707E-07  0.362E-03    3.38       8.0  T
   5    -21.8284726 -0.144811E-07  0.104E-03    3.38      27.7  T
   6    -21.8284726 -0.439874E-08  0.371E-04    3.38      77.8  T
   7    -21.8284726 -0.230735E-09  0.131E-04    3.38     221.0  T
     SCC iter.                  ...        0 min,  0.003 sec
     gradient                   ...        0 min,  0.001 sec
 * total energy  :   -21.6503069 Eh     change       -0.2885569E-04 Eh
   gradient norm :     0.0026883 Eh/α   predicted    -0.2321916E-04 ( -19.53%)
   displ. norm   :     0.0376664 α      lambda       -0.2317722E-04
   maximum displ.:     0.0186788 α      in ANC's #4, #8, #5, ...

........................................................................
.............................. CYCLE   29 ..............................
........................................................................
   1    -21.8285454 -0.218285E+02  0.688E-02    3.38       0.0  T
   2    -21.8285461 -0.690874E-06  0.426E-02    3.38       1.0  T
   3    -21.8285462 -0.163676E-06  0.393E-03    3.38       7.3  T
   4    -21.8285463 -0.752688E-07  0.143E-03    3.38      20.2  T
   5    -21.8285463 -0.131450E-08  0.585E-04    3.38      49.3  T
   6    -21.8285463 -0.267569E-09  0.191E-04    3.38     151.1  T
     SCC iter.                  ...        0 min,  0.091 sec
     gradient                   ...        0 min,  0.002 sec
 * total energy  :   -21.6503189 Eh     change       -0.1201087E-04 Eh
   gradient norm :     0.0012069 Eh/α   predicted    -0.1160581E-04 (  -3.37%)
   displ. norm   :     0.0158361 α      lambda       -0.4980559E-05
   maximum displ.:     0.0089460 α      in ANC's #7, #3, #4, ...

........................................................................
.............................. CYCLE   30 ..............................
........................................................................
   1    -21.8282825 -0.218283E+02  0.209E-02    3.37       0.0  T
   2    -21.8282825 -0.468836E-07  0.128E-02    3.37       2.2  T
   3    -21.8282825 -0.178915E-07  0.125E-03    3.37      23.2  T
   4    -21.8282825 -0.636826E-08  0.641E-04    3.37      45.0  T
   5    -21.8282825 -0.805144E-09  0.257E-04    3.37     112.3  T
     SCC iter.                  ...        0 min,  0.002 sec
     gradient                   ...        0 min,  0.001 sec
 * total energy  :   -21.6503232 Eh     change       -0.4206376E-05 Eh
   gradient norm :     0.0007333 Eh/α   predicted    -0.2490565E-05 ( -40.79%)
   displ. norm   :     0.0201221 α      lambda       -0.1656995E-05
   maximum displ.:     0.0174968 α      in ANC's #1, #3, #8, ...

   *** GEOMETRY OPTIMIZATION CONVERGED AFTER 30 ITERATIONS ***

------------------------------------------------------------------------
 total energy gain   :        -0.0133216 Eh       -8.3595 kcal/mol
 total RMSD          :         1.0163996 a0        0.5379 Å
 total power (kW/mol):        -1.1658658 (step)  -25.0263 (real)
------------------------------------------------------------------------

 ANCopt (total)                0 d,  0 h,  0 min,  1.398 sec
 optimizer setup                ...        0 min,  0.000 sec (  0.029%)
 model hessian                  ...        0 min,  0.090 sec (  6.448%)
 ANC generation                 ...        0 min,  0.001 sec (  0.060%)
 coordinate transformation      ...        0 min,  0.001 sec (  0.095%)
 single point calculation       ...        0 min,  1.292 sec ( 92.411%)
 optimization log               ...        0 min,  0.003 sec (  0.196%)
 hessian update                 ...        0 min,  0.003 sec (  0.207%)
 rational function              ...        0 min,  0.002 sec (  0.164%)

================
 final structure:
================
12
 xtb: 6.2.3 (830e466)
C         1.31600725360003    1.94823014273899   -1.59797957300627
C         0.54138066540167    0.81682066066681   -0.88764551892025
C         1.13204035136614   -0.53319677029296   -1.14052239518577
O         1.36630012290980    1.76048826047567   -2.97867969433903
O         0.68636359982727    3.16583250485461   -1.35099276718016
O         1.94781754482598   -0.78475782269554   -1.98704902679094
H         0.52278877588796    3.57418147676212   -2.20994737441663
H         2.34163164835314    1.98605631077074   -1.17767701631174
H         1.78262414594494    0.90300831487035   -3.15293418603894
H         0.74093096072832   -1.32640561118316   -0.47588094074030
H        -0.48793274901569    0.80894439761144   -1.25907227317397
H         0.49904768017045    1.02038813542094    0.18259076610403
 
 Bond Distances (Angstroems)
 ---------------------------
C1-C2=1.5443         C1-O4=1.3943         C1-O5=1.3928         C1-H8=1.1090         C2-C1=1.5443         C2-C3=1.4951         
C2-H11=1.0943        C2-H12=1.0902        C3-C2=1.4951         C3-O6=1.2022         C3-H10=1.1063        O4-C1=1.3943         
O4-H9=0.9690         O5-C1=1.3928         O5-H7=0.9650         O6-C3=1.2022         H7-O5=0.9650         H8-C1=1.1090         
H9-O4=0.9690         H10-C3=1.1063        H11-C2=1.0943        H12-C2=1.0902        
 C  H  Rav=1.1000 sigma=0.0079  Rmin=1.0902  Rmax=1.1090     4
 C  C  Rav=1.5197 sigma=0.0246  Rmin=1.4951  Rmax=1.5443     2
 O  H  Rav=0.9670 sigma=0.0020  Rmin=0.9650  Rmax=0.9690     2
 O  C  Rav=1.3298 sigma=0.0902  Rmin=1.2022  Rmax=1.3943     3
 
 selected bond angles (degree)
 --------------------
O4-C1-C2=112.02                O5-C1-C2=109.40                O5-C1-O4=108.04                H8-C1-C2=108.33                
H8-C1-O4=110.27                H8-C1-O5=108.73                C3-C2-C1=112.68                H11-C2-C1=108.72               
H11-C2-C3=107.92               H12-C2-C1=109.53               H12-C2-C3=110.49               H12-C2-H11=107.34              
O6-C3-C2=125.18                H10-C3-C2=113.96               H10-C3-O6=120.86               H9-O4-C1=108.22                
H7-O5-C1=106.78                
 
 selected dihedral angles (degree)
 ---------------------------------
C3-C2-C1-O4= 58.42            C3-C2-C1-O5=178.19            C3-C2-C1-H8=296.57            H11-C2-C1-O4=298.84           
H11-C2-C1-O5= 58.61           H11-C2-C1-H8=176.98           H12-C2-C1-O4=181.84           H12-C2-C1-O5=301.60           
H12-C2-C1-H8= 59.98           O6-C3-C2-C1=346.42            O6-C3-C2-H11=106.47           O6-C3-C2-H12=223.54           
H10-C3-C2-C1=167.26           H10-C3-C2-H11=287.31          H10-C3-C2-H12= 44.39          H9-O4-C1-C2=302.06            
H9-O4-C1-O5=181.49            H9-O4-C1-H8= 62.79            H7-O5-C1-C2=233.39            H7-O5-C1-O4=355.58            
H7-O5-C1-H8=115.26            
           -------------------------------------------------
          |                Final Singlepoint                |
           -------------------------------------------------

          ...................................................
          :                      SETUP                      :
          :.................................................:
          :  # basis functions                  30          :
          :  # atomic orbitals                  30          :
          :  # shells                           18          :
          :  # electrons                        36          :
          :  max. iterations                   100          :
          :  Hamiltonian                  GFN2-xTB          :
          :  restarted?                      false          :
          :  GBSA solvation                  false          :
          :  PC potential                    false          :
          :  electronic temp.          300.0000000     K    :
          :  accuracy                    1.0000000          :
          :  -> integral cutoff          0.2500000E+02      :
          :  -> integral neglect         0.1000000E-07      :
          :  -> SCF convergence          0.1000000E-05 Eh   :
          :  -> wf. convergence          0.1000000E-03 e    :
          :  Broyden damping             0.4000000          :
          ...................................................

 iter      E             dE          RMSdq      gap      omega  full diag
   1    -21.8282825 -0.218283E+02  0.547E-05    3.37       0.0  T
   2    -21.8282825 -0.904876E-11  0.293E-05    3.37     986.3  T
   3    -21.8282825 -0.916600E-12  0.172E-05    3.37    1673.7  T

   *** convergence criteria satisfied after 3 iterations ***

         #    Occupation            Energy/Eh            Energy/eV
      -------------------------------------------------------------
         1        2.0000           -0.7430183             -20.2186
       ...           ...                  ...                  ...
        12        2.0000           -0.5254848             -14.2992
        13        2.0000           -0.5054122             -13.7530
        14        2.0000           -0.5039235             -13.7125
        15        2.0000           -0.4852898             -13.2054
        16        2.0000           -0.4604934             -12.5307
        17        2.0000           -0.4309444             -11.7266
        18        2.0000           -0.4098954             -11.1538 (HOMO)
        19                         -0.2859738              -7.7817 (LUMO)
        20                          0.0287082               0.7812
        21                          0.0660690               1.7978
        22                          0.0703502               1.9143
        23                          0.1146104               3.1187
       ...                                ...                  ...
        30                          0.5842275              15.8976
      -------------------------------------------------------------
                  HL-Gap            0.1239216 Eh            3.3721 eV
             Fermi-level           -0.3479346 Eh           -9.4678 eV

 SCC (total)                   0 d,  0 h,  0 min,  0.090 sec
 SCC setup                      ...        0 min,  0.000 sec (  0.125%)
 Dispersion                     ...        0 min,  0.000 sec (  0.056%)
 integral evaluation            ...        0 min,  0.001 sec (  0.631%)
 zeroth order Hamiltonian       ...        0 min,  0.000 sec (  0.066%)
 iterations                     ...        0 min,  0.002 sec (  2.394%)
 molecular gradient             ...        0 min,  0.087 sec ( 96.446%)
 printout                       ...        0 min,  0.000 sec (  0.087%)

         :::::::::::::::::::::::::::::::::::::::::::::::::::::
         ::                     SUMMARY                     ::
         :::::::::::::::::::::::::::::::::::::::::::::::::::::
         :: total energy             -21.650323138469 Eh    ::
         :: gradient norm              0.000733705255 Eh/a0 ::
         :: HOMO-LUMO gap              3.372077088397 eV    ::
         ::.................................................::
         :: SCC energy               -21.828282522301 Eh    ::
         :: -> isotropic ES            0.070252721199 Eh    ::
         :: -> anisotropic ES         -0.002371031737 Eh    ::
         :: -> anisotropic XC         -0.001295145330 Eh    ::
         :: -> dispersion             -0.006087808226 Eh    ::
         :: repulsion energy           0.177955062522 Eh    ::
         :: add. restraining           0.000000000000 Eh    ::
         :::::::::::::::::::::::::::::::::::::::::::::::::::::

           -------------------------------------------------
          |                Property Printout                |
           -------------------------------------------------

    * Orbital Energies and Occupations

         #    Occupation            Energy/Eh            Energy/eV
      -------------------------------------------------------------
         1        2.0000           -0.7430183             -20.2186
       ...           ...                  ...                  ...
         6        2.0000           -0.6194196             -16.8553
         7        2.0000           -0.5977907             -16.2667
         8        2.0000           -0.5892209             -16.0335
         9        2.0000           -0.5712526             -15.5446
        10        2.0000           -0.5630050             -15.3201
        11        2.0000           -0.5553280             -15.1112
        12        2.0000           -0.5254848             -14.2992
        13        2.0000           -0.5054122             -13.7530
        14        2.0000           -0.5039235             -13.7125
        15        2.0000           -0.4852898             -13.2054
        16        2.0000           -0.4604934             -12.5307
        17        2.0000           -0.4309444             -11.7266
        18        2.0000           -0.4098954             -11.1538 (HOMO)
        19                         -0.2859738              -7.7817 (LUMO)
        20                          0.0287082               0.7812
        21                          0.0660690               1.7978
        22                          0.0703502               1.9143
        23                          0.1146104               3.1187
        24                          0.1364017               3.7117
        25                          0.1424547               3.8764
        26                          0.1725651               4.6957
        27                          0.2025472               5.5116
        28                          0.2438798               6.6363
        29                          0.2640599               7.1854
        30                          0.5842275              15.8976
      -------------------------------------------------------------
                  HL-Gap            0.1239216 Eh            3.3721 eV
             Fermi-level           -0.3479346 Eh           -9.4678 eV

     #   Z        covCN         q      C6AA      α(0)
     1   6 C      3.600     0.259    17.107     5.983
     2   6 C      3.800    -0.112    22.641     6.775
     3   6 C      2.757     0.215    23.452     7.930
     4   8 O      1.656    -0.462    22.081     6.343
     5   8 O      1.657    -0.445    21.737     6.294
     6   8 O      0.856    -0.330    20.323     6.044
     7   1 H      0.805     0.324     0.652     1.268
     8   1 H      0.922     0.014     2.819     2.626
     9   1 H      0.804     0.323     0.656     1.272
    10   1 H      0.922     0.032     2.559     2.502
    11   1 H      0.924     0.098     1.803     2.100
    12   1 H      0.924     0.082     1.959     2.189

 Mol. C6AA /au·bohr⁶  :       1234.180463
 Mol. C8AA /au·bohr⁸  :      26326.228892
 Mol. α(0) /au        :         51.326297


Wiberg/Mayer (AO) data.
largest (>0.10) Wiberg bond orders for each atom
          total WBO             WBO to atom ...
     1  C   3.940        O    5 1.004    O    4 1.003    C    2 0.965    H    8 0.949
     2  C   3.994        C    3 1.027    C    1 0.965    H   12 0.951    H   11 0.927
     3  C   3.912        O    6 1.905    C    2 1.027    H   10 0.933
     4  O   1.960        C    1 1.003    H    9 0.860
     5  O   1.963        C    1 1.004    H    7 0.874
     6  O   2.100        C    3 1.905
     7  H   0.895        O    5 0.874
     8  H   1.000        C    1 0.949
     9  H   0.896        O    4 0.860
    10  H   0.999        C    3 0.933
    11  H   0.990        C    2 0.927
    12  H   0.993        C    2 0.951

molecular dipole:
                 x           y           z       tot (Debye)
 q only:       -0.488      -0.119       0.368
   full:       -0.510      -0.330       0.444       1.914
molecular quadrupole (traceless):
                xx          xy          yy          xz          yz          zz
 q only:        0.139       0.412      -0.272       3.346      -1.958       0.133
  q+dip:        1.846       1.119      -1.637       4.450      -2.589      -0.209
   full:        1.505       0.855      -1.673       4.850      -2.264       0.167

           -------------------------------------------------
          |                Geometry Summary                 |
           -------------------------------------------------

      molecular mass/u    :       90.0780670
   center of mass at/Å    :        1.1695690       1.1111500      -1.6960141
  moments of inertia/u·Å² :        0.6744655E+02   0.2013641E+03   0.2523547E+03
rotational constants/cm⁻¹ :        0.2499406E+00   0.8371717E-01   0.6680133E-01

 * 8 selected distances

     #   Z        #   Z                                     value/Å
     1   6 C      4   8 O                                 1.3943132 (max)
     1   6 C      5   8 O                                 1.3928421
     3   6 C      6   8 O                                 1.2022407
     5   8 O      7   1 H                                 0.9650433 (min)
     1   6 C      8   1 H                                 1.1090493
     4   8 O      9   1 H                                 0.9690006
     2   6 C     11   1 H                                 1.0943062
     2   6 C     12   1 H                                 1.0902465

 * 3 distinct bonds (by element types)

   Z      Z             #   av. dist./Å        max./Å        min./Å
   1 H    6 C           3     1.0978673     1.1090493     1.0902465
   1 H    8 O           2     0.9670220     0.9690006     0.9650433
   6 C    8 O           3     1.3297987     1.3943132     1.2022407


optimized geometry written to: xtbopt.xyz


           -------------------------------------------------
          | TOTAL ENERGY              -21.650323138469 Eh   |
          | GRADIENT NORM               0.000733705255 Eh/α |
          | HOMO-LUMO GAP               3.372077088397 eV   |
           -------------------------------------------------

------------------------------------------------------------------------
 * finished run on 2020/12/23 at 21:41:14.466     
------------------------------------------------------------------------
 total:
 * wall-time:     0 d,  0 h,  0 min,  1.722 sec
 *  cpu-time:     0 d,  0 h,  0 min,  7.254 sec
 * ratio c/w:     4.212 speedup
 SCF:
 * wall-time:     0 d,  0 h,  0 min,  0.008 sec
 *  cpu-time:     0 d,  0 h,  0 min,  0.217 sec
 * ratio c/w:    25.754 speedup
 ANC optimizer:
 * wall-time:     0 d,  0 h,  0 min,  1.491 sec
 *  cpu-time:     0 d,  0 h,  0 min,  5.767 sec
 * ratio c/w:     3.868 speedup

