      -----------------------------------------------------------      
     |                   =====================                   |     
     |                           x T B                           |     
     |                   =====================                   |     
     |                         S. Grimme                         |     
     |          Mulliken Center for Theoretical Chemistry        |     
     |                    University of Bonn                     |     
      -----------------------------------------------------------      

   * xtb version 6.2.3 (830e466) compiled by 'ehlert@majestix' on 2020-03-16

   xtb is free software: you can redistribute it and/or modify it under
   the terms of the GNU Lesser General Public License as published by
   the Free Software Foundation, either version 3 of the License, or
   (at your option) any later version.
   
   xtb is distributed in the hope that it will be useful,
   but WITHOUT ANY WARRANTY; without even the implied warranty of
   MERCHANTABILITY or FITNESS FOR A PARTICULAR PURPOSE.  See the
   GNU Lesser General Public License for more details.
   
   Cite this work as:
   * S. Grimme, C. Bannwarth, P. Shushkov, J. Chem. Theory Comput., 2017,
     13, 1989-2009. DOI: 10.1021/acs.jctc.7b00118
   * C. Bannwarth, S. Ehlert and S. Grimme., J. Chem. Theory Comput., 2019,
     15, 1652-1671. DOI: 10.1021/acs.jctc.8b01176
   * P. Pracht, E. Caldeweyher, S. Ehlert, S. Grimme, ChemRxiv, 2019, preprint.
     DOI: 10.26434/chemrxiv.8326202.v1
   
   for DFT-D4:
   * E. Caldeweyher, C. Bannwarth and S. Grimme, J. Chem. Phys., 2017,
     147, 034112. DOI: 10.1063/1.4993215
   * E. Caldeweyher, S. Ehlert, A. Hansen, H. Neugebauer, S. Spicher,
     C. Bannwarth and S. Grimme, J. Chem. Phys., 2019, 150, 154122.
     DOI: 10.1063/1.5090222
   
   for sTDA-xTB:
   * S. Grimme and C. Bannwarth, J. Chem. Phys., 2016, 145, 054103.
     DOI: 10.1063/1.4959605
   
   in the mass-spec context:
   * V. Asgeirsson, C. Bauer and S. Grimme, Chem. Sci., 2017, 8, 4879.
     DOI: 10.1039/c7sc00601b
   
   for metadynamics refer to:
   * S. Grimme, J. Chem. Theory Comput., 2019, 155, 2847-2862
     DOI: 10.1021/acs.jctc.9b00143
   
   with help from (in alphabetical order)
   C. Bannwarth, F. Bohle, G. Brandenburg, E. Caldeweyher, M. Checinski,
   S. Dohm, S. Ehlert, S. Ehrlich, F. März, H. Neugebauer, J. Pisarek,
   P. Pracht, P. Shushkov, and S. Spicher.
   
 * started run on 2020/12/23 at 21:43:02.405     

           -------------------------------------------------
          |                Calculation Setup                |
           -------------------------------------------------

          program call               : xtb -c 0 -u 0 -a 1.0 --iterations 100 --opt normal --namespace product_29 /scratch/bell/zhao922/YARP/paper-example/potential_product/test/reaction_channel/pp_0/pp_4_0.xyz
          hostname                   : bell-fe05.rcac.purdue.edu
          calculation namespace      : product_29
          coordinate file            : /scratch/bell/zhao922/YARP/paper-example/potential_product/test/reaction_channel/pp_0/pp_4_0.xyz
          omp threads                :                    32
          number of atoms            :                    12
          number of electrons        :                    36
          charge                     :                     0
          spin                       :                   0.0
          first test random number   :      0.53517010504820


molecular fragmentation (1/2 indicates fragments):
122122211222
# atoms in fragment 1/2:     4     8
 fragment masses (1/2) :       30.03       60.05
CMA distance (Bohr)    :   6.557
constraining FC (au)   :  0.0500
           ------------------------------------------------- 
          |                 G F N 2 - x T B                 |
          | Geometry, Frequencies, Noncovalent interactions |
          |            JCTC 2019 parametrisation            |
           ------------------------------------------------- 
             k(s)              :                1.8500
             k(p)              :                2.2300
             k(d)              :                2.2300
             k(f)              :                2.0000
             kEN (H0ij)        :               -2.0000
             D4 a1             :                0.5200
             D4 a2             :                5.0000
             D4 s6             :                1.0000
             D4 s8             :                2.7000
             D4 s9             :                5.0000
             alphaj            :                2.0000

  Z AO/shell   Hii/eV     exponent
  1     Wed Apr 25 08:07:45 CEST 2018   EN: 2.200 GM2: 0.406  GM3: 0.0800  RAES: 1.40
     1s    -10.707211    1.230000
  6     Wed Apr 25 08:07:45 CEST 2018   EN: 2.550 GM2: 0.538  GM3: 0.1500  RAES: 3.00
     2s    -13.970922    2.096432
     2p    -10.063292    1.800000
  8     Wed Apr 25 08:07:45 CEST 2018   EN: 3.440 GM2: 0.452  GM3:-0.0517  RAES: 1.80
     2s    -20.229985    2.439742
     2p    -15.503117    2.137023

           ------------------------------------------------- 
          |        Self-Consistent Charge Iterations        |
           ------------------------------------------------- 

          ...................................................
          :                      SETUP                      :
          :.................................................:
          :  # basis functions                  30          :
          :  # atomic orbitals                  30          :
          :  # shells                           18          :
          :  # electrons                        36          :
          :  max. iterations                   100          :
          :  Hamiltonian                  GFN2-xTB          :
          :  restarted?                      false          :
          :  GBSA solvation                  false          :
          :  PC potential                    false          :
          :  electronic temp.          300.0000000     K    :
          :  accuracy                    1.0000000          :
          :  -> integral cutoff          0.2500000E+02      :
          :  -> integral neglect         0.1000000E-07      :
          :  -> SCF convergence          0.1000000E-05 Eh   :
          :  -> wf. convergence          0.1000000E-03 e    :
          :  Broyden damping             0.4000000          :
          ...................................................

 iter      E             dE          RMSdq      gap      omega  full diag
   1    -21.6956921 -0.216957E+02  0.613E+00    4.11       0.0  T
   2    -21.7486655 -0.529735E-01  0.296E+00    3.20       1.0  T
   3    -21.7522111 -0.354552E-02  0.209E+00    3.46       1.0  T
   4    -21.7620131 -0.980204E-02  0.220E-01    3.16       1.0  T
   5    -21.7621178 -0.104671E-03  0.949E-02    3.23       1.0  T
   6    -21.7621451 -0.273380E-04  0.378E-02    3.24       1.0  T
   7    -21.7621450  0.110831E-06  0.124E-02    3.24       2.3  T
   8    -21.7621463 -0.130518E-05  0.364E-03    3.24       7.9  T
   9    -21.7621463 -0.371925E-07  0.213E-03    3.24      13.5  T
  10    -21.7621464 -0.325976E-07  0.420E-04    3.24      68.7  T
  11    -21.7621464 -0.267022E-10  0.150E-04    3.24     192.4  T

   *** convergence criteria satisfied after 11 iterations ***

         #    Occupation            Energy/Eh            Energy/eV
      -------------------------------------------------------------
         1        2.0000           -0.7342176             -19.9791
       ...           ...                  ...                  ...
        12        2.0000           -0.5429447             -14.7743
        13        2.0000           -0.5402462             -14.7008
        14        2.0000           -0.5250981             -14.2886
        15        2.0000           -0.4924005             -13.3989
        16        2.0000           -0.4420329             -12.0283
        17        2.0000           -0.4247306             -11.5575
        18        2.0000           -0.4179413             -11.3728 (HOMO)
        19                         -0.2988287              -8.1315 (LUMO)
        20                         -0.2848661              -7.7516
        21                          0.0077062               0.2097
        22                          0.0775933               2.1114
        23                          0.1021078               2.7785
       ...                                ...                  ...
        30                          0.5206116              14.1666
      -------------------------------------------------------------
                  HL-Gap            0.1191126 Eh            3.2412 eV
             Fermi-level           -0.3583850 Eh           -9.7522 eV

 SCC (total)                   0 d,  0 h,  0 min,  0.007 sec
 SCC setup                      ...        0 min,  0.000 sec (  1.962%)
 Dispersion                     ...        0 min,  0.000 sec (  0.891%)
 integral evaluation            ...        0 min,  0.001 sec (  9.957%)
 zeroth order Hamiltonian       ...        0 min,  0.000 sec (  0.997%)
 iterations                     ...        0 min,  0.004 sec ( 63.221%)
 molecular gradient             ...        0 min,  0.001 sec ( 18.604%)
 printout                       ...        0 min,  0.000 sec (  1.160%)

         :::::::::::::::::::::::::::::::::::::::::::::::::::::
         ::                     SUMMARY                     ::
         :::::::::::::::::::::::::::::::::::::::::::::::::::::
         :: total energy             -21.577911851881 Eh    ::
         :: gradient norm              0.092069523268 Eh/a0 ::
         :: HOMO-LUMO gap              3.241217907891 eV    ::
         ::.................................................::
         :: SCC energy               -21.762146378863 Eh    ::
         :: -> isotropic ES            0.062631871841 Eh    ::
         :: -> anisotropic ES          0.004394777984 Eh    ::
         :: -> anisotropic XC          0.003075396672 Eh    ::
         :: -> dispersion             -0.005645494675 Eh    ::
         :: repulsion energy           0.184219535120 Eh    ::
         :: add. restraining           0.000000000000 Eh    ::
         :::::::::::::::::::::::::::::::::::::::::::::::::::::

      ----------------------------------------------------------- 
     |                   =====================                   |
     |                        A N C O P T                        |
     |                   =====================                   |
     |               Approximate Normal Coordinate               |
     |                Rational Function Optimizer                |
      ----------------------------------------------------------- 

          ...................................................
          :                      SETUP                      :
          :.................................................:
          :   optimization level            normal          :
          :   max. optcycles                   200          :
          :   ANC micro-cycles                  20          :
          :   degrees of freedom                30          :
          :.................................................:
          :   RF solver                   davidson          :
          :   write xtbopt.log                true          :
          :   linear?                        false          :
          :   energy convergence         0.5000000E-05 Eh   :
          :   grad. convergence          0.1000000E-02 Eh/α :
          :   maximium RF displ.         1.0000000          :
          :   Hlow (freq-cutoff)         0.1000000E-01      :
          :   Hmax (freq-cutoff)         5.0000000          :
          :   S6 in model hess.         20.0000000          :
          ...................................................

generating ANC from model Hessian ...
Using Lindh-Hessian (1995)
 Shifting diagonal of input Hessian by   9.473183961526591E-003
 Lowest  eigenvalues of input Hessian
   -0.000000   -0.000000   -0.000000   -0.000000    0.000000    0.000000
    0.010000    0.010075    0.010111    0.010377    0.010517    0.010888
    0.011338    0.024006    0.034341    0.046373    0.054154    0.078647
 Highest eigenvalues
    1.189262    1.309447    1.332082    1.539197    2.106485    2.122942
 

........................................................................
.............................. CYCLE    1 ..............................
........................................................................
   1    -21.7621464 -0.217621E+02  0.474E-05    3.24       0.0  T
   2    -21.7621464 -0.109175E-10  0.281E-05    3.24    1026.8  T
   3    -21.7621464 -0.516209E-11  0.122E-05    3.24    2368.1  T
     SCC iter.                  ...        0 min,  0.001 sec
     gradient                   ...        0 min,  0.001 sec
 * total energy  :   -21.5779119 Eh     change       -0.3532019E-08 Eh
   gradient norm :     0.0920713 Eh/α   predicted     0.0000000E+00 (-100.00%)
   displ. norm   :     0.1770067 α      lambda       -0.6312776E-02
   maximum displ.:     0.0827497 α      in ANC's #5, #12, #13, ...

........................................................................
.............................. CYCLE    2 ..............................
........................................................................
   1    -21.7760542 -0.217761E+02  0.266E-01    3.40       0.0  T
   2    -21.7761422 -0.880224E-04  0.158E-01    3.38       1.0  T
   3    -21.7761513 -0.910563E-05  0.561E-02    3.36       1.0  T
   4    -21.7761546 -0.332907E-05  0.188E-02    3.36       1.5  T
   5    -21.7761556 -0.991219E-06  0.680E-03    3.36       4.2  T
   6    -21.7761558 -0.170238E-06  0.361E-03    3.37       8.0  T
   7    -21.7761558 -0.154213E-07  0.681E-04    3.37      42.4  T
     SCC iter.                  ...        0 min,  0.002 sec
     gradient                   ...        0 min,  0.091 sec
 * total energy  :   -21.5824010 Eh     change       -0.4489194E-02 Eh
   gradient norm :     0.0369858 Eh/α   predicted    -0.3255282E-02 ( -27.49%)
   displ. norm   :     0.4987936 α      lambda       -0.5733523E-02
   maximum displ.:     0.3704493 α      in ANC's #7, #2, #3, ...

........................................................................
.............................. CYCLE    3 ..............................
........................................................................
   1    -21.7614617 -0.217615E+02  0.668E-01    3.14       0.0  T
   2    -21.7617083 -0.246583E-03  0.407E-01    3.10       1.0  T
   3    -21.7617472 -0.388959E-04  0.866E-02    3.07       1.0  T
   4    -21.7617564 -0.921053E-05  0.234E-02    3.07       1.2  T
   5    -21.7617581 -0.166059E-05  0.114E-02    3.08       2.5  T
   6    -21.7617581 -0.590929E-07  0.536E-03    3.08       5.4  T
   7    -21.7617582 -0.107530E-06  0.938E-04    3.08      30.8  T
     SCC iter.                  ...        0 min,  0.002 sec
     gradient                   ...        0 min,  0.001 sec
 * total energy  :   -21.5672798 Eh     change        0.1512128E-01 Eh
   gradient norm :     0.0930469 Eh/α   predicted    -0.3580003E-02 (-123.68%)
   displ. norm   :     0.3730920 α      lambda       -0.3118892E-01
   maximum displ.:     0.2665897 α      in ANC's #7, #2, #3, ...

........................................................................
.............................. CYCLE    4 ..............................
........................................................................
   1    -21.7848837 -0.217849E+02  0.608E-01    3.45       0.0  T
   2    -21.7849365 -0.527985E-04  0.381E-01    3.47       1.0  T
   3    -21.7849701 -0.335725E-04  0.387E-02    3.49       1.0  T
   4    -21.7849745 -0.443494E-05  0.221E-02    3.49       1.3  T
   5    -21.7849755 -0.921477E-06  0.868E-03    3.49       3.3  T
   6    -21.7849756 -0.846884E-07  0.738E-04    3.49      39.1  T
   7    -21.7849756 -0.164303E-08  0.331E-04    3.49      87.3  T
     SCC iter.                  ...        0 min,  0.002 sec
     gradient                   ...        0 min,  0.091 sec
 * total energy  :   -21.5837525 Eh     change       -0.1647273E-01 Eh
   gradient norm :     0.0259080 Eh/α   predicted    -0.1776518E-01 (   7.85%)
   displ. norm   :     0.1681079 α      lambda       -0.1598725E-02
   maximum displ.:     0.0816058 α      in ANC's #5, #6, #4, ...

........................................................................
.............................. CYCLE    5 ..............................
........................................................................
   1    -21.7766216 -0.217766E+02  0.266E-01    3.35       0.0  T
   2    -21.7766859 -0.643157E-04  0.164E-01    3.37       1.0  T
   3    -21.7766923 -0.633963E-05  0.555E-02    3.40       1.0  T
   4    -21.7766993 -0.696553E-05  0.220E-02    3.39       1.3  T
   5    -21.7767009 -0.167345E-05  0.690E-03    3.39       4.2  T
   6    -21.7767010 -0.120672E-06  0.384E-03    3.39       7.5  T
   7    -21.7767011 -0.135074E-07  0.574E-04    3.39      50.3  T
     SCC iter.                  ...        0 min,  0.002 sec
     gradient                   ...        0 min,  0.001 sec
 * total energy  :   -21.5840393 Eh     change       -0.2868388E-03 Eh
   gradient norm :     0.0249017 Eh/α   predicted    -0.8219512E-03 ( 186.56%)
   displ. norm   :     0.1327092 α      lambda       -0.8237927E-03
   maximum displ.:     0.0739687 α      in ANC's #8, #5, #7, ...

........................................................................
.............................. CYCLE    6 ..............................
........................................................................
   1    -21.7790045 -0.217790E+02  0.118E-01    3.43       0.0  T
   2    -21.7790115 -0.702059E-05  0.725E-02    3.43       1.0  T
   3    -21.7790120 -0.503324E-06  0.169E-02    3.43       1.7  T
   4    -21.7790128 -0.716657E-06  0.609E-03    3.43       4.7  T
   5    -21.7790129 -0.149153E-06  0.215E-03    3.43      13.5  T
   6    -21.7790129 -0.129622E-07  0.113E-03    3.43      25.5  T
     SCC iter.                  ...        0 min,  0.002 sec
     gradient                   ...        0 min,  0.091 sec
 * total energy  :   -21.5845220 Eh     change       -0.4826829E-03 Eh
   gradient norm :     0.0123856 Eh/α   predicted    -0.4191492E-03 ( -13.16%)
   displ. norm   :     0.1832551 α      lambda       -0.4379397E-03
   maximum displ.:     0.1033348 α      in ANC's #5, #7, #4, ...

........................................................................
.............................. CYCLE    7 ..............................
........................................................................
   1    -21.7816215 -0.217816E+02  0.172E-01    3.54       0.0  T
   2    -21.7816279 -0.638184E-05  0.107E-01    3.52       1.0  T
   3    -21.7816288 -0.867022E-06  0.207E-02    3.52       1.4  T
   4    -21.7816313 -0.249361E-05  0.692E-03    3.52       4.2  T
   5    -21.7816313 -0.765332E-07  0.253E-03    3.52      11.4  T
   6    -21.7816313 -0.579602E-08  0.441E-04    3.52      65.4  T
     SCC iter.                  ...        0 min,  0.002 sec
     gradient                   ...        0 min,  0.001 sec
 * total energy  :   -21.5848085 Eh     change       -0.2864581E-03 Eh
   gradient norm :     0.0092554 Eh/α   predicted    -0.2263210E-03 ( -20.99%)
   displ. norm   :     0.4153413 α      lambda       -0.6460882E-03
   maximum displ.:     0.2425011 α      in ANC's #5, #4, #7, ...

........................................................................
.............................. CYCLE    8 ..............................
........................................................................
   1    -21.7784619 -0.217785E+02  0.409E-01    3.51       0.0  T
   2    -21.7784950 -0.330498E-04  0.257E-01    3.50       1.0  T
   3    -21.7784979 -0.288933E-05  0.523E-02    3.53       1.0  T
   4    -21.7785180 -0.200855E-04  0.160E-02    3.51       1.8  T
   5    -21.7785182 -0.282508E-06  0.422E-03    3.51       6.8  T
   6    -21.7785183 -0.293052E-07  0.148E-03    3.51      19.5  T
   7    -21.7785183 -0.542319E-08  0.476E-04    3.51      60.6  T
     SCC iter.                  ...        0 min,  0.002 sec
     gradient                   ...        0 min,  0.091 sec
 * total energy  :   -21.5852496 Eh     change       -0.4410858E-03 Eh
   gradient norm :     0.0125170 Eh/α   predicted    -0.3787789E-03 ( -14.13%)
   displ. norm   :     0.3213065 α      lambda       -0.6569197E-03
   maximum displ.:     0.1563263 α      in ANC's #7, #5, #3, ...

........................................................................
.............................. CYCLE    9 ..............................
........................................................................
   1    -21.7806108 -0.217806E+02  0.277E-01    3.54       0.0  T
   2    -21.7806368 -0.260340E-04  0.173E-01    3.52       1.0  T
   3    -21.7806283  0.852907E-05  0.601E-02    3.55       1.0  T
   4    -21.7806493 -0.210114E-04  0.114E-02    3.53       2.5  T
   5    -21.7806495 -0.199355E-06  0.466E-03    3.53       6.2  T
   6    -21.7806495 -0.219249E-07  0.207E-03    3.53      13.9  T
   7    -21.7806495 -0.911650E-08  0.489E-04    3.53      59.1  T
     SCC iter.                  ...        0 min,  0.002 sec
     gradient                   ...        0 min,  0.001 sec
 * total energy  :   -21.5856000 Eh     change       -0.3503962E-03 Eh
   gradient norm :     0.0092109 Eh/α   predicted    -0.3623700E-03 (   3.42%)
   displ. norm   :     0.0986860 α      lambda       -0.2654098E-03
   maximum displ.:     0.0582320 α      in ANC's #3, #9, #2, ...

........................................................................
.............................. CYCLE   10 ..............................
........................................................................
   1    -21.7836295 -0.217836E+02  0.124E-01    3.56       0.0  T
   2    -21.7836341 -0.462363E-05  0.761E-02    3.55       1.0  T
   3    -21.7836339  0.219441E-06  0.175E-02    3.56       1.7  T
   4    -21.7836355 -0.157970E-05  0.502E-03    3.55       5.7  T
   5    -21.7836356 -0.685943E-07  0.234E-03    3.56      12.3  T
   6    -21.7836356 -0.835957E-08  0.106E-03    3.55      27.3  T
     SCC iter.                  ...        0 min,  0.002 sec
     gradient                   ...        0 min,  0.091 sec
 * total energy  :   -21.5857699 Eh     change       -0.1699529E-03 Eh
   gradient norm :     0.0071054 Eh/α   predicted    -0.1339974E-03 ( -21.16%)
   displ. norm   :     0.3103544 α      lambda       -0.3366776E-03
   maximum displ.:     0.1699005 α      in ANC's #3, #4, #5, ...

........................................................................
.............................. CYCLE   11 ..............................
........................................................................
   1    -21.7799311 -0.217799E+02  0.360E-01    3.54       0.0  T
   2    -21.7799559 -0.247319E-04  0.223E-01    3.53       1.0  T
   3    -21.7799540  0.182403E-05  0.457E-02    3.55       1.0  T
   4    -21.7799682 -0.141736E-04  0.136E-02    3.54       2.1  T
   5    -21.7799685 -0.321666E-06  0.651E-03    3.54       4.4  T
   6    -21.7799686 -0.635552E-07  0.244E-03    3.54      11.8  T
   7    -21.7799686 -0.745482E-08  0.581E-04    3.54      49.7  T
     SCC iter.                  ...        0 min,  0.002 sec
     gradient                   ...        0 min,  0.001 sec
 * total energy  :   -21.5859113 Eh     change       -0.1414089E-03 Eh
   gradient norm :     0.0216004 Eh/α   predicted    -0.1845581E-03 (  30.51%)
   displ. norm   :     0.1641703 α      lambda       -0.4072866E-03
   maximum displ.:     0.1066107 α      in ANC's #2, #3, #9, ...

........................................................................
.............................. CYCLE   12 ..............................
........................................................................
   1    -21.7822153 -0.217822E+02  0.174E-01    3.56       0.0  T
   2    -21.7822197 -0.439493E-05  0.106E-01    3.56       1.0  T
   3    -21.7822187  0.953252E-06  0.181E-02    3.57       1.6  T
   4    -21.7822208 -0.212217E-05  0.452E-03    3.56       6.4  T
   5    -21.7822209 -0.428419E-07  0.194E-03    3.56      14.9  T
     SCC iter.                  ...        0 min,  0.002 sec
     gradient                   ...        0 min,  0.091 sec
 * total energy  :   -21.5861429 Eh     change       -0.2315506E-03 Eh
   gradient norm :     0.0097944 Eh/α   predicted    -0.2091333E-03 (  -9.68%)
   displ. norm   :     0.1998644 α      lambda       -0.2796272E-03
   maximum displ.:     0.1317839 α      in ANC's #4, #2, #3, ...

........................................................................
.............................. CYCLE   13 ..............................
........................................................................
   1    -21.7816039 -0.217816E+02  0.226E-01    3.60       0.0  T
   2    -21.7816101 -0.621848E-05  0.140E-01    3.59       1.0  T
   3    -21.7816115 -0.138634E-05  0.194E-02    3.60       1.5  T
   4    -21.7816140 -0.246548E-05  0.735E-03    3.59       3.9  T
   5    -21.7816140 -0.646613E-07  0.303E-03    3.60       9.5  T
   6    -21.7816140 -0.133841E-07  0.905E-04    3.60      31.9  T
   7    -21.7816141 -0.182660E-08  0.241E-04    3.60     119.6  T
     SCC iter.                  ...        0 min,  0.002 sec
     gradient                   ...        0 min,  0.001 sec
 * total energy  :   -21.5863516 Eh     change       -0.2086939E-03 Eh
   gradient norm :     0.0090147 Eh/α   predicted    -0.1454008E-03 ( -30.33%)
   displ. norm   :     0.4382752 α      lambda       -0.6322018E-03
   maximum displ.:     0.2513395 α      in ANC's #4, #2, #3, ...

........................................................................
.............................. CYCLE   14 ..............................
........................................................................
   1    -21.7787995 -0.217788E+02  0.516E-01    3.54       0.0  T
   2    -21.7788260 -0.265261E-04  0.319E-01    3.54       1.0  T
   3    -21.7788389 -0.128218E-04  0.333E-02    3.54       1.0  T
   4    -21.7788449 -0.608100E-05  0.165E-02    3.54       1.8  T
   5    -21.7788453 -0.346880E-06  0.493E-03    3.54       5.9  T
   6    -21.7788453 -0.373520E-07  0.156E-03    3.54      18.5  T
   7    -21.7788453 -0.959996E-08  0.550E-04    3.54      52.5  T
     SCC iter.                  ...        0 min,  0.002 sec
     gradient                   ...        0 min,  0.092 sec
 * total energy  :   -21.5864774 Eh     change       -0.1258303E-03 Eh
   gradient norm :     0.0225691 Eh/α   predicted    -0.3768216E-03 ( 199.47%)
   displ. norm   :     0.1430274 α      lambda       -0.8854854E-03
   maximum displ.:     0.0910848 α      in ANC's #3, #11, #5, ...

........................................................................
.............................. CYCLE   15 ..............................
........................................................................
   1    -21.7870072 -0.217870E+02  0.193E-01    3.61       0.0  T
   2    -21.7870139 -0.671325E-05  0.118E-01    3.62       1.0  T
   3    -21.7870156 -0.170403E-05  0.136E-02    3.61       2.1  T
   4    -21.7870162 -0.598618E-06  0.675E-03    3.62       4.3  T
   5    -21.7870163 -0.102908E-06  0.265E-03    3.61      10.9  T
   6    -21.7870163 -0.113868E-07  0.146E-03    3.61      19.8  T
     SCC iter.                  ...        0 min,  0.002 sec
     gradient                   ...        0 min,  0.001 sec
 * total energy  :   -21.5866714 Eh     change       -0.1940511E-03 Eh
   gradient norm :     0.0151685 Eh/α   predicted    -0.4517995E-03 ( 132.82%)
   displ. norm   :     0.2710014 α      lambda       -0.7155784E-03
   maximum displ.:     0.1378845 α      in ANC's #4, #3, #8, ...

........................................................................
.............................. CYCLE   16 ..............................
........................................................................
   1    -21.7774449 -0.217774E+02  0.294E-01    3.52       0.0  T
   2    -21.7774714 -0.264757E-04  0.181E-01    3.52       1.0  T
   3    -21.7774644  0.698397E-05  0.506E-02    3.51       1.0  T
   4    -21.7774803 -0.158776E-04  0.118E-02    3.51       2.4  T
   5    -21.7774807 -0.344436E-06  0.599E-03    3.51       4.8  T
   6    -21.7774807 -0.542425E-07  0.247E-03    3.51      11.7  T
   7    -21.7774807 -0.520557E-08  0.767E-04    3.51      37.6  T
     SCC iter.                  ...        0 min,  0.092 sec
     gradient                   ...        0 min,  0.002 sec
 * total energy  :   -21.5865991 Eh     change        0.7237771E-04 Eh
   gradient norm :     0.0264163 Eh/α   predicted    -0.3840627E-03 (-630.64%)
   displ. norm   :     0.1778452 α      lambda       -0.1033952E-02
   maximum displ.:     0.1166595 α      in ANC's #4, #5, #8, ...

........................................................................
.............................. CYCLE   17 ..............................
........................................................................
   1    -21.7828273 -0.217828E+02  0.192E-01    3.57       0.0  T
   2    -21.7828374 -0.101370E-04  0.120E-01    3.57       1.0  T
   3    -21.7828364  0.102249E-05  0.277E-02    3.57       1.0  T
   4    -21.7828417 -0.528485E-05  0.760E-03    3.57       3.8  T
   5    -21.7828418 -0.749451E-07  0.456E-03    3.57       6.3  T
   6    -21.7828418 -0.290058E-07  0.117E-03    3.57      24.6  T
     SCC iter.                  ...        0 min,  0.002 sec
     gradient                   ...        0 min,  0.001 sec
 * total energy  :   -21.5869791 Eh     change       -0.3800226E-03 Eh
   gradient norm :     0.0122087 Eh/α   predicted    -0.5333300E-03 (  40.34%)
   displ. norm   :     0.1949743 α      lambda       -0.3740780E-03
   maximum displ.:     0.1013256 α      in ANC's #5, #4, #2, ...

........................................................................
.............................. CYCLE   18 ..............................
........................................................................
   1    -21.7836276 -0.217836E+02  0.228E-01    3.56       0.0  T
   2    -21.7836360 -0.845163E-05  0.141E-01    3.56       1.0  T
   3    -21.7836401 -0.407397E-05  0.151E-02    3.56       1.9  T
   4    -21.7836408 -0.647145E-06  0.838E-03    3.56       3.4  T
   5    -21.7836409 -0.161909E-06  0.382E-03    3.56       7.6  T
   6    -21.7836409 -0.255896E-07  0.135E-03    3.56      21.3  T
   7    -21.7836409 -0.394457E-08  0.223E-04    3.56     129.7  T
     SCC iter.                  ...        0 min,  0.092 sec
     gradient                   ...        0 min,  0.001 sec
 * total energy  :   -21.5871602 Eh     change       -0.1811270E-03 Eh
   gradient norm :     0.0098568 Eh/α   predicted    -0.1941504E-03 (   7.19%)
   displ. norm   :     0.1650319 α      lambda       -0.2696521E-03
   maximum displ.:     0.0903931 α      in ANC's #4, #5, #9, ...

........................................................................
.............................. CYCLE   19 ..............................
........................................................................
   1    -21.7834151 -0.217834E+02  0.195E-01    3.55       0.0  T
   2    -21.7834210 -0.583446E-05  0.121E-01    3.54       1.0  T
   3    -21.7834211 -0.162649E-06  0.218E-02    3.55       1.3  T
   4    -21.7834246 -0.344624E-05  0.685E-03    3.54       4.2  T
   5    -21.7834246 -0.504713E-07  0.268E-03    3.54      10.8  T
   6    -21.7834246 -0.133468E-07  0.987E-04    3.54      29.2  T
     SCC iter.                  ...        0 min,  0.002 sec
     gradient                   ...        0 min,  0.001 sec
 * total energy  :   -21.5873932 Eh     change       -0.2330187E-03 Eh
   gradient norm :     0.0096230 Eh/α   predicted    -0.1384974E-03 ( -40.56%)
   displ. norm   :     0.5899798 α      lambda       -0.1023815E-02
   maximum displ.:     0.3365590 α      in ANC's #5, #9, #1, ...

........................................................................
.............................. CYCLE   20 ..............................
........................................................................
   1    -21.7761507 -0.217762E+02  0.715E-01    3.44       0.0  T
   2    -21.7762588 -0.108118E-03  0.442E-01    3.39       1.0  T
   3    -21.7762257  0.330952E-04  0.107E-01    3.36       1.0  T
   4    -21.7763092 -0.835167E-04  0.253E-02    3.36       1.1  T
   5    -21.7763103 -0.106427E-05  0.114E-02    3.36       2.5  T
   6    -21.7763105 -0.171080E-06  0.538E-03    3.37       5.4  T
   7    -21.7763105 -0.643059E-07  0.128E-03    3.37      22.5  T
   8    -21.7763105 -0.574193E-08  0.637E-04    3.37      45.3  T
     SCC iter.                  ...        0 min,  0.092 sec
     gradient                   ...        0 min,  0.002 sec
 * total energy  :   -21.5878557 Eh     change       -0.4624666E-03 Eh
   gradient norm :     0.0308481 Eh/α   predicted    -0.6900817E-03 (  49.22%)
   displ. norm   :     0.2894521 α      lambda       -0.1465886E-02
   maximum displ.:     0.2031685 α      in ANC's #2, #4, #3, ...
 * RMSD in coord.:     0.8691390 α      energy gain  -0.9943852E-02 Eh

generating ANC from model Hessian ...
Using Lindh-Hessian (1995)
 Shifting diagonal of input Hessian by   8.810622400919791E-003
 Lowest  eigenvalues of input Hessian
   -0.000000    0.000000    0.000000    0.000000    0.000000    0.000000
    0.010000    0.010322    0.010923    0.011248    0.012094    0.015790
    0.021275    0.023971    0.032534    0.052235    0.067793    0.080286
 Highest eigenvalues
    1.226555    1.266347    1.299352    1.568476    2.223811    2.238688
 

........................................................................
.............................. CYCLE   21 ..............................
........................................................................
   1    -21.7863572 -0.217864E+02  0.270E-01    3.43       0.0  T
   2    -21.7863844 -0.271814E-04  0.166E-01    3.40       1.0  T
   3    -21.7863779  0.647716E-05  0.495E-02    3.39       1.0  T
   4    -21.7863918 -0.139333E-04  0.999E-03    3.39       2.9  T
   5    -21.7863920 -0.178932E-06  0.472E-03    3.39       6.1  T
   6    -21.7863920 -0.166136E-07  0.238E-03    3.39      12.1  T
   7    -21.7863920 -0.105527E-07  0.548E-04    3.39      52.7  T
   8    -21.7863920 -0.134227E-08  0.235E-04    3.39     122.6  T
     SCC iter.                  ...        0 min,  0.003 sec
     gradient                   ...        0 min,  0.092 sec
 * total energy  :   -21.5884814 Eh     change       -0.6257413E-03 Eh
   gradient norm :     0.0252662 Eh/α   predicted     0.0000000E+00 (-100.00%)
   displ. norm   :     0.1986768 α      lambda       -0.1545383E-02
   maximum displ.:     0.1025202 α      in ANC's #8, #4, #3, ...

........................................................................
.............................. CYCLE   22 ..............................
........................................................................
   1    -21.7839269 -0.217839E+02  0.240E-01    3.34       0.0  T
   2    -21.7839477 -0.207699E-04  0.147E-01    3.35       1.0  T
   3    -21.7839391  0.866194E-05  0.489E-02    3.35       1.0  T
   4    -21.7839538 -0.147752E-04  0.946E-03    3.35       3.1  T
   5    -21.7839540 -0.218397E-06  0.390E-03    3.35       7.4  T
   6    -21.7839541 -0.232547E-07  0.199E-03    3.35      14.5  T
     SCC iter.                  ...        0 min,  0.002 sec
     gradient                   ...        0 min,  0.001 sec
 * total energy  :   -21.5891564 Eh     change       -0.6749594E-03 Eh
   gradient norm :     0.0149307 Eh/α   predicted    -0.8031891E-03 (  19.00%)
   displ. norm   :     0.4486406 α      lambda       -0.3367329E-02
   maximum displ.:     0.2561585 α      in ANC's #4, #9, #7, ...

........................................................................
.............................. CYCLE   23 ..............................
........................................................................
   1    -21.7705932 -0.217706E+02  0.614E-01    3.10       0.0  T
   2    -21.7706689 -0.756827E-04  0.378E-01    3.09       1.0  T
   3    -21.7706495  0.193883E-04  0.824E-02    3.09       1.0  T
   4    -21.7706991 -0.495602E-04  0.239E-02    3.08       1.2  T
   5    -21.7707002 -0.108948E-05  0.994E-03    3.08       2.9  T
   6    -21.7707003 -0.136191E-06  0.412E-03    3.08       7.0  T
   7    -21.7707004 -0.234937E-07  0.146E-03    3.08      19.8  T
   8    -21.7707004 -0.654137E-08  0.632E-04    3.08      45.7  T
     SCC iter.                  ...        0 min,  0.003 sec
     gradient                   ...        0 min,  0.091 sec
 * total energy  :   -21.5862666 Eh     change        0.2889838E-02 Eh
   gradient norm :     0.0537635 Eh/α   predicted    -0.2022551E-02 (-169.99%)
   displ. norm   :     0.2337234 α      lambda       -0.7922353E-02
   maximum displ.:     0.1637769 α      in ANC's #7, #4, #5, ...

........................................................................
.............................. CYCLE   24 ..............................
........................................................................
   1    -21.7826478 -0.217826E+02  0.308E-01    3.21       0.0  T
   2    -21.7826784 -0.306216E-04  0.190E-01    3.23       1.0  T
   3    -21.7826724  0.599115E-05  0.528E-02    3.24       1.0  T
   4    -21.7826901 -0.177503E-04  0.141E-02    3.24       2.0  T
   5    -21.7826906 -0.411441E-06  0.570E-03    3.24       5.1  T
   6    -21.7826906 -0.284565E-07  0.260E-03    3.24      11.1  T
     SCC iter.                  ...        0 min,  0.002 sec
     gradient                   ...        0 min,  0.001 sec
 * total energy  :   -21.5902502 Eh     change       -0.3983647E-02 Eh
   gradient norm :     0.0182576 Eh/α   predicted    -0.4177569E-02 (   4.87%)
   displ. norm   :     0.1244839 α      lambda       -0.8413371E-03
   maximum displ.:     0.0710601 α      in ANC's #4, #6, #9, ...

........................................................................
.............................. CYCLE   25 ..............................
........................................................................
   1    -21.7854206 -0.217854E+02  0.173E-01    3.24       0.0  T
   2    -21.7854262 -0.562880E-05  0.107E-01    3.23       1.0  T
   3    -21.7854227  0.350603E-05  0.277E-02    3.23       1.0  T
   4    -21.7854287 -0.599672E-05  0.526E-03    3.23       5.5  T
   5    -21.7854287 -0.223155E-07  0.244E-03    3.23      11.8  T
   6    -21.7854287 -0.950331E-08  0.115E-03    3.23      25.2  T
     SCC iter.                  ...        0 min,  0.092 sec
     gradient                   ...        0 min,  0.002 sec
 * total energy  :   -21.5907736 Eh     change       -0.5233386E-03 Eh
   gradient norm :     0.0126911 Eh/α   predicted    -0.4271875E-03 ( -18.37%)
   displ. norm   :     0.2892741 α      lambda       -0.1128990E-02
   maximum displ.:     0.1906263 α      in ANC's #9, #2, #1, ...

........................................................................
.............................. CYCLE   26 ..............................
........................................................................
   1    -21.7839076 -0.217839E+02  0.427E-01    3.16       0.0  T
   2    -21.7839479 -0.402430E-04  0.263E-01    3.15       1.0  T
   3    -21.7839286  0.192253E-04  0.677E-02    3.14       1.0  T
   4    -21.7839630 -0.343300E-04  0.137E-02    3.14       2.1  T
   5    -21.7839632 -0.264155E-06  0.572E-03    3.14       5.1  T
   6    -21.7839633 -0.401398E-07  0.266E-03    3.14      10.9  T
   7    -21.7839633 -0.197314E-07  0.513E-04    3.14      56.3  T
     SCC iter.                  ...        0 min,  0.002 sec
     gradient                   ...        0 min,  0.001 sec
 * total energy  :   -21.5916071 Eh     change       -0.8335546E-03 Eh
   gradient norm :     0.0282413 Eh/α   predicted    -0.6117349E-03 ( -26.61%)
   displ. norm   :     0.4437246 α      lambda       -0.1770929E-02
   maximum displ.:     0.2162573 α      in ANC's #9, #2, #1, ...

........................................................................
.............................. CYCLE   27 ..............................
........................................................................
   1    -21.7811536 -0.217812E+02  0.521E-01    3.08       0.0  T
   2    -21.7813385 -0.184850E-03  0.317E-01    3.00       1.0  T
   3    -21.7813009  0.376155E-04  0.129E-01    2.96       1.0  T
   4    -21.7813767 -0.758472E-04  0.216E-02    2.96       1.3  T
   5    -21.7813785 -0.175215E-05  0.858E-03    2.97       3.4  T
   6    -21.7813786 -0.136662E-06  0.469E-03    2.97       6.2  T
   7    -21.7813786 -0.314734E-07  0.824E-04    2.97      35.0  T
     SCC iter.                  ...        0 min,  0.092 sec
     gradient                   ...        0 min,  0.002 sec
 * total energy  :   -21.5926745 Eh     change       -0.1067370E-02 Eh
   gradient norm :     0.0287939 Eh/α   predicted    -0.1059807E-02 (  -0.71%)
   displ. norm   :     0.2041291 α      lambda       -0.1437678E-02
   maximum displ.:     0.1376153 α      in ANC's #1, #2, #9, ...

........................................................................
.............................. CYCLE   28 ..............................
........................................................................
   1    -21.7834143 -0.217834E+02  0.242E-01    2.99       0.0  T
   2    -21.7834316 -0.172841E-04  0.149E-01    2.97       1.0  T
   3    -21.7834332 -0.155758E-05  0.226E-02    2.95       1.3  T
   4    -21.7834353 -0.207524E-05  0.960E-03    2.96       3.0  T
   5    -21.7834357 -0.482660E-06  0.382E-03    2.96       7.6  T
   6    -21.7834358 -0.153320E-07  0.136E-03    2.96      21.3  T
     SCC iter.                  ...        0 min,  0.002 sec
     gradient                   ...        0 min,  0.001 sec
 * total energy  :   -21.5936043 Eh     change       -0.9298335E-03 Eh
   gradient norm :     0.0114709 Eh/α   predicted    -0.7487909E-03 ( -19.47%)
   displ. norm   :     0.4090820 α      lambda       -0.1668177E-02
   maximum displ.:     0.2292765 α      in ANC's #2, #9, #1, ...

........................................................................
.............................. CYCLE   29 ..............................
........................................................................
   1    -21.7789575 -0.217790E+02  0.492E-01    2.97       0.0  T
   2    -21.7789960 -0.385560E-04  0.307E-01    2.97       1.0  T
   3    -21.7790181 -0.220529E-04  0.336E-02    2.97       1.0  T
   4    -21.7790208 -0.268636E-05  0.193E-02    2.97       1.5  T
   5    -21.7790215 -0.771401E-06  0.457E-03    2.97       6.3  T
   6    -21.7790216 -0.295345E-07  0.174E-03    2.97      16.6  T
   7    -21.7790216 -0.632261E-08  0.574E-04    2.97      50.3  T
     SCC iter.                  ...        0 min,  0.093 sec
     gradient                   ...        0 min,  0.001 sec
 * total energy  :   -21.5940247 Eh     change       -0.4203394E-03 Eh
   gradient norm :     0.0365672 Eh/α   predicted    -0.9736712E-03 ( 131.64%)
   displ. norm   :     0.2383218 α      lambda       -0.2215047E-02
   maximum displ.:     0.1493480 α      in ANC's #2, #3, #1, ...

........................................................................
.............................. CYCLE   30 ..............................
........................................................................
   1    -21.7894784 -0.217895E+02  0.230E-01    2.96       0.0  T
   2    -21.7895460 -0.675423E-04  0.137E-01    3.02       1.0  T
   3    -21.7895461 -0.126310E-06  0.564E-02    3.04       1.0  T
   4    -21.7895553 -0.914012E-05  0.155E-02    3.04       1.9  T
   5    -21.7895563 -0.999114E-06  0.551E-03    3.04       5.2  T
   6    -21.7895563 -0.588933E-07  0.301E-03    3.04       9.6  T
     SCC iter.                  ...        0 min,  0.002 sec
     gradient                   ...        0 min,  0.001 sec
 * total energy  :   -21.5950576 Eh     change       -0.1032993E-02 Eh
   gradient norm :     0.0128937 Eh/α   predicted    -0.1170428E-02 (  13.30%)
   displ. norm   :     0.2844662 α      lambda       -0.9448327E-03
   maximum displ.:     0.2089820 α      in ANC's #2, #1, #5, ...

........................................................................
.............................. CYCLE   31 ..............................
........................................................................
   1    -21.7851600 -0.217852E+02  0.277E-01    3.01       0.0  T
   2    -21.7851700 -0.999413E-05  0.171E-01    3.03       1.0  T
   3    -21.7851742 -0.417742E-05  0.149E-02    3.04       1.9  T
   4    -21.7851748 -0.644967E-06  0.781E-03    3.04       3.7  T
   5    -21.7851750 -0.148701E-06  0.352E-03    3.03       8.2  T
   6    -21.7851750 -0.107444E-07  0.101E-03    3.03      28.6  T
   7    -21.7851750 -0.289655E-08  0.449E-04    3.03      64.3  T
     SCC iter.                  ...        0 min,  0.092 sec
     gradient                   ...        0 min,  0.001 sec
 * total energy  :   -21.5956542 Eh     change       -0.5965526E-03 Eh
   gradient norm :     0.0112988 Eh/α   predicted    -0.5106483E-03 ( -14.40%)
   displ. norm   :     0.2908316 α      lambda       -0.6780070E-03
   maximum displ.:     0.1857871 α      in ANC's #2, #8, #1, ...

........................................................................
.............................. CYCLE   32 ..............................
........................................................................
   1    -21.7861527 -0.217862E+02  0.288E-01    3.10       0.0  T
   2    -21.7861985 -0.457663E-04  0.175E-01    3.14       1.0  T
   3    -21.7861932  0.522969E-05  0.609E-02    3.15       1.0  T
   4    -21.7862110 -0.178048E-04  0.139E-02    3.15       2.1  T
   5    -21.7862116 -0.584358E-06  0.539E-03    3.15       5.4  T
   6    -21.7862116 -0.206081E-07  0.277E-03    3.15      10.4  T
   7    -21.7862117 -0.199041E-07  0.684E-04    3.15      42.2  T
     SCC iter.                  ...        0 min,  0.002 sec
     gradient                   ...        0 min,  0.001 sec
 * total energy  :   -21.5959045 Eh     change       -0.2502612E-03 Eh
   gradient norm :     0.0159291 Eh/α   predicted    -0.3676788E-03 (  46.92%)
   displ. norm   :     0.0788497 α      lambda       -0.3858745E-03
   maximum displ.:     0.0339946 α      in ANC's #4, #1, #8, ...

........................................................................
.............................. CYCLE   33 ..............................
........................................................................
   1    -21.7888401 -0.217888E+02  0.748E-02    3.16       0.0  T
   2    -21.7888491 -0.900443E-05  0.430E-02    3.16       1.0  T
   3    -21.7888496 -0.444655E-06  0.214E-02    3.17       1.4  T
   4    -21.7888510 -0.142513E-05  0.594E-03    3.17       4.9  T
   5    -21.7888511 -0.816673E-07  0.200E-03    3.17      14.4  T
   6    -21.7888511 -0.534074E-08  0.112E-03    3.17      25.8  T
     SCC iter.                  ...        0 min,  0.002 sec
     gradient                   ...        0 min,  0.001 sec
 * total energy  :   -21.5961023 Eh     change       -0.1978531E-03 Eh
   gradient norm :     0.0071657 Eh/α   predicted    -0.1941367E-03 (  -1.88%)
   displ. norm   :     0.2169193 α      lambda       -0.2695345E-03
   maximum displ.:     0.1626056 α      in ANC's #2, #1, #3, ...

........................................................................
.............................. CYCLE   34 ..............................
........................................................................
   1    -21.7863834 -0.217864E+02  0.181E-01    3.15       0.0  T
   2    -21.7863908 -0.736617E-05  0.111E-01    3.16       1.0  T
   3    -21.7863923 -0.151312E-05  0.153E-02    3.15       1.9  T
   4    -21.7863932 -0.857349E-06  0.636E-03    3.16       4.5  T
   5    -21.7863932 -0.862145E-07  0.311E-03    3.16       9.3  T
   6    -21.7863933 -0.199550E-07  0.133E-03    3.16      21.6  T
   7    -21.7863933 -0.319781E-08  0.265E-04    3.16     108.9  T
     SCC iter.                  ...        0 min,  0.002 sec
     gradient                   ...        0 min,  0.001 sec
 * total energy  :   -21.5961796 Eh     change       -0.7730094E-04 Eh
   gradient norm :     0.0088402 Eh/α   predicted    -0.1411100E-03 (  82.55%)
   displ. norm   :     0.0582213 α      lambda       -0.1469069E-03
   maximum displ.:     0.0301072 α      in ANC's #6, #4, #8, ...

........................................................................
.............................. CYCLE   35 ..............................
........................................................................
   1    -21.7891611 -0.217892E+02  0.602E-02    3.17       0.0  T
   2    -21.7891646 -0.343473E-05  0.354E-02    3.18       1.0  T
   3    -21.7891644  0.175496E-06  0.164E-02    3.18       1.8  T
   4    -21.7891653 -0.893196E-06  0.343E-03    3.18       8.4  T
   5    -21.7891653 -0.360625E-07  0.105E-03    3.18      27.5  T
   6    -21.7891653 -0.272222E-08  0.570E-04    3.18      50.6  T
     SCC iter.                  ...        0 min,  0.091 sec
     gradient                   ...        0 min,  0.001 sec
 * total energy  :   -21.5962619 Eh     change       -0.8227616E-04 Eh
   gradient norm :     0.0021528 Eh/α   predicted    -0.7370276E-04 ( -10.42%)
   displ. norm   :     0.0837885 α      lambda       -0.3754042E-04
   maximum displ.:     0.0509489 α      in ANC's #2, #1, #8, ...

........................................................................
.............................. CYCLE   36 ..............................
........................................................................
   1    -21.7891155 -0.217891E+02  0.703E-02    3.19       0.0  T
   2    -21.7891179 -0.239875E-05  0.427E-02    3.19       1.0  T
   3    -21.7891174  0.501833E-06  0.145E-02    3.19       2.0  T
   4    -21.7891185 -0.111276E-05  0.300E-03    3.19       9.6  T
   5    -21.7891186 -0.285974E-07  0.107E-03    3.19      27.1  T
   6    -21.7891186 -0.120842E-08  0.568E-04    3.19      50.8  T
   7    -21.7891186 -0.679560E-09  0.136E-04    3.19     212.6  T
     SCC iter.                  ...        0 min,  0.002 sec
     gradient                   ...        0 min,  0.001 sec
 * total energy  :   -21.5962836 Eh     change       -0.2170118E-04 Eh
   gradient norm :     0.0032874 Eh/α   predicted    -0.1890337E-04 ( -12.89%)
   displ. norm   :     0.0601344 α      lambda       -0.2474279E-04
   maximum displ.:     0.0340060 α      in ANC's #2, #1, #3, ...

........................................................................
.............................. CYCLE   37 ..............................
........................................................................
   1    -21.7896123 -0.217896E+02  0.402E-02    3.20       0.0  T
   2    -21.7896130 -0.688149E-06  0.242E-02    3.20       1.2  T
   3    -21.7896129  0.115590E-06  0.680E-03    3.20       4.2  T
   4    -21.7896131 -0.249715E-06  0.155E-03    3.20      18.6  T
   5    -21.7896131 -0.853116E-08  0.563E-04    3.20      51.3  T
   6    -21.7896131 -0.415689E-09  0.289E-04    3.20      99.9  T
     SCC iter.                  ...        0 min,  0.001 sec
     gradient                   ...        0 min,  0.091 sec
 * total energy  :   -21.5963015 Eh     change       -0.1786855E-04 Eh
   gradient norm :     0.0028970 Eh/α   predicted    -0.1241522E-04 ( -30.52%)
   displ. norm   :     0.0852177 α      lambda       -0.3091167E-04
   maximum displ.:     0.0516563 α      in ANC's #2, #7, #1, ...

........................................................................
.............................. CYCLE   38 ..............................
........................................................................
   1    -21.7896591 -0.217897E+02  0.567E-02    3.20       0.0  T
   2    -21.7896605 -0.142365E-05  0.342E-02    3.20       1.0  T
   3    -21.7896605 -0.475086E-07  0.653E-03    3.20       4.4  T
   4    -21.7896607 -0.150842E-06  0.227E-03    3.20      12.7  T
   5    -21.7896607 -0.231106E-07  0.910E-04    3.20      31.7  T
   6    -21.7896607 -0.155820E-08  0.465E-04    3.20      62.1  T
     SCC iter.                  ...        0 min,  0.002 sec
     gradient                   ...        0 min,  0.001 sec
 * total energy  :   -21.5963203 Eh     change       -0.1882187E-04 Eh
   gradient norm :     0.0023696 Eh/α   predicted    -0.1556969E-04 ( -17.28%)
   displ. norm   :     0.0496348 α      lambda       -0.2025188E-04
   maximum displ.:     0.0234575 α      in ANC's #5, #7, #2, ...

........................................................................
.............................. CYCLE   39 ..............................
........................................................................
   1    -21.7897847 -0.217898E+02  0.332E-02    3.20       0.0  T
   2    -21.7897848 -0.144399E-06  0.201E-02    3.20       1.4  T
   3    -21.7897849 -0.157123E-07  0.218E-03    3.20      13.2  T
   4    -21.7897849 -0.237421E-07  0.946E-04    3.20      30.5  T
   5    -21.7897849 -0.134507E-08  0.492E-04    3.20      58.7  T
     SCC iter.                  ...        0 min,  0.001 sec
     gradient                   ...        0 min,  0.001 sec
 * total energy  :   -21.5963341 Eh     change       -0.1380418E-04 Eh
   gradient norm :     0.0027409 Eh/α   predicted    -0.1015234E-04 ( -26.45%)
   displ. norm   :     0.0422666 α      lambda       -0.1926399E-04
   maximum displ.:     0.0225387 α      in ANC's #7, #5, #6, ...

........................................................................
.............................. CYCLE   40 ..............................
........................................................................
   1    -21.7897592 -0.217898E+02  0.355E-02    3.20       0.0  T
   2    -21.7897597 -0.436197E-06  0.214E-02    3.20       1.4  T
   3    -21.7897595  0.166948E-06  0.701E-03    3.20       4.1  T
   4    -21.7897598 -0.298596E-06  0.138E-03    3.20      20.8  T
   5    -21.7897598 -0.379442E-08  0.588E-04    3.20      49.1  T
   6    -21.7897598 -0.384144E-09  0.304E-04    3.20      94.8  T
     SCC iter.                  ...        0 min,  0.001 sec
     gradient                   ...        0 min,  0.001 sec
 * total energy  :   -21.5963477 Eh     change       -0.1364124E-04 Eh
   gradient norm :     0.0023421 Eh/α   predicted    -0.9650529E-05 ( -29.25%)
   displ. norm   :     0.0469893 α      lambda       -0.1499990E-04
   maximum displ.:     0.0236055 α      in ANC's #7, #5, #1, ...

........................................................................
.............................. CYCLE   41 ..............................
........................................................................
   1    -21.7895575 -0.217896E+02  0.412E-02    3.20       0.0  T
   2    -21.7895581 -0.645584E-06  0.248E-02    3.20       1.2  T
   3    -21.7895580  0.181249E-06  0.763E-03    3.20       3.8  T
   4    -21.7895583 -0.347665E-06  0.168E-03    3.20      17.2  T
   5    -21.7895583 -0.785827E-08  0.700E-04    3.20      41.3  T
   6    -21.7895583 -0.326732E-09  0.335E-04    3.20      86.2  T
     SCC iter.                  ...        0 min,  0.002 sec
     gradient                   ...        0 min,  0.001 sec
 * total energy  :   -21.5963573 Eh     change       -0.9533392E-05 Eh
   gradient norm :     0.0016976 Eh/α   predicted    -0.7515540E-05 ( -21.17%)
   displ. norm   :     0.0464871 α      lambda       -0.7644026E-05
   maximum displ.:     0.0300302 α      in ANC's #1, #3, #9, ...

........................................................................
.............................. CYCLE   42 ..............................
........................................................................
   1    -21.7894743 -0.217895E+02  0.438E-02    3.20       0.0  T
   2    -21.7894752 -0.905447E-06  0.264E-02    3.19       1.1  T
   3    -21.7894750  0.196167E-06  0.857E-03    3.19       3.4  T
   4    -21.7894754 -0.390005E-06  0.180E-03    3.19      16.0  T
   5    -21.7894754 -0.119123E-07  0.712E-04    3.19      40.6  T
   6    -21.7894754 -0.540471E-09  0.365E-04    3.19      79.2  T
     SCC iter.                  ...        0 min,  0.091 sec
     gradient                   ...        0 min,  0.004 sec
 * total energy  :   -21.5963634 Eh     change       -0.6147920E-05 Eh
   gradient norm :     0.0014440 Eh/α   predicted    -0.3826146E-05 ( -37.77%)
   displ. norm   :     0.0491497 α      lambda       -0.6621821E-05
   maximum displ.:     0.0380644 α      in ANC's #2, #1, #5, ...
 * RMSD in coord.:     0.7324434 α      energy gain  -0.8507702E-02 Eh

generating ANC from model Hessian ...
Using Lindh-Hessian (1995)
 Shifting diagonal of input Hessian by   8.640829400114397E-003
 Lowest  eigenvalues of input Hessian
   -0.000000   -0.000000    0.000000    0.000000    0.000000    0.000000
    0.010000    0.010639    0.012142    0.012303    0.016379    0.023041
    0.025915    0.038878    0.045748    0.050725    0.065427    0.086383
 Highest eigenvalues
    1.162707    1.268785    1.303498    1.616422    2.195455    2.203586
 

........................................................................
.............................. CYCLE   43 ..............................
........................................................................
   1    -21.7893243 -0.217893E+02  0.471E-02    3.20       0.0  T
   2    -21.7893245 -0.236054E-06  0.289E-02    3.20       1.0  T
   3    -21.7893246 -0.833686E-07  0.291E-03    3.20       9.9  T
   4    -21.7893246 -0.388606E-07  0.149E-03    3.20      19.3  T
   5    -21.7893246 -0.385381E-08  0.551E-04    3.20      52.4  T
   6    -21.7893246 -0.376552E-09  0.146E-04    3.20     197.4  T
     SCC iter.                  ...        0 min,  0.093 sec
     gradient                   ...        0 min,  0.001 sec
 * total energy  :   -21.5963698 Eh     change       -0.6366971E-05 Eh
   gradient norm :     0.0017827 Eh/α   predicted     0.0000000E+00 (-100.00%)
   displ. norm   :     0.0289871 α      lambda       -0.8899620E-05
   maximum displ.:     0.0183710 α      in ANC's #2, #1, #6, ...

........................................................................
.............................. CYCLE   44 ..............................
........................................................................
   1    -21.7895361 -0.217895E+02  0.393E-02    3.20       0.0  T
   2    -21.7895364 -0.308704E-06  0.243E-02    3.20       1.2  T
   3    -21.7895363  0.104276E-06  0.558E-03    3.20       5.2  T
   4    -21.7895365 -0.236290E-06  0.143E-03    3.20      20.2  T
   5    -21.7895365 -0.328270E-08  0.585E-04    3.20      49.4  T
   6    -21.7895365 -0.265736E-09  0.247E-04    3.20     116.9  T
     SCC iter.                  ...        0 min,  0.002 sec
     gradient                   ...        0 min,  0.002 sec
 * total energy  :   -21.5963655 Eh     change        0.4303037E-05 Eh
   gradient norm :     0.0020089 Eh/α   predicted    -0.4451553E-05 (-203.45%)
   displ. norm   :     0.0357576 α      lambda       -0.2473057E-04
   maximum displ.:     0.0199408 α      in ANC's #1, #2, #4, ...

........................................................................
.............................. CYCLE   45 ..............................
........................................................................
   1    -21.7898375 -0.217898E+02  0.360E-02    3.21       0.0  T
   2    -21.7898378 -0.270015E-06  0.220E-02    3.21       1.3  T
   3    -21.7898377  0.226608E-07  0.405E-03    3.21       7.1  T
   4    -21.7898379 -0.109292E-06  0.137E-03    3.21      21.1  T
   5    -21.7898379 -0.471388E-08  0.531E-04    3.21      54.4  T
   6    -21.7898379 -0.191054E-09  0.222E-04    3.21     130.0  T
     SCC iter.                  ...        0 min,  0.091 sec
     gradient                   ...        0 min,  0.001 sec
 * total energy  :   -21.5963737 Eh     change       -0.8246733E-05 Eh
   gradient norm :     0.0023432 Eh/α   predicted    -0.1238214E-04 (  50.15%)
   displ. norm   :     0.0172501 α      lambda       -0.1167271E-04
   maximum displ.:     0.0119587 α      in ANC's #3, #6, #7, ...

........................................................................
.............................. CYCLE   46 ..............................
........................................................................
   1    -21.7896401 -0.217896E+02  0.178E-02    3.20       0.0  T
   2    -21.7896401 -0.512901E-07  0.110E-02    3.20       2.6  T
   3    -21.7896402 -0.210940E-07  0.128E-03    3.20      22.6  T
   4    -21.7896402 -0.618242E-08  0.681E-04    3.20      42.4  T
   5    -21.7896402 -0.110446E-08  0.274E-04    3.20     105.4  T
     SCC iter.                  ...        0 min,  0.001 sec
     gradient                   ...        0 min,  0.001 sec
 * total energy  :   -21.5963797 Eh     change       -0.6011313E-05 Eh
   gradient norm :     0.0007091 Eh/α   predicted    -0.5837574E-05 (  -2.89%)
   displ. norm   :     0.0204870 α      lambda       -0.3190915E-05
   maximum displ.:     0.0136445 α      in ANC's #1, #2, #3, ...

........................................................................
.............................. CYCLE   47 ..............................
........................................................................
   1    -21.7894484 -0.217894E+02  0.193E-02    3.20       0.0  T
   2    -21.7894485 -0.456091E-07  0.118E-02    3.20       2.5  T
   3    -21.7894485 -0.174636E-07  0.123E-03    3.20      23.5  T
   4    -21.7894485 -0.578336E-08  0.681E-04    3.20      42.4  T
   5    -21.7894485 -0.872134E-09  0.277E-04    3.20     104.2  T
     SCC iter.                  ...        0 min,  0.001 sec
     gradient                   ...        0 min,  0.001 sec
 * total energy  :   -21.5963810 Eh     change       -0.1225233E-05 Eh
   gradient norm :     0.0008920 Eh/α   predicted    -0.1593642E-05 (  30.07%)
   displ. norm   :     0.0196949 α      lambda       -0.2325030E-05
   maximum displ.:     0.0138890 α      in ANC's #2, #1, #8, ...

   *** GEOMETRY OPTIMIZATION CONVERGED AFTER 47 ITERATIONS ***

------------------------------------------------------------------------
 total energy gain   :        -0.0184691 Eh      -11.5895 kcal/mol
 total RMSD          :         1.2827037 a0        0.6788 Å
 total power (kW/mol):        -1.0317153 (step)  -18.0232 (real)
------------------------------------------------------------------------

 ANCopt (total)                0 d,  0 h,  0 min,  2.690 sec
 optimizer setup                ...        0 min,  0.000 sec (  0.011%)
 model hessian                  ...        0 min,  0.094 sec (  3.490%)
 ANC generation                 ...        0 min,  0.002 sec (  0.062%)
 coordinate transformation      ...        0 min,  0.002 sec (  0.071%)
 single point calculation       ...        0 min,  2.574 sec ( 95.676%)
 optimization log               ...        0 min,  0.004 sec (  0.137%)
 hessian update                 ...        0 min,  0.005 sec (  0.183%)
 rational function              ...        0 min,  0.003 sec (  0.114%)

================
 final structure:
================
12
 xtb: 6.2.3 (830e466)
C         2.08519168814971    1.68015664985396   -3.28301108362516
C         0.14082950626737    1.04237915003229   -0.23791677308216
C         0.96588148720398   -0.06597390147270   -0.83125936864910
O         0.97684596539554    2.14552213278259   -3.25555005404235
O         0.56708584965864    2.34112117005454   -0.49130459688503
O         1.84303054333612    0.03271619833762   -1.64819937384349
H         0.62488551704283    2.48398297058466   -1.45303830292451
H         2.90750259718781    2.07314089436699   -2.66872773509385
H         2.36914514029600    0.88163437521178   -3.98166181932730
H         0.66906544627462   -1.06081021684566   -0.44311748684322
H        -0.89287341235911    0.86935262545421   -0.59317859379673
H         0.13242967154666    0.91637795163946    0.85117518811295
 
 Bond Distances (Angstroems)
 ---------------------------
C1-O4=1.2024         C1-H8=1.0991         C1-H9=1.0984         C2-C3=1.5037         C2-O5=1.3902         C2-H11=1.1067        
C2-H12=1.0964        C3-C2=1.5037         C3-O6=1.2027         C3-H10=1.1084        O4-C1=1.2024         O5-C2=1.3902         
O5-H7=0.9740         O6-C3=1.2027         H7-O5=0.9740         H8-C1=1.0991         H9-C1=1.0984         H10-C3=1.1084        
H11-C2=1.1067        H12-C2=1.0964        
 C  H  Rav=1.1018 sigma=0.0048  Rmin=1.0964  Rmax=1.1084     5
 C  C  Rav=1.5037 sigma=0.0000  Rmin=1.5037  Rmax=1.5037     1
 O  H  Rav=0.9740 sigma=0.0000  Rmin=0.9740  Rmax=0.9740     1
 O  C  Rav=1.2651 sigma=0.0885  Rmin=1.2024  Rmax=1.3902     3
 
 selected bond angles (degree)
 --------------------
H8-C1-O4=122.58                H9-C1-O4=122.29                H9-C1-H8=114.96                O5-C2-C3=116.64                
H11-C2-C3=105.70               H11-C2-O5=111.96               H12-C2-C3=108.15               H12-C2-O5=106.90               
H12-C2-H11=107.08              O6-C3-C2=127.42                H10-C3-C2=112.11               H10-C3-O6=120.45               
H7-O5-C2=109.58                
 
 selected dihedral angles (degree)
 ---------------------------------
O6-C3-C2-O5=348.91            O6-C3-C2-H11=114.05           O6-C3-C2-H12=228.46           H10-C3-C2-O5=170.07           
H10-C3-C2-H11=295.21          H10-C3-C2-H12= 49.62          H7-O5-C2-C3= 56.53            H7-O5-C2-H11=294.62           
H7-O5-C2-H12=177.64           
 
 CMA Distance (Angstroems)
 ---------------------------
R(CMA):  2.7482
           -------------------------------------------------
          |                Final Singlepoint                |
           -------------------------------------------------

          ...................................................
          :                      SETUP                      :
          :.................................................:
          :  # basis functions                  30          :
          :  # atomic orbitals                  30          :
          :  # shells                           18          :
          :  # electrons                        36          :
          :  max. iterations                   100          :
          :  Hamiltonian                  GFN2-xTB          :
          :  restarted?                      false          :
          :  GBSA solvation                  false          :
          :  PC potential                    false          :
          :  electronic temp.          300.0000000     K    :
          :  accuracy                    1.0000000          :
          :  -> integral cutoff          0.2500000E+02      :
          :  -> integral neglect         0.1000000E-07      :
          :  -> SCF convergence          0.1000000E-05 Eh   :
          :  -> wf. convergence          0.1000000E-03 e    :
          :  Broyden damping             0.4000000          :
          ...................................................

 iter      E             dE          RMSdq      gap      omega  full diag
   1    -21.7894485 -0.217894E+02  0.691E-05    3.20       0.0  T
   2    -21.7894485 -0.174900E-10  0.403E-05    3.20     716.6  T
   3    -21.7894485 -0.289191E-11  0.262E-05    3.20    1099.9  T

   *** convergence criteria satisfied after 3 iterations ***

         #    Occupation            Energy/Eh            Energy/eV
      -------------------------------------------------------------
         1        2.0000           -0.7470007             -20.3269
       ...           ...                  ...                  ...
        12        2.0000           -0.5364005             -14.5962
        13        2.0000           -0.5312739             -14.4567
        14        2.0000           -0.5245972             -14.2750
        15        2.0000           -0.4852332             -13.2039
        16        2.0000           -0.4469838             -12.1630
        17        2.0000           -0.4153309             -11.3017
        18        2.0000           -0.4114238             -11.1954 (HOMO)
        19                         -0.2936989              -7.9920 (LUMO)
        20                         -0.2691835              -7.3249
        21                          0.0436208               1.1870
        22                          0.0970793               2.6417
        23                          0.1092995               2.9742
       ...                                ...                  ...
        30                          0.5867616              15.9666
      -------------------------------------------------------------
                  HL-Gap            0.1177249 Eh            3.2035 eV
             Fermi-level           -0.3525613 Eh           -9.5937 eV

 SCC (total)                   0 d,  0 h,  0 min,  0.003 sec
 SCC setup                      ...        0 min,  0.000 sec (  7.141%)
 Dispersion                     ...        0 min,  0.000 sec (  1.911%)
 integral evaluation            ...        0 min,  0.000 sec ( 15.380%)
 zeroth order Hamiltonian       ...        0 min,  0.000 sec (  2.499%)
 iterations                     ...        0 min,  0.001 sec ( 25.569%)
 molecular gradient             ...        0 min,  0.001 sec ( 33.289%)
 printout                       ...        0 min,  0.000 sec (  6.777%)

         :::::::::::::::::::::::::::::::::::::::::::::::::::::
         ::                     SUMMARY                     ::
         :::::::::::::::::::::::::::::::::::::::::::::::::::::
         :: total energy             -21.596380966904 Eh    ::
         :: gradient norm              0.000890283482 Eh/a0 ::
         :: HOMO-LUMO gap              3.203458651627 eV    ::
         ::.................................................::
         :: SCC energy               -21.789448512819 Eh    ::
         :: -> isotropic ES            0.062688631802 Eh    ::
         :: -> anisotropic ES         -0.000313166861 Eh    ::
         :: -> anisotropic XC          0.002293114936 Eh    ::
         :: -> dispersion             -0.006042881673 Eh    ::
         :: repulsion energy           0.193059433467 Eh    ::
         :: add. restraining           0.000000000000 Eh    ::
         :::::::::::::::::::::::::::::::::::::::::::::::::::::

           -------------------------------------------------
          |                Property Printout                |
           -------------------------------------------------

    * Orbital Energies and Occupations

         #    Occupation            Energy/Eh            Energy/eV
      -------------------------------------------------------------
         1        2.0000           -0.7470007             -20.3269
       ...           ...                  ...                  ...
         6        2.0000           -0.6175551             -16.8045
         7        2.0000           -0.6018448             -16.3770
         8        2.0000           -0.5846072             -15.9080
         9        2.0000           -0.5760511             -15.6751
        10        2.0000           -0.5656356             -15.3917
        11        2.0000           -0.5466066             -14.8739
        12        2.0000           -0.5364005             -14.5962
        13        2.0000           -0.5312739             -14.4567
        14        2.0000           -0.5245972             -14.2750
        15        2.0000           -0.4852332             -13.2039
        16        2.0000           -0.4469838             -12.1630
        17        2.0000           -0.4153309             -11.3017
        18        2.0000           -0.4114238             -11.1954 (HOMO)
        19                         -0.2936989              -7.9920 (LUMO)
        20                         -0.2691835              -7.3249
        21                          0.0436208               1.1870
        22                          0.0970793               2.6417
        23                          0.1092995               2.9742
        24                          0.1210832               3.2948
        25                          0.1485554               4.0424
        26                          0.2014535               5.4818
        27                          0.2303784               6.2689
        28                          0.2569572               6.9922
        29                          0.5636364              15.3373
        30                          0.5867616              15.9666
      -------------------------------------------------------------
                  HL-Gap            0.1177249 Eh            3.2035 eV
             Fermi-level           -0.3525613 Eh           -9.5937 eV

     #   Z        covCN         q      C6AA      α(0)
     1   6 C      2.704     0.198    23.778     7.981
     2   6 C      3.674     0.061    19.776     6.372
     3   6 C      2.754     0.203    23.687     7.970
     4   8 O      0.856    -0.330    20.337     6.046
     5   8 O      1.655    -0.433    21.503     6.260
     6   8 O      0.858    -0.308    19.920     5.984
     7   1 H      0.804     0.327     0.644     1.261
     8   1 H      0.923     0.053     2.283     2.363
     9   1 H      0.923     0.051     2.311     2.377
    10   1 H      0.922     0.034     2.530     2.488
    11   1 H      0.922     0.063     2.164     2.300
    12   1 H      0.924     0.081     1.968     2.194

 Mol. C6AA /au·bohr⁶  :       1293.458787
 Mol. C8AA /au·bohr⁸  :      27461.879523
 Mol. α(0) /au        :         53.596417


Wiberg/Mayer (AO) data.
largest (>0.10) Wiberg bond orders for each atom
          total WBO             WBO to atom ...
     1  C   3.888        O    4 1.918    H    9 0.946    H    8 0.945
     2  C   3.974        O    5 1.033    C    3 1.007    H   12 0.939    H   11 0.919
     3  C   3.908        O    6 1.893    C    2 1.007    H   10 0.928
     4  O   2.094        C    1 1.918
     5  O   1.969        C    2 1.033    H    7 0.846
     6  O   2.153        C    3 1.893
     7  H   0.893        O    5 0.846
     8  H   0.997        C    1 0.945
     9  H   0.997        C    1 0.946
    10  H   0.999        C    3 0.928
    11  H   0.996        C    2 0.919
    12  H   0.993        C    2 0.939

molecular dipole:
                 x           y           z       tot (Debye)
 q only:       -0.117      -0.546       0.301
   full:       -0.104      -0.834       0.252       2.230
molecular quadrupole (traceless):
                xx          xy          yy          xz          yz          zz
 q only:        3.551       1.468      -3.448      -3.048       0.640      -0.103
  q+dip:        4.606       1.593      -5.758      -3.584       1.184       1.152
   full:        4.203       1.999      -5.670      -3.350       0.395       1.467

           -------------------------------------------------
          |                Geometry Summary                 |
           -------------------------------------------------

      molecular mass/u    :       90.0780670
   center of mass at/Å    :        1.0921946       1.2259027      -1.6313071
  moments of inertia/u·Å² :        0.1032195E+03   0.1865602E+03   0.2623630E+03
rotational constants/cm⁻¹ :        0.1633184E+00   0.9036027E-01   0.6425309E-01

 * 8 selected distances

     #   Z        #   Z                                     value/Å
     1   6 C      4   8 O                                 1.2023932
     2   6 C      5   8 O                                 1.3901909 (max)
     3   6 C      6   8 O                                 1.2027141
     5   8 O      7   1 H                                 0.9740031 (min)
     1   6 C      8   1 H                                 1.0990796
     1   6 C      9   1 H                                 1.0983534
     2   6 C     11   1 H                                 1.1066575
     2   6 C     12   1 H                                 1.0963887

 * 3 distinct bonds (by element types)

   Z      Z             #   av. dist./Å        max./Å        min./Å
   1 H    6 C           4     1.1001198     1.1066575     1.0963887
   1 H    8 O           1     0.9740031     0.9740031     0.9740031
   6 C    8 O           3     1.2650994     1.3901909     1.2023932


optimized geometry written to: xtbopt.xyz


           -------------------------------------------------
          | TOTAL ENERGY              -21.596380966904 Eh   |
          | GRADIENT NORM               0.000890283482 Eh/α |
          | HOMO-LUMO GAP               3.203458651627 eV   |
           -------------------------------------------------

------------------------------------------------------------------------
 * finished run on 2020/12/23 at 21:43:05.561     
------------------------------------------------------------------------
 total:
 * wall-time:     0 d,  0 h,  0 min,  3.155 sec
 *  cpu-time:     0 d,  0 h,  0 min, 12.896 sec
 * ratio c/w:     4.087 speedup
 SCF:
 * wall-time:     0 d,  0 h,  0 min,  0.007 sec
 *  cpu-time:     0 d,  0 h,  0 min,  0.208 sec
 * ratio c/w:    29.105 speedup
 ANC optimizer:
 * wall-time:     0 d,  0 h,  0 min,  2.697 sec
 *  cpu-time:     0 d,  0 h,  0 min, 10.719 sec
 * ratio c/w:     3.974 speedup

