12
 energy: -21.526365783594 gnorm: 0.000614982549 xtb: 6.2.3 (830e466)
C         1.30148195743023    0.68890575375758   -2.88856030194749
C         1.12440523713000   -0.44959802605392   -2.22151113266226
C         0.92557136617809   -0.48881506681287   -0.77262599190230
O         0.42380876264762    3.26137147370158   -0.13914197960309
O         1.21682387420455    3.58378977902513   -1.27573081118488
O         0.82934792198039    0.46997734067691   -0.04352246844326
H         1.24276062095081    4.54713709793450   -1.23455349816791
H         1.30772755389860    1.64146659330755   -2.38272803725697
H         1.45115602761998    0.70427755433274   -3.95503834527559
H         0.86480967169768   -1.51033395686304   -0.35383131795007
H         1.12782512531260   -1.40688738881108   -2.72422662271901
H         0.57327188095187    2.29831884580497   -0.04432949288714
