      -----------------------------------------------------------      
     |                   =====================                   |     
     |                           x T B                           |     
     |                   =====================                   |     
     |                         S. Grimme                         |     
     |          Mulliken Center for Theoretical Chemistry        |     
     |                    University of Bonn                     |     
      -----------------------------------------------------------      

   * xtb version 6.2.3 (830e466) compiled by 'ehlert@majestix' on 2020-03-16

   xtb is free software: you can redistribute it and/or modify it under
   the terms of the GNU Lesser General Public License as published by
   the Free Software Foundation, either version 3 of the License, or
   (at your option) any later version.
   
   xtb is distributed in the hope that it will be useful,
   but WITHOUT ANY WARRANTY; without even the implied warranty of
   MERCHANTABILITY or FITNESS FOR A PARTICULAR PURPOSE.  See the
   GNU Lesser General Public License for more details.
   
   Cite this work as:
   * S. Grimme, C. Bannwarth, P. Shushkov, J. Chem. Theory Comput., 2017,
     13, 1989-2009. DOI: 10.1021/acs.jctc.7b00118
   * C. Bannwarth, S. Ehlert and S. Grimme., J. Chem. Theory Comput., 2019,
     15, 1652-1671. DOI: 10.1021/acs.jctc.8b01176
   * P. Pracht, E. Caldeweyher, S. Ehlert, S. Grimme, ChemRxiv, 2019, preprint.
     DOI: 10.26434/chemrxiv.8326202.v1
   
   for DFT-D4:
   * E. Caldeweyher, C. Bannwarth and S. Grimme, J. Chem. Phys., 2017,
     147, 034112. DOI: 10.1063/1.4993215
   * E. Caldeweyher, S. Ehlert, A. Hansen, H. Neugebauer, S. Spicher,
     C. Bannwarth and S. Grimme, J. Chem. Phys., 2019, 150, 154122.
     DOI: 10.1063/1.5090222
   
   for sTDA-xTB:
   * S. Grimme and C. Bannwarth, J. Chem. Phys., 2016, 145, 054103.
     DOI: 10.1063/1.4959605
   
   in the mass-spec context:
   * V. Asgeirsson, C. Bauer and S. Grimme, Chem. Sci., 2017, 8, 4879.
     DOI: 10.1039/c7sc00601b
   
   for metadynamics refer to:
   * S. Grimme, J. Chem. Theory Comput., 2019, 155, 2847-2862
     DOI: 10.1021/acs.jctc.9b00143
   
   with help from (in alphabetical order)
   C. Bannwarth, F. Bohle, G. Brandenburg, E. Caldeweyher, M. Checinski,
   S. Dohm, S. Ehlert, S. Ehrlich, F. März, H. Neugebauer, J. Pisarek,
   P. Pracht, P. Shushkov, and S. Spicher.
   
 * started run on 2020/12/23 at 21:41:24.371     

           -------------------------------------------------
          |                Calculation Setup                |
           -------------------------------------------------

          program call               : xtb -c 0 -u 0 -a 1.0 --iterations 100 --opt normal --namespace product_13 /scratch/bell/zhao922/YARP/paper-example/potential_product/test/reaction_channel/pp_0/pp_17_0.xyz
          hostname                   : bell-fe05.rcac.purdue.edu
          calculation namespace      : product_13
          coordinate file            : /scratch/bell/zhao922/YARP/paper-example/potential_product/test/reaction_channel/pp_0/pp_17_0.xyz
          omp threads                :                    32
          number of atoms            :                    12
          number of electrons        :                    36
          charge                     :                     0
          spin                       :                   0.0
          first test random number   :      0.86592816775846

           ------------------------------------------------- 
          |                 G F N 2 - x T B                 |
          | Geometry, Frequencies, Noncovalent interactions |
          |            JCTC 2019 parametrisation            |
           ------------------------------------------------- 
             k(s)              :                1.8500
             k(p)              :                2.2300
             k(d)              :                2.2300
             k(f)              :                2.0000
             kEN (H0ij)        :               -2.0000
             D4 a1             :                0.5200
             D4 a2             :                5.0000
             D4 s6             :                1.0000
             D4 s8             :                2.7000
             D4 s9             :                5.0000
             alphaj            :                2.0000

  Z AO/shell   Hii/eV     exponent
  1     Wed Apr 25 08:07:45 CEST 2018   EN: 2.200 GM2: 0.406  GM3: 0.0800  RAES: 1.40
     1s    -10.707211    1.230000
  6     Wed Apr 25 08:07:45 CEST 2018   EN: 2.550 GM2: 0.538  GM3: 0.1500  RAES: 3.00
     2s    -13.970922    2.096432
     2p    -10.063292    1.800000
  8     Wed Apr 25 08:07:45 CEST 2018   EN: 3.440 GM2: 0.452  GM3:-0.0517  RAES: 1.80
     2s    -20.229985    2.439742
     2p    -15.503117    2.137023

           ------------------------------------------------- 
          |        Self-Consistent Charge Iterations        |
           ------------------------------------------------- 

          ...................................................
          :                      SETUP                      :
          :.................................................:
          :  # basis functions                  30          :
          :  # atomic orbitals                  30          :
          :  # shells                           18          :
          :  # electrons                        36          :
          :  max. iterations                   100          :
          :  Hamiltonian                  GFN2-xTB          :
          :  restarted?                      false          :
          :  GBSA solvation                  false          :
          :  PC potential                    false          :
          :  electronic temp.          300.0000000     K    :
          :  accuracy                    1.0000000          :
          :  -> integral cutoff          0.2500000E+02      :
          :  -> integral neglect         0.1000000E-07      :
          :  -> SCF convergence          0.1000000E-05 Eh   :
          :  -> wf. convergence          0.1000000E-03 e    :
          :  Broyden damping             0.4000000          :
          ...................................................

 iter      E             dE          RMSdq      gap      omega  full diag
   1    -21.7634884 -0.217635E+02  0.558E+00    5.42       0.0  T
   2    -21.8111489 -0.476604E-01  0.286E+00    4.27       1.0  T
   3    -21.8123428 -0.119388E-02  0.157E+00    4.61       1.0  T
   4    -21.8169881 -0.464535E-02  0.177E-01    4.28       1.0  T
   5    -21.8171013 -0.113180E-03  0.884E-02    4.36       1.0  T
   6    -21.8171068 -0.551562E-05  0.245E-02    4.37       1.2  T
   7    -21.8171074 -0.574800E-06  0.634E-03    4.37       4.6  T
   8    -21.8171074 -0.645549E-07  0.260E-03    4.36      11.1  T
   9    -21.8171074 -0.565201E-08  0.929E-04    4.36      31.1  T
  10    -21.8171074 -0.167856E-08  0.300E-04    4.36      96.1  T

   *** convergence criteria satisfied after 10 iterations ***

         #    Occupation            Energy/Eh            Energy/eV
      -------------------------------------------------------------
         1        2.0000           -0.7594911             -20.6668
       ...           ...                  ...                  ...
        12        2.0000           -0.5321368             -14.4802
        13        2.0000           -0.5245356             -14.2733
        14        2.0000           -0.4868286             -13.2473
        15        2.0000           -0.4813985             -13.0995
        16        2.0000           -0.4555810             -12.3970
        17        2.0000           -0.4389977             -11.9457
        18        2.0000           -0.4256915             -11.5837 (HOMO)
        19                         -0.2653232              -7.2198 (LUMO)
        20                         -0.0217794              -0.5926
        21                          0.0422197               1.1489
        22                          0.0796195               2.1666
        23                          0.0917905               2.4977
       ...                                ...                  ...
        30                          0.5234466              14.2437
      -------------------------------------------------------------
                  HL-Gap            0.1603682 Eh            4.3638 eV
             Fermi-level           -0.3455074 Eh           -9.4017 eV

 SCC (total)                   0 d,  0 h,  0 min,  0.096 sec
 SCC setup                      ...        0 min,  0.000 sec (  0.142%)
 Dispersion                     ...        0 min,  0.000 sec (  0.054%)
 integral evaluation            ...        0 min,  0.001 sec (  1.074%)
 zeroth order Hamiltonian       ...        0 min,  0.000 sec (  0.068%)
 iterations                     ...        0 min,  0.007 sec (  7.596%)
 molecular gradient             ...        0 min,  0.087 sec ( 90.653%)
 printout                       ...        0 min,  0.000 sec (  0.236%)

         :::::::::::::::::::::::::::::::::::::::::::::::::::::
         ::                     SUMMARY                     ::
         :::::::::::::::::::::::::::::::::::::::::::::::::::::
         :: total energy             -21.656083849883 Eh    ::
         :: gradient norm              0.102774474240 Eh/a0 ::
         :: HOMO-LUMO gap              4.363842182311 eV    ::
         ::.................................................::
         :: SCC energy               -21.817107446939 Eh    ::
         :: -> isotropic ES            0.062554969970 Eh    ::
         :: -> anisotropic ES          0.001288335527 Eh    ::
         :: -> anisotropic XC         -0.000959923422 Eh    ::
         :: -> dispersion             -0.005880600698 Eh    ::
         :: repulsion energy           0.161019207099 Eh    ::
         :: add. restraining           0.000000000000 Eh    ::
         :::::::::::::::::::::::::::::::::::::::::::::::::::::

      ----------------------------------------------------------- 
     |                   =====================                   |
     |                        A N C O P T                        |
     |                   =====================                   |
     |               Approximate Normal Coordinate               |
     |                Rational Function Optimizer                |
      ----------------------------------------------------------- 

          ...................................................
          :                      SETUP                      :
          :.................................................:
          :   optimization level            normal          :
          :   max. optcycles                   200          :
          :   ANC micro-cycles                  20          :
          :   degrees of freedom                30          :
          :.................................................:
          :   RF solver                   davidson          :
          :   write xtbopt.log                true          :
          :   linear?                        false          :
          :   energy convergence         0.5000000E-05 Eh   :
          :   grad. convergence          0.1000000E-02 Eh/α :
          :   maximium RF displ.         1.0000000          :
          :   Hlow (freq-cutoff)         0.1000000E-01      :
          :   Hmax (freq-cutoff)         5.0000000          :
          :   S6 in model hess.         20.0000000          :
          ...................................................

generating ANC from model Hessian ...
Using Lindh-Hessian (1995)
 Shifting diagonal of input Hessian by   5.165159938801595E-003
 Lowest  eigenvalues of input Hessian
   -0.000000   -0.000000   -0.000000   -0.000000    0.000000    0.000000
    0.010000    0.011207    0.012237    0.021912    0.031116    0.045441
    0.049429    0.060773    0.065062    0.077495    0.096582    0.101639
 Highest eigenvalues
    1.174730    1.206529    1.295186    1.471166    1.835335    2.262265
 

........................................................................
.............................. CYCLE    1 ..............................
........................................................................
   1    -21.8171074 -0.218171E+02  0.122E-04    4.36       0.0  T
   2    -21.8171074 -0.971774E-10  0.550E-05    4.36     524.6  T
   3    -21.8171074 -0.227622E-10  0.214E-05    4.36    1348.9  T
     SCC iter.                  ...        0 min,  0.001 sec
     gradient                   ...        0 min,  0.001 sec
 * total energy  :   -21.6560838 Eh     change        0.1094253E-07 Eh
   gradient norm :     0.1027747 Eh/α   predicted     0.0000000E+00 (-100.00%)
   displ. norm   :     0.2134778 α      lambda       -0.1132779E-01
   maximum displ.:     0.0913242 α      in ANC's #17, #12, #8, ...

........................................................................
.............................. CYCLE    2 ..............................
........................................................................
   1    -21.8367794 -0.218368E+02  0.274E-01    4.68       0.0  T
   2    -21.8368558 -0.764305E-04  0.163E-01    4.62       1.0  T
   3    -21.8368592 -0.337913E-05  0.547E-02    4.61       1.0  T
   4    -21.8368661 -0.685401E-05  0.154E-02    4.60       1.9  T
   5    -21.8368666 -0.532269E-06  0.635E-03    4.61       4.5  T
   6    -21.8368667 -0.756100E-07  0.272E-03    4.61      10.6  T
   7    -21.8368667 -0.626617E-08  0.877E-04    4.61      32.9  T
     SCC iter.                  ...        0 min,  0.086 sec
     gradient                   ...        0 min,  0.002 sec
 * total energy  :   -21.6642213 Eh     change       -0.8137489E-02 Eh
   gradient norm :     0.0495425 Eh/α   predicted    -0.5922011E-02 ( -27.23%)
   displ. norm   :     0.2418416 α      lambda       -0.5232036E-02
   maximum displ.:     0.1584161 α      in ANC's #5, #12, #18, ...

........................................................................
.............................. CYCLE    3 ..............................
........................................................................
   1    -21.8467621 -0.218468E+02  0.317E-01    4.86       0.0  T
   2    -21.8468239 -0.618257E-04  0.191E-01    4.81       1.0  T
   3    -21.8468279 -0.402082E-05  0.450E-02    4.80       1.0  T
   4    -21.8468318 -0.385854E-05  0.125E-02    4.80       2.3  T
   5    -21.8468321 -0.326814E-06  0.450E-03    4.81       6.4  T
   6    -21.8468321 -0.191887E-07  0.215E-03    4.81      13.4  T
     SCC iter.                  ...        0 min,  0.002 sec
     gradient                   ...        0 min,  0.001 sec
 * total energy  :   -21.6664406 Eh     change       -0.2219293E-02 Eh
   gradient norm :     0.0159247 Eh/α   predicted    -0.2769020E-02 (  24.77%)
   displ. norm   :     0.1909743 α      lambda       -0.1922584E-02
   maximum displ.:     0.1024433 α      in ANC's #3, #4, #7, ...

........................................................................
.............................. CYCLE    4 ..............................
........................................................................
   1    -21.8468725 -0.218469E+02  0.260E-01    4.83       0.0  T
   2    -21.8468942 -0.217529E-04  0.163E-01    4.82       1.0  T
   3    -21.8468984 -0.420959E-05  0.217E-02    4.81       1.3  T
   4    -21.8468996 -0.119117E-05  0.775E-03    4.81       3.7  T
   5    -21.8468997 -0.738313E-07  0.433E-03    4.81       6.7  T
   6    -21.8468997 -0.171348E-07  0.101E-03    4.81      28.6  T
   7    -21.8468997 -0.179542E-08  0.404E-04    4.81      71.5  T
     SCC iter.                  ...        0 min,  0.002 sec
     gradient                   ...        0 min,  0.001 sec
 * total energy  :   -21.6659619 Eh     change        0.4787505E-03 Eh
   gradient norm :     0.0232156 Eh/α   predicted    -0.9963519E-03 (-308.12%)
   displ. norm   :     0.1265547 α      lambda       -0.1955467E-02
   maximum displ.:     0.0570599 α      in ANC's #2, #3, #7, ...

........................................................................
.............................. CYCLE    5 ..............................
........................................................................
   1    -21.8456906 -0.218457E+02  0.182E-01    4.78       0.0  T
   2    -21.8457033 -0.126601E-04  0.114E-01    4.80       1.0  T
   3    -21.8457055 -0.226924E-05  0.171E-02    4.81       1.7  T
   4    -21.8457061 -0.594029E-06  0.614E-03    4.81       4.7  T
   5    -21.8457062 -0.685431E-07  0.304E-03    4.81       9.5  T
   6    -21.8457062 -0.119263E-07  0.129E-03    4.81      22.4  T
     SCC iter.                  ...        0 min,  0.087 sec
     gradient                   ...        0 min,  0.002 sec
 * total energy  :   -21.6669860 Eh     change       -0.1024089E-02 Eh
   gradient norm :     0.0033785 Eh/α   predicted    -0.9933916E-03 (  -3.00%)
   displ. norm   :     0.0687042 α      lambda       -0.8017768E-04
   maximum displ.:     0.0522051 α      in ANC's #2, #1, #5, ...

........................................................................
.............................. CYCLE    6 ..............................
........................................................................
   1    -21.8453437 -0.218453E+02  0.972E-02    4.81       0.0  T
   2    -21.8453447 -0.935235E-06  0.605E-02    4.81       1.0  T
   3    -21.8453452 -0.499469E-06  0.414E-03    4.81       7.0  T
   4    -21.8453452 -0.613918E-07  0.221E-03    4.81      13.1  T
   5    -21.8453452 -0.402416E-08  0.707E-04    4.81      40.8  T
   6    -21.8453452 -0.650566E-09  0.268E-04    4.81     107.9  T
     SCC iter.                  ...        0 min,  0.002 sec
     gradient                   ...        0 min,  0.002 sec
 * total energy  :   -21.6670542 Eh     change       -0.6823830E-04 Eh
   gradient norm :     0.0027387 Eh/α   predicted    -0.4027751E-04 ( -40.98%)
   displ. norm   :     0.2039899 α      lambda       -0.1824368E-03
   maximum displ.:     0.1561243 α      in ANC's #2, #1, #5, ...

........................................................................
.............................. CYCLE    7 ..............................
........................................................................
   1    -21.8443168 -0.218443E+02  0.288E-01    4.80       0.0  T
   2    -21.8443243 -0.753756E-05  0.179E-01    4.81       1.0  T
   3    -21.8443282 -0.386912E-05  0.125E-02    4.81       2.3  T
   4    -21.8443289 -0.682211E-06  0.639E-03    4.82       4.5  T
   5    -21.8443289 -0.321408E-07  0.216E-03    4.81      13.3  T
   6    -21.8443289 -0.737462E-08  0.763E-04    4.82      37.8  T
   7    -21.8443289 -0.129004E-08  0.177E-04    4.82     163.1  T
     SCC iter.                  ...        0 min,  0.002 sec
     gradient                   ...        0 min,  0.002 sec
 * total energy  :   -21.6671642 Eh     change       -0.1100105E-03 Eh
   gradient norm :     0.0061334 Eh/α   predicted    -0.9501550E-04 ( -13.63%)
   displ. norm   :     0.0802895 α      lambda       -0.5395714E-04
   maximum displ.:     0.0616046 α      in ANC's #2, #1, #4, ...

........................................................................
.............................. CYCLE    8 ..............................
........................................................................
   1    -21.8450224 -0.218450E+02  0.107E-01    4.84       0.0  T
   2    -21.8450234 -0.102088E-05  0.664E-02    4.83       1.0  T
   3    -21.8450239 -0.503266E-06  0.431E-03    4.83       6.7  T
   4    -21.8450240 -0.576315E-07  0.227E-03    4.83      12.7  T
   5    -21.8450240 -0.429574E-08  0.104E-03    4.83      27.7  T
     SCC iter.                  ...        0 min,  0.002 sec
     gradient                   ...        0 min,  0.002 sec
 * total energy  :   -21.6672053 Eh     change       -0.4107256E-04 Eh
   gradient norm :     0.0039420 Eh/α   predicted    -0.2715217E-04 ( -33.89%)
   displ. norm   :     0.1228005 α      lambda       -0.5685318E-04
   maximum displ.:     0.0870902 α      in ANC's #2, #1, #3, ...

........................................................................
.............................. CYCLE    9 ..............................
........................................................................
   1    -21.8455256 -0.218455E+02  0.167E-01    4.85       0.0  T
   2    -21.8455276 -0.202629E-05  0.103E-01    4.85       1.0  T
   3    -21.8455290 -0.138892E-05  0.575E-03    4.85       5.0  T
   4    -21.8455291 -0.348492E-07  0.335E-03    4.85       8.6  T
   5    -21.8455291 -0.986732E-08  0.879E-04    4.85      32.8  T
   6    -21.8455291 -0.230842E-08  0.198E-04    4.85     146.0  T
     SCC iter.                  ...        0 min,  0.002 sec
     gradient                   ...        0 min,  0.002 sec
 * total energy  :   -21.6672452 Eh     change       -0.3995036E-04 Eh
   gradient norm :     0.0029873 Eh/α   predicted    -0.2885460E-04 ( -27.77%)
   displ. norm   :     0.0845492 α      lambda       -0.2856994E-04
   maximum displ.:     0.0626395 α      in ANC's #1, #2, #3, ...

........................................................................
.............................. CYCLE   10 ..............................
........................................................................
   1    -21.8460652 -0.218461E+02  0.114E-01    4.86       0.0  T
   2    -21.8460663 -0.103454E-05  0.704E-02    4.86       1.0  T
   3    -21.8460669 -0.634821E-06  0.492E-03    4.86       5.9  T
   4    -21.8460670 -0.722384E-07  0.273E-03    4.86      10.6  T
   5    -21.8460670 -0.627483E-08  0.671E-04    4.86      43.0  T
   6    -21.8460670 -0.625750E-09  0.160E-04    4.86     180.8  T
     SCC iter.                  ...        0 min,  0.002 sec
     gradient                   ...        0 min,  0.001 sec
 * total energy  :   -21.6672641 Eh     change       -0.1888028E-04 Eh
   gradient norm :     0.0011929 Eh/α   predicted    -0.1438887E-04 ( -23.79%)
   displ. norm   :     0.1505068 α      lambda       -0.1496528E-04
   maximum displ.:     0.1183958 α      in ANC's #1, #2, #3, ...

........................................................................
.............................. CYCLE   11 ..............................
........................................................................
   1    -21.8450271 -0.218450E+02  0.212E-01    4.84       0.0  T
   2    -21.8450309 -0.382687E-05  0.132E-01    4.84       1.0  T
   3    -21.8450330 -0.214466E-05  0.961E-03    4.84       3.0  T
   4    -21.8450335 -0.411274E-06  0.520E-03    4.84       5.5  T
   5    -21.8450335 -0.210196E-07  0.144E-03    4.84      20.1  T
   6    -21.8450335 -0.212859E-08  0.227E-04    4.84     127.0  T
   7    -21.8450335 -0.495390E-10  0.103E-04    4.84     281.2  T
     SCC iter.                  ...        0 min,  0.003 sec
     gradient                   ...        0 min,  0.002 sec
 * total energy  :   -21.6672640 Eh     change        0.1125085E-06 Eh
   gradient norm :     0.0052265 Eh/α   predicted    -0.7557351E-05 (*******%)
   displ. norm   :     0.0277582 α      lambda       -0.2489471E-04
   maximum displ.:     0.0228994 α      in ANC's #2, #5, #4, ...

........................................................................
.............................. CYCLE   12 ..............................
........................................................................
   1    -21.8459698 -0.218460E+02  0.317E-02    4.87       0.0  T
   2    -21.8459703 -0.464844E-06  0.192E-02    4.87       1.5  T
   3    -21.8459702  0.285235E-07  0.500E-03    4.87       5.8  T
   4    -21.8459703 -0.971431E-07  0.925E-04    4.86      31.2  T
   5    -21.8459703 -0.197894E-08  0.519E-04    4.86      55.6  T
     SCC iter.                  ...        0 min,  0.002 sec
     gradient                   ...        0 min,  0.001 sec
 * total energy  :   -21.6672786 Eh     change       -0.1455939E-04 Eh
   gradient norm :     0.0015474 Eh/α   predicted    -0.1245632E-04 ( -14.44%)
   displ. norm   :     0.0295114 α      lambda       -0.5132641E-05
   maximum displ.:     0.0199882 α      in ANC's #2, #1, #4, ...

........................................................................
.............................. CYCLE   13 ..............................
........................................................................
   1    -21.8462348 -0.218462E+02  0.266E-02    4.87       0.0  T
   2    -21.8462350 -0.255055E-06  0.160E-02    4.87       1.8  T
   3    -21.8462350 -0.161435E-07  0.223E-03    4.87      13.0  T
   4    -21.8462350 -0.473067E-08  0.609E-04    4.87      47.4  T
   5    -21.8462350 -0.453106E-09  0.360E-04    4.87      80.3  T
     SCC iter.                  ...        0 min,  0.002 sec
     gradient                   ...        0 min,  0.086 sec
 * total energy  :   -21.6672839 Eh     change       -0.5326024E-05 Eh
   gradient norm :     0.0014111 Eh/α   predicted    -0.2567013E-05 ( -51.80%)
   displ. norm   :     0.0521422 α      lambda       -0.4584396E-05
   maximum displ.:     0.0474745 α      in ANC's #1, #2, #4, ...

........................................................................
.............................. CYCLE   14 ..............................
........................................................................
   1    -21.8460787 -0.218461E+02  0.497E-02    4.87       0.0  T
   2    -21.8460790 -0.260311E-06  0.303E-02    4.87       1.0  T
   3    -21.8460791 -0.110454E-06  0.251E-03    4.87      11.5  T
   4    -21.8460791 -0.119771E-07  0.140E-03    4.87      20.6  T
   5    -21.8460791 -0.171206E-08  0.590E-04    4.87      49.0  T
   6    -21.8460791 -0.516639E-09  0.178E-04    4.87     161.9  T
     SCC iter.                  ...        0 min,  0.002 sec
     gradient                   ...        0 min,  0.002 sec
 * total energy  :   -21.6672886 Eh     change       -0.4702455E-05 Eh
   gradient norm :     0.0010899 Eh/α   predicted    -0.2293345E-05 ( -51.23%)
   displ. norm   :     0.0556467 α      lambda       -0.2501979E-05
   maximum displ.:     0.0533678 α      in ANC's #1, #2, #4, ...

........................................................................
.............................. CYCLE   15 ..............................
........................................................................
   1    -21.8459868 -0.218460E+02  0.526E-02    4.87       0.0  T
   2    -21.8459870 -0.220787E-06  0.322E-02    4.87       1.0  T
   3    -21.8459872 -0.151786E-06  0.244E-03    4.87      11.8  T
   4    -21.8459872 -0.381389E-08  0.128E-03    4.87      22.6  T
   5    -21.8459872 -0.176184E-08  0.308E-04    4.87      93.6  T
   6    -21.8459872 -0.259000E-09  0.121E-04    4.87     238.1  T
     SCC iter.                  ...        0 min,  0.002 sec
     gradient                   ...        0 min,  0.002 sec
 * total energy  :   -21.6672911 Eh     change       -0.2520113E-05 Eh
   gradient norm :     0.0008877 Eh/α   predicted    -0.1253219E-05 ( -50.27%)
   displ. norm   :     0.0360089 α      lambda       -0.1586821E-05
   maximum displ.:     0.0309448 α      in ANC's #1, #2, #3, ...

   *** GEOMETRY OPTIMIZATION CONVERGED AFTER 15 ITERATIONS ***

------------------------------------------------------------------------
 total energy gain   :        -0.0112073 Eh       -7.0327 kcal/mol
 total RMSD          :         0.2857762 a0        0.1512 Å
 total power (kW/mol):        -1.9616433 (step)  -57.6531 (real)
------------------------------------------------------------------------

 ANCopt (total)                0 d,  0 h,  0 min,  0.510 sec
 optimizer setup                ...        0 min,  0.000 sec (  0.077%)
 model hessian                  ...        0 min,  0.005 sec (  1.003%)
 ANC generation                 ...        0 min,  0.000 sec (  0.089%)
 coordinate transformation      ...        0 min,  0.001 sec (  0.112%)
 single point calculation       ...        0 min,  0.497 sec ( 97.432%)
 optimization log               ...        0 min,  0.002 sec (  0.338%)
 hessian update                 ...        0 min,  0.001 sec (  0.262%)
 rational function              ...        0 min,  0.001 sec (  0.212%)

================
 final structure:
================
12
 xtb: 6.2.3 (830e466)
C         1.25605536355166    1.20089699095024   -2.22496325394782
C         0.23903590872746    1.98769234863214   -1.38307410856027
C         1.60369863928824   -0.80469943440561   -1.06241875882433
O         1.04459563431613   -0.20566698072907   -2.09975006673804
O         0.39328411887012    3.37147797914570   -1.54024112041259
O         2.28304885349612   -0.29494073604461   -0.22189582528361
H         1.24203814050832    3.64149282399424   -1.17024403699215
H         2.27536655419243    1.44172214776236   -1.90002309755231
H         1.13499837328071    1.43486314192660   -3.28396496773858
H         1.35218257104791   -1.87750649455105   -1.09794067097379
H        -0.77357675472124    1.75388807491217   -1.72121008087091
H         0.33827259744210    1.69037013840689   -0.33007401210560
 
 Bond Distances (Angstroems)
 ---------------------------
C1-C2=1.5369         C1-O4=1.4279         C1-H8=1.0966         C1-H9=1.0913         C2-C1=1.5369         C2-O5=1.4012         
C2-H11=1.0929        C2-H12=1.0987        C3-O4=1.3219         C3-O6=1.1949         C3-H10=1.1025        O4-C1=1.4279         
O4-C3=1.3219         O5-C2=1.4012         O5-H7=0.9645         O6-C3=1.1949         H7-O5=0.9645         H8-C1=1.0966         
H9-C1=1.0913         H10-C3=1.1025        H11-C2=1.0929        H12-C2=1.0987        
 C  H  Rav=1.0964 sigma=0.0040  Rmin=1.0913  Rmax=1.1025     5
 C  C  Rav=1.5369 sigma=0.0000  Rmin=1.5369  Rmax=1.5369     1
 O  H  Rav=0.9645 sigma=0.0000  Rmin=0.9645  Rmax=0.9645     1
 O  C  Rav=1.3365 sigma=0.0905  Rmin=1.1949  Rmax=1.4279     4
 
 selected bond angles (degree)
 --------------------
O4-C1-C2=110.99                H8-C1-C2=109.90                H8-C1-O4=109.15                H9-C1-C2=110.39                
H9-C1-O4=106.25                H9-C1-H8=110.09                O5-C2-C1=111.79                H11-C2-C1=109.52               
H11-C2-O5=106.17               H12-C2-C1=109.07               H12-C2-O5=111.40               H12-C2-H11=108.80              
O6-C3-O4=126.81                H10-C3-O4=108.61               H10-C3-O6=124.58               C3-O4-C1=116.91                
H7-O5-C2=109.29                
 
 selected dihedral angles (degree)
 ---------------------------------
O5-C2-C1-O4=182.65            O5-C2-C1-H8= 61.82            O5-C2-C1-H9=300.19            H11-C2-C1-O4=300.04           
H11-C2-C1-H8=179.21           H11-C2-C1-H9= 57.59           H12-C2-C1-O4= 59.01           H12-C2-C1-H8=298.18           
H12-C2-C1-H9=176.56           C3-O4-C1-C2=275.52            C3-O4-C1-H8= 36.80            C3-O4-C1-H9=155.48            
C1-O4-C3-O6=359.10            C1-O4-C3-H10=179.83           H7-O5-C2-C1=293.65            H7-O5-C2-H11=174.26           
H7-O5-C2-H12= 55.96           
           -------------------------------------------------
          |                Final Singlepoint                |
           -------------------------------------------------

          ...................................................
          :                      SETUP                      :
          :.................................................:
          :  # basis functions                  30          :
          :  # atomic orbitals                  30          :
          :  # shells                           18          :
          :  # electrons                        36          :
          :  max. iterations                   100          :
          :  Hamiltonian                  GFN2-xTB          :
          :  restarted?                      false          :
          :  GBSA solvation                  false          :
          :  PC potential                    false          :
          :  electronic temp.          300.0000000     K    :
          :  accuracy                    1.0000000          :
          :  -> integral cutoff          0.2500000E+02      :
          :  -> integral neglect         0.1000000E-07      :
          :  -> SCF convergence          0.1000000E-05 Eh   :
          :  -> wf. convergence          0.1000000E-03 e    :
          :  Broyden damping             0.4000000          :
          ...................................................

 iter      E             dE          RMSdq      gap      omega  full diag
   1    -21.8459872 -0.218460E+02  0.303E-05    4.87       0.0  T
   2    -21.8459872 -0.525802E-12  0.178E-05    4.87    1625.8  T
   3    -21.8459872 -0.110134E-12  0.584E-06    4.87    4943.0  T

   *** convergence criteria satisfied after 3 iterations ***

         #    Occupation            Energy/Eh            Energy/eV
      -------------------------------------------------------------
         1        2.0000           -0.7661709             -20.8486
       ...           ...                  ...                  ...
        12        2.0000           -0.5347521             -14.5513
        13        2.0000           -0.5245645             -14.2741
        14        2.0000           -0.4961624             -13.5013
        15        2.0000           -0.4871375             -13.2557
        16        2.0000           -0.4606645             -12.5353
        17        2.0000           -0.4407726             -11.9940
        18        2.0000           -0.4310249             -11.7288 (HOMO)
        19                         -0.2519899              -6.8570 (LUMO)
        20                         -0.0241827              -0.6580
        21                          0.0730221               1.9870
        22                          0.0838370               2.2813
        23                          0.1092198               2.9720
       ...                                ...                  ...
        30                          0.6403255              17.4241
      -------------------------------------------------------------
                  HL-Gap            0.1790350 Eh            4.8718 eV
             Fermi-level           -0.3415074 Eh           -9.2929 eV

 SCC (total)                   0 d,  0 h,  0 min,  0.089 sec
 SCC setup                      ...        0 min,  0.000 sec (  0.248%)
 Dispersion                     ...        0 min,  0.000 sec (  0.049%)
 integral evaluation            ...        0 min,  0.000 sec (  0.550%)
 zeroth order Hamiltonian       ...        0 min,  0.000 sec (  0.097%)
 iterations                     ...        0 min,  0.001 sec (  1.244%)
 molecular gradient             ...        0 min,  0.001 sec (  1.610%)
 printout                       ...        0 min,  0.000 sec (  0.217%)

         :::::::::::::::::::::::::::::::::::::::::::::::::::::
         ::                     SUMMARY                     ::
         :::::::::::::::::::::::::::::::::::::::::::::::::::::
         :: total energy             -21.667291102852 Eh    ::
         :: gradient norm              0.000886403806 Eh/a0 ::
         :: HOMO-LUMO gap              4.871790779884 eV    ::
         ::.................................................::
         :: SCC energy               -21.845987157410 Eh    ::
         :: -> isotropic ES            0.060656851443 Eh    ::
         :: -> anisotropic ES          0.002075770194 Eh    ::
         :: -> anisotropic XC         -0.000823760883 Eh    ::
         :: -> dispersion             -0.005867615030 Eh    ::
         :: repulsion energy           0.178691760771 Eh    ::
         :: add. restraining           0.000000000000 Eh    ::
         :::::::::::::::::::::::::::::::::::::::::::::::::::::

           -------------------------------------------------
          |                Property Printout                |
           -------------------------------------------------

    * Orbital Energies and Occupations

         #    Occupation            Energy/Eh            Energy/eV
      -------------------------------------------------------------
         1        2.0000           -0.7661709             -20.8486
       ...           ...                  ...                  ...
         6        2.0000           -0.6264212             -17.0458
         7        2.0000           -0.6110476             -16.6275
         8        2.0000           -0.6066821             -16.5087
         9        2.0000           -0.5861464             -15.9499
        10        2.0000           -0.5737944             -15.6137
        11        2.0000           -0.5452323             -14.8365
        12        2.0000           -0.5347521             -14.5513
        13        2.0000           -0.5245645             -14.2741
        14        2.0000           -0.4961624             -13.5013
        15        2.0000           -0.4871375             -13.2557
        16        2.0000           -0.4606645             -12.5353
        17        2.0000           -0.4407726             -11.9940
        18        2.0000           -0.4310249             -11.7288 (HOMO)
        19                         -0.2519899              -6.8570 (LUMO)
        20                         -0.0241827              -0.6580
        21                          0.0730221               1.9870
        22                          0.0838370               2.2813
        23                          0.1092198               2.9720
        24                          0.1310890               3.5671
        25                          0.1548833               4.2146
        26                          0.1586078               4.3159
        27                          0.1903378               5.1794
        28                          0.2407376               6.5508
        29                          0.2812262               7.6526
        30                          0.6403255              17.4241
      -------------------------------------------------------------
                  HL-Gap            0.1790350 Eh            4.8718 eV
             Fermi-level           -0.3415074 Eh           -9.2929 eV

     #   Z        covCN         q      C6AA      α(0)
     1   6 C      3.704     0.058    19.755     6.355
     2   6 C      3.673     0.073    19.593     6.344
     3   6 C      2.666     0.337    21.280     7.548
     4   8 O      1.703    -0.243    18.032     5.733
     5   8 O      1.656    -0.429    21.412     6.247
     6   8 O      0.856    -0.373    21.159     6.167
     7   1 H      0.805     0.296     0.733     1.345
     8   1 H      0.924     0.063     2.161     2.299
     9   1 H      0.924     0.076     2.022     2.224
    10   1 H      0.923     0.036     2.503     2.474
    11   1 H      0.924     0.066     2.127     2.281
    12   1 H      0.923     0.041     2.438     2.442

 Mol. C6AA /au·bohr⁶  :       1238.467673
 Mol. C8AA /au·bohr⁸  :      26109.697240
 Mol. α(0) /au        :         51.457178


Wiberg/Mayer (AO) data.
largest (>0.10) Wiberg bond orders for each atom
          total WBO             WBO to atom ...
     1  C   3.919        C    2 0.980    H    9 0.970    H    8 0.967    O    4 0.938
     2  C   3.957        O    5 1.012    C    1 0.980    H   11 0.971    H   12 0.969
     3  C   3.920        O    6 1.799    O    4 1.175    H   10 0.915
     4  O   2.343        C    3 1.175    C    1 0.938    O    6 0.194
     5  O   1.971        C    2 1.012    H    7 0.898
     6  O   2.068        C    3 1.799    O    4 0.194
     7  H   0.912        O    5 0.898
     8  H   0.996        C    1 0.967
     9  H   0.994        C    1 0.970
    10  H   0.998        C    3 0.915
    11  H   0.996        C    2 0.971
    12  H   0.998        C    2 0.969

molecular dipole:
                 x           y           z       tot (Debye)
 q only:       -0.069       0.101      -0.407
   full:        0.060      -0.105      -0.391       1.039
molecular quadrupole (traceless):
                xx          xy          yy          xz          yz          zz
 q only:       -2.460       5.006       1.073      -3.925       0.477       1.387
  q+dip:       -0.813       6.523      -1.074      -5.254       2.533       1.887
   full:       -0.871       6.360      -0.452      -5.799       2.412       1.323

           -------------------------------------------------
          |                Geometry Summary                 |
           -------------------------------------------------

      molecular mass/u    :       90.0780670
   center of mass at/Å    :        1.1364020       0.9182426      -1.4150218
  moments of inertia/u·Å² :        0.5958909E+02   0.2549911E+03   0.2871660E+03
rotational constants/cm⁻¹ :        0.2828980E+00   0.6611067E-01   0.5870344E-01

 * 11 selected distances

     #   Z        #   Z                                     value/Å
     1   6 C      2   6 C                                 1.5369297 (max)
     1   6 C      4   8 O                                 1.4278711
     3   6 C      4   8 O                                 1.3219275
     2   6 C      5   8 O                                 1.4011983
     3   6 C      6   8 O                                 1.1949265
     5   8 O      7   1 H                                 0.9644632 (min)
     1   6 C      8   1 H                                 1.0966212
     1   6 C      9   1 H                                 1.0912743
     3   6 C     10   1 H                                 1.1024687
     2   6 C     11   1 H                                 1.0928791
     2   6 C     12   1 H                                 1.0986617

 * 4 distinct bonds (by element types)

   Z      Z             #   av. dist./Å        max./Å        min./Å
   1 H    6 C           5     1.0963810     1.1024687     1.0912743
   6 C    6 C           1     1.5369297     1.5369297     1.5369297
   1 H    8 O           1     0.9644632     0.9644632     0.9644632
   6 C    8 O           4     1.3364808     1.4278711     1.1949265


optimized geometry written to: xtbopt.xyz


           -------------------------------------------------
          | TOTAL ENERGY              -21.667291102852 Eh   |
          | GRADIENT NORM               0.000886403806 Eh/α |
          | HOMO-LUMO GAP               4.871790779884 eV   |
           -------------------------------------------------

------------------------------------------------------------------------
 * finished run on 2020/12/23 at 21:41:25.268     
------------------------------------------------------------------------
 total:
 * wall-time:     0 d,  0 h,  0 min,  0.897 sec
 *  cpu-time:     0 d,  0 h,  0 min,  3.866 sec
 * ratio c/w:     4.309 speedup
 SCF:
 * wall-time:     0 d,  0 h,  0 min,  0.097 sec
 *  cpu-time:     0 d,  0 h,  0 min,  0.345 sec
 * ratio c/w:     3.555 speedup
 ANC optimizer:
 * wall-time:     0 d,  0 h,  0 min,  0.602 sec
 *  cpu-time:     0 d,  0 h,  0 min,  2.459 sec
 * ratio c/w:     4.083 speedup

