      -----------------------------------------------------------      
     |                   =====================                   |     
     |                           x T B                           |     
     |                   =====================                   |     
     |                         S. Grimme                         |     
     |          Mulliken Center for Theoretical Chemistry        |     
     |                    University of Bonn                     |     
      -----------------------------------------------------------      

   * xtb version 6.2.3 (830e466) compiled by 'ehlert@majestix' on 2020-03-16

   xtb is free software: you can redistribute it and/or modify it under
   the terms of the GNU Lesser General Public License as published by
   the Free Software Foundation, either version 3 of the License, or
   (at your option) any later version.
   
   xtb is distributed in the hope that it will be useful,
   but WITHOUT ANY WARRANTY; without even the implied warranty of
   MERCHANTABILITY or FITNESS FOR A PARTICULAR PURPOSE.  See the
   GNU Lesser General Public License for more details.
   
   Cite this work as:
   * S. Grimme, C. Bannwarth, P. Shushkov, J. Chem. Theory Comput., 2017,
     13, 1989-2009. DOI: 10.1021/acs.jctc.7b00118
   * C. Bannwarth, S. Ehlert and S. Grimme., J. Chem. Theory Comput., 2019,
     15, 1652-1671. DOI: 10.1021/acs.jctc.8b01176
   * P. Pracht, E. Caldeweyher, S. Ehlert, S. Grimme, ChemRxiv, 2019, preprint.
     DOI: 10.26434/chemrxiv.8326202.v1
   
   for DFT-D4:
   * E. Caldeweyher, C. Bannwarth and S. Grimme, J. Chem. Phys., 2017,
     147, 034112. DOI: 10.1063/1.4993215
   * E. Caldeweyher, S. Ehlert, A. Hansen, H. Neugebauer, S. Spicher,
     C. Bannwarth and S. Grimme, J. Chem. Phys., 2019, 150, 154122.
     DOI: 10.1063/1.5090222
   
   for sTDA-xTB:
   * S. Grimme and C. Bannwarth, J. Chem. Phys., 2016, 145, 054103.
     DOI: 10.1063/1.4959605
   
   in the mass-spec context:
   * V. Asgeirsson, C. Bauer and S. Grimme, Chem. Sci., 2017, 8, 4879.
     DOI: 10.1039/c7sc00601b
   
   for metadynamics refer to:
   * S. Grimme, J. Chem. Theory Comput., 2019, 155, 2847-2862
     DOI: 10.1021/acs.jctc.9b00143
   
   with help from (in alphabetical order)
   C. Bannwarth, F. Bohle, G. Brandenburg, E. Caldeweyher, M. Checinski,
   S. Dohm, S. Ehlert, S. Ehrlich, F. März, H. Neugebauer, J. Pisarek,
   P. Pracht, P. Shushkov, and S. Spicher.
   
 * started run on 2020/12/23 at 21:41:42.224     

           -------------------------------------------------
          |                Calculation Setup                |
           -------------------------------------------------

          program call               : xtb -c 0 -u 0 -a 1.0 --iterations 100 --opt normal --namespace product_16 /scratch/bell/zhao922/YARP/paper-example/potential_product/test/reaction_channel/pp_0/pp_19_1.xyz
          hostname                   : bell-fe05.rcac.purdue.edu
          calculation namespace      : product_16
          coordinate file            : /scratch/bell/zhao922/YARP/paper-example/potential_product/test/reaction_channel/pp_0/pp_19_1.xyz
          omp threads                :                    32
          number of atoms            :                    12
          number of electrons        :                    36
          charge                     :                     0
          spin                       :                   0.0
          first test random number   :      0.29127807158913

           ------------------------------------------------- 
          |                 G F N 2 - x T B                 |
          | Geometry, Frequencies, Noncovalent interactions |
          |            JCTC 2019 parametrisation            |
           ------------------------------------------------- 
             k(s)              :                1.8500
             k(p)              :                2.2300
             k(d)              :                2.2300
             k(f)              :                2.0000
             kEN (H0ij)        :               -2.0000
             D4 a1             :                0.5200
             D4 a2             :                5.0000
             D4 s6             :                1.0000
             D4 s8             :                2.7000
             D4 s9             :                5.0000
             alphaj            :                2.0000

  Z AO/shell   Hii/eV     exponent
  1     Wed Apr 25 08:07:45 CEST 2018   EN: 2.200 GM2: 0.406  GM3: 0.0800  RAES: 1.40
     1s    -10.707211    1.230000
  6     Wed Apr 25 08:07:45 CEST 2018   EN: 2.550 GM2: 0.538  GM3: 0.1500  RAES: 3.00
     2s    -13.970922    2.096432
     2p    -10.063292    1.800000
  8     Wed Apr 25 08:07:45 CEST 2018   EN: 3.440 GM2: 0.452  GM3:-0.0517  RAES: 1.80
     2s    -20.229985    2.439742
     2p    -15.503117    2.137023

           ------------------------------------------------- 
          |        Self-Consistent Charge Iterations        |
           ------------------------------------------------- 

          ...................................................
          :                      SETUP                      :
          :.................................................:
          :  # basis functions                  30          :
          :  # atomic orbitals                  30          :
          :  # shells                           18          :
          :  # electrons                        36          :
          :  max. iterations                   100          :
          :  Hamiltonian                  GFN2-xTB          :
          :  restarted?                      false          :
          :  GBSA solvation                  false          :
          :  PC potential                    false          :
          :  electronic temp.          300.0000000     K    :
          :  accuracy                    1.0000000          :
          :  -> integral cutoff          0.2500000E+02      :
          :  -> integral neglect         0.1000000E-07      :
          :  -> SCF convergence          0.1000000E-05 Eh   :
          :  -> wf. convergence          0.1000000E-03 e    :
          :  Broyden damping             0.4000000          :
          ...................................................

 iter      E             dE          RMSdq      gap      omega  full diag
   1    -21.6952512 -0.216953E+02  0.481E+00    5.05       0.0  T
   2    -21.7045307 -0.927954E-02  0.297E+00    4.83       1.0  T
   3    -21.6861309  0.183998E-01  0.185E+00    5.11       1.0  T
   4    -21.7138904 -0.277595E-01  0.262E-01    4.89       1.0  T
   5    -21.7141089 -0.218443E-03  0.919E-02    4.91       1.0  T
   6    -21.7141159 -0.698435E-05  0.323E-02    4.91       1.0  T
   7    -21.7141170 -0.111623E-05  0.105E-02    4.91       2.7  T
   8    -21.7141171 -0.110677E-06  0.201E-03    4.91      14.3  T
   9    -21.7141171 -0.599506E-08  0.765E-04    4.91      37.7  T
  10    -21.7141171 -0.143114E-08  0.286E-04    4.91     100.8  T

   *** convergence criteria satisfied after 10 iterations ***

         #    Occupation            Energy/Eh            Energy/eV
      -------------------------------------------------------------
         1        2.0000           -0.7396749             -20.1276
       ...           ...                  ...                  ...
        12        2.0000           -0.5138211             -13.9818
        13        2.0000           -0.4951793             -13.4745
        14        2.0000           -0.4731425             -12.8749
        15        2.0000           -0.4541283             -12.3575
        16        2.0000           -0.4493833             -12.2283
        17        2.0000           -0.4142339             -11.2719
        18        2.0000           -0.3812843             -10.3753 (HOMO)
        19                         -0.2009814              -5.4690 (LUMO)
        20                         -0.0417844              -1.1370
        21                          0.0196343               0.5343
        22                          0.0797510               2.1701
        23                          0.0863943               2.3509
       ...                                ...                  ...
        30                          0.5747838              15.6407
      -------------------------------------------------------------
                  HL-Gap            0.1803028 Eh            4.9063 eV
             Fermi-level           -0.2911328 Eh           -7.9221 eV

 SCC (total)                   0 d,  0 h,  0 min,  0.007 sec
 SCC setup                      ...        0 min,  0.000 sec (  3.884%)
 Dispersion                     ...        0 min,  0.000 sec (  0.839%)
 integral evaluation            ...        0 min,  0.001 sec (  9.359%)
 zeroth order Hamiltonian       ...        0 min,  0.000 sec (  1.246%)
 iterations                     ...        0 min,  0.004 sec ( 58.618%)
 molecular gradient             ...        0 min,  0.001 sec ( 20.178%)
 printout                       ...        0 min,  0.000 sec (  3.058%)

         :::::::::::::::::::::::::::::::::::::::::::::::::::::
         ::                     SUMMARY                     ::
         :::::::::::::::::::::::::::::::::::::::::::::::::::::
         :: total energy             -21.540881676388 Eh    ::
         :: gradient norm              0.127646127421 Eh/a0 ::
         :: HOMO-LUMO gap              4.906289885966 eV    ::
         ::.................................................::
         :: SCC energy               -21.714117104102 Eh    ::
         :: -> isotropic ES            0.045862787289 Eh    ::
         :: -> anisotropic ES         -0.000208461711 Eh    ::
         :: -> anisotropic XC         -0.009508390285 Eh    ::
         :: -> dispersion             -0.005943267315 Eh    ::
         :: repulsion energy           0.173226835217 Eh    ::
         :: add. restraining           0.000000000000 Eh    ::
         :::::::::::::::::::::::::::::::::::::::::::::::::::::

      ----------------------------------------------------------- 
     |                   =====================                   |
     |                        A N C O P T                        |
     |                   =====================                   |
     |               Approximate Normal Coordinate               |
     |                Rational Function Optimizer                |
      ----------------------------------------------------------- 

          ...................................................
          :                      SETUP                      :
          :.................................................:
          :   optimization level            normal          :
          :   max. optcycles                   200          :
          :   ANC micro-cycles                  20          :
          :   degrees of freedom                30          :
          :.................................................:
          :   RF solver                   davidson          :
          :   write xtbopt.log                true          :
          :   linear?                        false          :
          :   energy convergence         0.5000000E-05 Eh   :
          :   grad. convergence          0.1000000E-02 Eh/α :
          :   maximium RF displ.         1.0000000          :
          :   Hlow (freq-cutoff)         0.1000000E-01      :
          :   Hmax (freq-cutoff)         5.0000000          :
          :   S6 in model hess.         20.0000000          :
          ...................................................

generating ANC from model Hessian ...
Using Lindh-Hessian (1995)
 Shifting diagonal of input Hessian by   7.232463943971496E-003
 Lowest  eigenvalues of input Hessian
   -0.000000   -0.000000   -0.000000    0.000000    0.000000    0.000000
    0.010000    0.012381    0.019151    0.023265    0.026431    0.041236
    0.057373    0.061801    0.072456    0.076537    0.100146    0.105723
 Highest eigenvalues
    1.184653    1.330423    1.357568    1.628641    1.753836    2.024761
 

........................................................................
.............................. CYCLE    1 ..............................
........................................................................
   1    -21.7141171 -0.217141E+02  0.115E-04    4.91       0.0  T
   2    -21.7141171 -0.284111E-10  0.833E-05    4.91     346.5  T
   3    -21.7141171 -0.756017E-11  0.644E-05    4.91     448.1  T
     SCC iter.                  ...        0 min,  0.001 sec
     gradient                   ...        0 min,  0.001 sec
 * total energy  :   -21.5408817 Eh     change        0.1038294E-07 Eh
   gradient norm :     0.1276462 Eh/α   predicted     0.0000000E+00 (-100.00%)
   displ. norm   :     0.2570548 α      lambda       -0.1936959E-01
   maximum displ.:     0.0998191 α      in ANC's #7, #15, #19, ...

........................................................................
.............................. CYCLE    2 ..............................
........................................................................
   1    -21.7358086 -0.217358E+02  0.422E-01    5.03       0.0  T
   2    -21.7359257 -0.117069E-03  0.259E-01    5.04       1.0  T
   3    -21.7358577  0.679865E-04  0.116E-01    5.05       1.0  T
   4    -21.7359580 -0.100264E-03  0.365E-02    5.04       1.0  T
   5    -21.7359651 -0.709579E-05  0.999E-03    5.04       2.9  T
   6    -21.7359653 -0.182254E-06  0.558E-03    5.04       5.2  T
   7    -21.7359653 -0.675432E-07  0.203E-03    5.04      14.2  T
     SCC iter.                  ...        0 min,  0.002 sec
     gradient                   ...        0 min,  0.001 sec
 * total energy  :   -21.5542535 Eh     change       -0.1337182E-01 Eh
   gradient norm :     0.0516615 Eh/α   predicted    -0.1032475E-01 ( -22.79%)
   displ. norm   :     0.2194867 α      lambda       -0.6374322E-02
   maximum displ.:     0.0762085 α      in ANC's #12, #19, #6, ...

........................................................................
.............................. CYCLE    3 ..............................
........................................................................
   1    -21.7439605 -0.217440E+02  0.370E-01    5.09       0.0  T
   2    -21.7440347 -0.742497E-04  0.228E-01    5.10       1.0  T
   3    -21.7440521 -0.173656E-04  0.430E-02    5.10       1.0  T
   4    -21.7440547 -0.256373E-05  0.153E-02    5.10       1.9  T
   5    -21.7440552 -0.516579E-06  0.919E-03    5.10       3.1  T
   6    -21.7440555 -0.345339E-06  0.562E-03    5.10       5.1  T
   7    -21.7440556 -0.119040E-06  0.191E-03    5.10      15.1  T
     SCC iter.                  ...        0 min,  0.002 sec
     gradient                   ...        0 min,  0.001 sec
 * total energy  :   -21.5579797 Eh     change       -0.3726175E-02 Eh
   gradient norm :     0.0108942 Eh/α   predicted    -0.3340699E-02 ( -10.35%)
   displ. norm   :     0.1380688 α      lambda       -0.6434888E-03
   maximum displ.:     0.0711008 α      in ANC's #2, #4, #5, ...

........................................................................
.............................. CYCLE    4 ..............................
........................................................................
   1    -21.7439060 -0.217439E+02  0.206E-01    5.09       0.0  T
   2    -21.7439136 -0.756657E-05  0.130E-01    5.09       1.0  T
   3    -21.7438996  0.140136E-04  0.432E-02    5.09       1.0  T
   4    -21.7439188 -0.192482E-04  0.907E-03    5.09       3.2  T
   5    -21.7439191 -0.217512E-06  0.473E-03    5.09       6.1  T
   6    -21.7439191 -0.371019E-07  0.173E-03    5.09      16.7  T
   7    -21.7439191 -0.945901E-08  0.686E-04    5.09      42.1  T
     SCC iter.                  ...        0 min,  0.002 sec
     gradient                   ...        0 min,  0.001 sec
 * total energy  :   -21.5584695 Eh     change       -0.4898626E-03 Eh
   gradient norm :     0.0102412 Eh/α   predicted    -0.3278806E-03 ( -33.07%)
   displ. norm   :     0.2853624 α      lambda       -0.8372483E-03
   maximum displ.:     0.1554169 α      in ANC's #2, #5, #4, ...

........................................................................
.............................. CYCLE    5 ..............................
........................................................................
   1    -21.7424857 -0.217425E+02  0.402E-01    5.07       0.0  T
   2    -21.7425063 -0.205550E-04  0.252E-01    5.08       1.0  T
   3    -21.7424481  0.581605E-04  0.834E-02    5.07       1.0  T
   4    -21.7425222 -0.741467E-04  0.149E-02    5.07       1.9  T
   5    -21.7425227 -0.409208E-06  0.820E-03    5.07       3.5  T
   6    -21.7425227 -0.758252E-07  0.172E-03    5.07      16.8  T
   7    -21.7425227 -0.812069E-08  0.100E-03    5.07      28.9  T
     SCC iter.                  ...        0 min,  0.092 sec
     gradient                   ...        0 min,  0.001 sec
 * total energy  :   -21.5590369 Eh     change       -0.5673751E-03 Eh
   gradient norm :     0.0147381 Eh/α   predicted    -0.4527107E-03 ( -20.21%)
   displ. norm   :     0.2305387 α      lambda       -0.5391010E-03
   maximum displ.:     0.1176736 α      in ANC's #2, #1, #5, ...

........................................................................
.............................. CYCLE    6 ..............................
........................................................................
   1    -21.7419843 -0.217420E+02  0.295E-01    5.06       0.0  T
   2    -21.7419938 -0.950697E-05  0.184E-01    5.06       1.0  T
   3    -21.7419800  0.138671E-04  0.430E-02    5.06       1.0  T
   4    -21.7419993 -0.193560E-04  0.108E-02    5.06       2.7  T
   5    -21.7419997 -0.348881E-06  0.552E-03    5.06       5.2  T
   6    -21.7419997 -0.142933E-07  0.855E-04    5.06      33.8  T
   7    -21.7419997 -0.127428E-08  0.335E-04    5.06      86.1  T
     SCC iter.                  ...        0 min,  0.196 sec
     gradient                   ...        0 min,  0.001 sec
 * total energy  :   -21.5594353 Eh     change       -0.3984476E-03 Eh
   gradient norm :     0.0173626 Eh/α   predicted    -0.2838751E-03 ( -28.75%)
   displ. norm   :     0.2627167 α      lambda       -0.7931915E-03
   maximum displ.:     0.1676362 α      in ANC's #1, #2, #5, ...

........................................................................
.............................. CYCLE    7 ..............................
........................................................................
   1    -21.7437637 -0.217438E+02  0.295E-01    5.06       0.0  T
   2    -21.7437746 -0.109479E-04  0.184E-01    5.05       1.0  T
   3    -21.7437789 -0.428049E-05  0.176E-02    5.05       1.6  T
   4    -21.7437797 -0.760684E-06  0.117E-02    5.05       2.5  T
   5    -21.7437802 -0.589669E-06  0.605E-03    5.05       4.8  T
   6    -21.7437803 -0.748065E-07  0.107E-03    5.05      27.1  T
   7    -21.7437803 -0.227329E-08  0.326E-04    5.05      88.6  T
     SCC iter.                  ...        0 min,  0.002 sec
     gradient                   ...        0 min,  0.001 sec
 * total energy  :   -21.5600008 Eh     change       -0.5654901E-03 Eh
   gradient norm :     0.0126611 Eh/α   predicted    -0.4239652E-03 ( -25.03%)
   displ. norm   :     0.3298502 α      lambda       -0.5616327E-03
   maximum displ.:     0.2087284 α      in ANC's #2, #1, #5, ...

........................................................................
.............................. CYCLE    8 ..............................
........................................................................
   1    -21.7442696 -0.217443E+02  0.355E-01    5.04       0.0  T
   2    -21.7442845 -0.149819E-04  0.222E-01    5.04       1.0  T
   3    -21.7442810  0.356598E-05  0.389E-02    5.04       1.0  T
   4    -21.7442938 -0.128040E-04  0.144E-02    5.03       2.0  T
   5    -21.7442943 -0.522501E-06  0.670E-03    5.04       4.3  T
   6    -21.7442944 -0.609360E-07  0.111E-03    5.04      26.0  T
   7    -21.7442944 -0.252198E-08  0.539E-04    5.04      53.6  T
     SCC iter.                  ...        0 min,  0.003 sec
     gradient                   ...        0 min,  0.001 sec
 * total energy  :   -21.5604456 Eh     change       -0.4447250E-03 Eh
   gradient norm :     0.0135979 Eh/α   predicted    -0.3113689E-03 ( -29.99%)
   displ. norm   :     0.4035252 α      lambda       -0.7428679E-03
   maximum displ.:     0.2742688 α      in ANC's #1, #2, #5, ...

........................................................................
.............................. CYCLE    9 ..............................
........................................................................
   1    -21.7461871 -0.217462E+02  0.377E-01    5.03       0.0  T
   2    -21.7462038 -0.167104E-04  0.233E-01    5.02       1.0  T
   3    -21.7461339  0.698932E-04  0.923E-02    5.03       1.0  T
   4    -21.7462204 -0.864838E-04  0.156E-02    5.03       1.8  T
   5    -21.7462206 -0.173343E-06  0.534E-03    5.03       5.4  T
   6    -21.7462206 -0.181288E-07  0.122E-03    5.03      23.6  T
   7    -21.7462206 -0.246195E-08  0.356E-04    5.03      81.2  T
     SCC iter.                  ...        0 min,  0.003 sec
     gradient                   ...        0 min,  0.091 sec
 * total energy  :   -21.5610029 Eh     change       -0.5572896E-03 Eh
   gradient norm :     0.0097250 Eh/α   predicted    -0.4319271E-03 ( -22.50%)
   displ. norm   :     0.6674870 α      lambda       -0.8735333E-03
   maximum displ.:     0.4148658 α      in ANC's #1, #2, #5, ...

........................................................................
.............................. CYCLE   10 ..............................
........................................................................
   1    -21.7393274 -0.217393E+02  0.659E-01    4.99       0.0  T
   2    -21.7393666 -0.391272E-04  0.404E-01    4.98       1.0  T
   3    -21.7392329  0.133623E-03  0.125E-01    5.00       1.0  T
   4    -21.7393942 -0.161270E-03  0.213E-02    4.98       1.4  T
   5    -21.7393952 -0.103388E-05  0.981E-03    4.98       2.9  T
   6    -21.7393953 -0.346941E-07  0.153E-03    4.98      18.8  T
   7    -21.7393953 -0.370668E-08  0.597E-04    4.98      48.4  T
     SCC iter.                  ...        0 min,  0.004 sec
     gradient                   ...        0 min,  0.002 sec
 * total energy  :   -21.5608867 Eh     change        0.1161935E-03 Eh
   gradient norm :     0.0361787 Eh/α   predicted    -0.6313900E-03 (-643.40%)
   displ. norm   :     0.1254661 α      lambda       -0.1744159E-02
   maximum displ.:     0.0695931 α      in ANC's #5, #3, #4, ...

........................................................................
.............................. CYCLE   11 ..............................
........................................................................
   1    -21.7466503 -0.217467E+02  0.184E-01    5.03       0.0  T
   2    -21.7466677 -0.173864E-04  0.109E-01    5.03       1.0  T
   3    -21.7466556  0.120901E-04  0.471E-02    5.03       1.0  T
   4    -21.7466727 -0.171431E-04  0.149E-02    5.03       1.9  T
   5    -21.7466738 -0.108110E-05  0.500E-03    5.03       5.8  T
   6    -21.7466738 -0.335283E-07  0.211E-03    5.03      13.7  T
     SCC iter.                  ...        0 min,  0.004 sec
     gradient                   ...        0 min,  0.002 sec
 * total energy  :   -21.5617213 Eh     change       -0.8346810E-03 Eh
   gradient norm :     0.0057565 Eh/α   predicted    -0.8858092E-03 (   6.13%)
   displ. norm   :     0.2797660 α      lambda       -0.3518525E-03
   maximum displ.:     0.2080562 α      in ANC's #1, #2, #3, ...

........................................................................
.............................. CYCLE   12 ..............................
........................................................................
   1    -21.7462645 -0.217463E+02  0.261E-01    5.03       0.0  T
   2    -21.7462707 -0.620494E-05  0.160E-01    5.03       1.0  T
   3    -21.7462352  0.355758E-04  0.636E-02    5.04       1.0  T
   4    -21.7462774 -0.421985E-04  0.877E-03    5.03       3.3  T
   5    -21.7462774 -0.619534E-07  0.348E-03    5.03       8.3  T
   6    -21.7462774 -0.806175E-08  0.836E-04    5.03      34.5  T
   7    -21.7462774 -0.179542E-08  0.390E-04    5.03      74.0  T
     SCC iter.                  ...        0 min,  0.094 sec
     gradient                   ...        0 min,  0.002 sec
 * total energy  :   -21.5620211 Eh     change       -0.2997313E-03 Eh
   gradient norm :     0.0072915 Eh/α   predicted    -0.1896943E-03 ( -36.71%)
   displ. norm   :     0.6855519 α      lambda       -0.7272942E-03
   maximum displ.:     0.4930665 α      in ANC's #1, #2, #5, ...

........................................................................
.............................. CYCLE   13 ..............................
........................................................................
   1    -21.7414988 -0.217415E+02  0.622E-01    4.99       0.0  T
   2    -21.7415298 -0.310312E-04  0.380E-01    4.99       1.0  T
   3    -21.7414113  0.118490E-03  0.117E-01    5.00       1.0  T
   4    -21.7415556 -0.144230E-03  0.202E-02    4.99       1.4  T
   5    -21.7415561 -0.511286E-06  0.820E-03    4.99       3.5  T
   6    -21.7415561 -0.320603E-07  0.130E-03    4.99      22.2  T
   7    -21.7415561 -0.316977E-08  0.561E-04    4.99      51.5  T
     SCC iter.                  ...        0 min,  0.004 sec
     gradient                   ...        0 min,  0.091 sec
 * total energy  :   -21.5623104 Eh     change       -0.2893502E-03 Eh
   gradient norm :     0.0221847 Eh/α   predicted    -0.5345599E-03 (  84.74%)
   displ. norm   :     0.0910679 α      lambda       -0.6055833E-03
   maximum displ.:     0.0604361 α      in ANC's #2, #4, #7, ...

........................................................................
.............................. CYCLE   14 ..............................
........................................................................
   1    -21.7472063 -0.217472E+02  0.128E-01    5.05       0.0  T
   2    -21.7472096 -0.332018E-05  0.801E-02    5.05       1.0  T
   3    -21.7472100 -0.440026E-06  0.116E-02    5.05       2.5  T
   4    -21.7472106 -0.563622E-06  0.653E-03    5.05       4.4  T
   5    -21.7472109 -0.347007E-06  0.221E-03    5.05      13.1  T
   6    -21.7472109 -0.464253E-08  0.557E-04    5.05      51.8  T
     SCC iter.                  ...        0 min,  0.004 sec
     gradient                   ...        0 min,  0.002 sec
 * total energy  :   -21.5626650 Eh     change       -0.3545772E-03 Eh
   gradient norm :     0.0127012 Eh/α   predicted    -0.3053016E-03 ( -13.90%)
   displ. norm   :     0.3164078 α      lambda       -0.4163357E-03
   maximum displ.:     0.2663286 α      in ANC's #1, #2, #4, ...

........................................................................
.............................. CYCLE   15 ..............................
........................................................................
   1    -21.7477361 -0.217477E+02  0.283E-01    5.04       0.0  T
   2    -21.7477440 -0.790611E-05  0.173E-01    5.04       1.0  T
   3    -21.7477444 -0.343597E-06  0.243E-02    5.04       1.2  T
   4    -21.7477485 -0.412184E-05  0.115E-02    5.04       2.5  T
   5    -21.7477489 -0.369645E-06  0.375E-03    5.04       7.7  T
   6    -21.7477489 -0.176935E-07  0.112E-03    5.04      25.7  T
   7    -21.7477489 -0.206160E-08  0.366E-04    5.04      78.8  T
     SCC iter.                  ...        0 min,  0.006 sec
     gradient                   ...        0 min,  0.002 sec
 * total energy  :   -21.5629595 Eh     change       -0.2944792E-03 Eh
   gradient norm :     0.0102695 Eh/α   predicted    -0.2290041E-03 ( -22.23%)
   displ. norm   :     0.4025123 α      lambda       -0.4532476E-03
   maximum displ.:     0.3284467 α      in ANC's #1, #2, #4, ...

........................................................................
.............................. CYCLE   16 ..............................
........................................................................
   1    -21.7473877 -0.217474E+02  0.387E-01    5.03       0.0  T
   2    -21.7474018 -0.141191E-04  0.237E-01    5.02       1.0  T
   3    -21.7473235  0.783534E-04  0.959E-02    5.03       1.0  T
   4    -21.7474177 -0.942092E-04  0.135E-02    5.02       2.1  T
   5    -21.7474178 -0.128232E-06  0.441E-03    5.02       6.5  T
   6    -21.7474178 -0.217038E-07  0.140E-03    5.02      20.5  T
   7    -21.7474178 -0.444939E-08  0.569E-04    5.02      50.7  T
     SCC iter.                  ...        0 min,  0.004 sec
     gradient                   ...        0 min,  0.002 sec
 * total energy  :   -21.5631734 Eh     change       -0.2139226E-03 Eh
   gradient norm :     0.0112906 Eh/α   predicted    -0.2633359E-03 (  23.10%)
   displ. norm   :     0.1148982 α      lambda       -0.3896487E-03
   maximum displ.:     0.0883422 α      in ANC's #2, #8, #9, ...

........................................................................
.............................. CYCLE   17 ..............................
........................................................................
   1    -21.7508269 -0.217508E+02  0.151E-01    5.04       0.0  T
   2    -21.7508342 -0.731603E-05  0.928E-02    5.03       1.0  T
   3    -21.7508151  0.191339E-04  0.556E-02    5.04       1.0  T
   4    -21.7508399 -0.248044E-04  0.715E-03    5.04       4.0  T
   5    -21.7508400 -0.181162E-06  0.293E-03    5.04       9.8  T
   6    -21.7508401 -0.439743E-08  0.126E-03    5.04      22.9  T
     SCC iter.                  ...        0 min,  0.093 sec
     gradient                   ...        0 min,  0.002 sec
 * total energy  :   -21.5633871 Eh     change       -0.2137471E-03 Eh
   gradient norm :     0.0077088 Eh/α   predicted    -0.1973969E-03 (  -7.65%)
   displ. norm   :     0.2173440 α      lambda       -0.3647337E-03
   maximum displ.:     0.1679423 α      in ANC's #1, #2, #4, ...

........................................................................
.............................. CYCLE   18 ..............................
........................................................................
   1    -21.7496508 -0.217497E+02  0.286E-01    5.04       0.0  T
   2    -21.7496589 -0.816185E-05  0.177E-01    5.04       1.0  T
   3    -21.7496538  0.512252E-05  0.335E-02    5.04       1.0  T
   4    -21.7496645 -0.107214E-04  0.102E-02    5.04       2.8  T
   5    -21.7496647 -0.129556E-06  0.374E-03    5.04       7.7  T
   6    -21.7496647 -0.814556E-08  0.791E-04    5.04      36.5  T
   7    -21.7496647 -0.163561E-08  0.312E-04    5.04      92.6  T
     SCC iter.                  ...        0 min,  0.093 sec
     gradient                   ...        0 min,  0.002 sec
 * total energy  :   -21.5636408 Eh     change       -0.2536242E-03 Eh
   gradient norm :     0.0097525 Eh/α   predicted    -0.1909851E-03 ( -24.70%)
   displ. norm   :     0.3458256 α      lambda       -0.6141102E-03
   maximum displ.:     0.2163614 α      in ANC's #1, #2, #4, ...

........................................................................
.............................. CYCLE   19 ..............................
........................................................................
   1    -21.7469532 -0.217470E+02  0.501E-01    4.98       0.0  T
   2    -21.7469852 -0.319864E-04  0.315E-01    4.98       1.0  T
   3    -21.7470046 -0.193561E-04  0.260E-02    4.98       1.1  T
   4    -21.7470054 -0.807078E-06  0.174E-02    4.98       1.7  T
   5    -21.7470063 -0.885899E-06  0.767E-03    4.98       3.8  T
   6    -21.7470065 -0.251030E-06  0.120E-03    4.98      24.1  T
   7    -21.7470065 -0.417709E-08  0.673E-04    4.98      42.9  T
     SCC iter.                  ...        0 min,  0.003 sec
     gradient                   ...        0 min,  0.092 sec
 * total energy  :   -21.5640503 Eh     change       -0.4094818E-03 Eh
   gradient norm :     0.0077669 Eh/α   predicted    -0.3437774E-03 ( -16.05%)
   displ. norm   :     0.2173034 α      lambda       -0.3899495E-03
   maximum displ.:     0.1600172 α      in ANC's #2, #4, #1, ...

........................................................................
.............................. CYCLE   20 ..............................
........................................................................
   1    -21.7473186 -0.217473E+02  0.366E-01    4.97       0.0  T
   2    -21.7473383 -0.196713E-04  0.233E-01    4.97       1.0  T
   3    -21.7473436 -0.532353E-05  0.314E-02    4.97       1.0  T
   4    -21.7473517 -0.814186E-05  0.123E-02    4.97       2.3  T
   5    -21.7473520 -0.266901E-06  0.507E-03    4.97       5.7  T
   6    -21.7473520 -0.440761E-07  0.107E-03    4.97      26.9  T
   7    -21.7473521 -0.292723E-08  0.611E-04    4.97      47.2  T
     SCC iter.                  ...        0 min,  0.004 sec
     gradient                   ...        0 min,  0.002 sec
 * total energy  :   -21.5642442 Eh     change       -0.1939525E-03 Eh
   gradient norm :     0.0097324 Eh/α   predicted    -0.2041807E-03 (   5.27%)
   displ. norm   :     0.0532505 α      lambda       -0.1321923E-03
   maximum displ.:     0.0261707 α      in ANC's #1, #3, #4, ...
 * RMSD in coord.:     1.1185032 α      energy gain  -0.2336253E-01 Eh

generating ANC from model Hessian ...
Using Lindh-Hessian (1995)
 Shifting diagonal of input Hessian by   5.866188665610453E-003
 Lowest  eigenvalues of input Hessian
   -0.000000   -0.000000   -0.000000    0.000000    0.000000    0.000000
    0.010000    0.014321    0.018999    0.022411    0.028090    0.041310
    0.046407    0.058179    0.073417    0.081015    0.099016    0.101866
 Highest eigenvalues
    1.208314    1.267949    1.313200    1.450753    1.725937    2.088496
 

........................................................................
.............................. CYCLE   21 ..............................
........................................................................
   1    -21.7485571 -0.217486E+02  0.915E-02    4.98       0.0  T
   2    -21.7485588 -0.171101E-05  0.579E-02    4.98       1.0  T
   3    -21.7485589 -0.866178E-07  0.960E-03    4.97       3.0  T
   4    -21.7485595 -0.660908E-06  0.449E-03    4.98       6.4  T
   5    -21.7485597 -0.133441E-06  0.154E-03    4.98      18.8  T
   6    -21.7485597 -0.182402E-08  0.494E-04    4.98      58.4  T
   7    -21.7485597 -0.316334E-09  0.176E-04    4.98     164.0  T
     SCC iter.                  ...        0 min,  0.004 sec
     gradient                   ...        0 min,  0.002 sec
 * total energy  :   -21.5643371 Eh     change       -0.9292164E-04 Eh
   gradient norm :     0.0067291 Eh/α   predicted     0.0000000E+00 (-100.00%)
   displ. norm   :     0.0711498 α      lambda       -0.1811198E-03
   maximum displ.:     0.0414004 α      in ANC's #5, #3, #2, ...

........................................................................
.............................. CYCLE   22 ..............................
........................................................................
   1    -21.7491259 -0.217491E+02  0.183E-01    4.99       0.0  T
   2    -21.7491314 -0.553071E-05  0.117E-01    4.99       1.0  T
   3    -21.7491269  0.453815E-05  0.289E-02    5.00       1.0  T
   4    -21.7491357 -0.881621E-05  0.517E-03    4.99       5.6  T
   5    -21.7491357 -0.174051E-07  0.144E-03    4.99      20.0  T
   6    -21.7491357 -0.413007E-09  0.376E-04    4.99      76.8  T
     SCC iter.                  ...        0 min,  0.004 sec
     gradient                   ...        0 min,  0.002 sec
 * total energy  :   -21.5644823 Eh     change       -0.1451777E-03 Eh
   gradient norm :     0.0038136 Eh/α   predicted    -0.9101733E-04 ( -37.31%)
   displ. norm   :     0.1526597 α      lambda       -0.2418369E-03
   maximum displ.:     0.0975736 α      in ANC's #5, #4, #3, ...

........................................................................
.............................. CYCLE   23 ..............................
........................................................................
   1    -21.7483922 -0.217484E+02  0.408E-01    5.00       0.0  T
   2    -21.7484179 -0.257219E-04  0.261E-01    5.00       1.0  T
   3    -21.7484195 -0.158386E-05  0.412E-02    5.00       1.0  T
   4    -21.7484360 -0.165579E-04  0.119E-02    5.00       2.4  T
   5    -21.7484362 -0.221097E-06  0.429E-03    5.00       6.7  T
   6    -21.7484362 -0.398259E-08  0.728E-04    5.00      39.7  T
   7    -21.7484362 -0.617703E-09  0.265E-04    5.00     109.0  T
     SCC iter.                  ...        0 min,  0.094 sec
     gradient                   ...        0 min,  0.002 sec
 * total energy  :   -21.5646071 Eh     change       -0.1248391E-03 Eh
   gradient norm :     0.0091099 Eh/α   predicted    -0.1237357E-03 (  -0.88%)
   displ. norm   :     0.0295179 α      lambda       -0.7153449E-04
   maximum displ.:     0.0204290 α      in ANC's #1, #2, #3, ...

........................................................................
.............................. CYCLE   24 ..............................
........................................................................
   1    -21.7490557 -0.217491E+02  0.466E-02    5.00       0.0  T
   2    -21.7490562 -0.465533E-06  0.291E-02    5.00       1.0  T
   3    -21.7490561  0.133261E-06  0.680E-03    5.00       4.2  T
   4    -21.7490564 -0.369829E-06  0.251E-03    5.00      11.5  T
   5    -21.7490565 -0.242830E-07  0.967E-04    5.00      29.8  T
     SCC iter.                  ...        0 min,  0.002 sec
     gradient                   ...        0 min,  0.092 sec
 * total energy  :   -21.5646612 Eh     change       -0.5401399E-04 Eh
   gradient norm :     0.0041438 Eh/α   predicted    -0.3579622E-04 ( -33.73%)
   displ. norm   :     0.1186525 α      lambda       -0.1038262E-03
   maximum displ.:     0.0629621 α      in ANC's #2, #5, #1, ...

........................................................................
.............................. CYCLE   25 ..............................
........................................................................
   1    -21.7491293 -0.217491E+02  0.273E-01    4.99       0.0  T
   2    -21.7491392 -0.991757E-05  0.174E-01    4.99       1.0  T
   3    -21.7491439 -0.472643E-05  0.178E-02    4.99       1.6  T
   4    -21.7491462 -0.225917E-05  0.827E-03    4.99       3.5  T
   5    -21.7491463 -0.121238E-06  0.145E-03    4.99      19.9  T
   6    -21.7491463 -0.257689E-08  0.414E-04    4.99      69.7  T
     SCC iter.                  ...        0 min,  0.004 sec
     gradient                   ...        0 min,  0.002 sec
 * total energy  :   -21.5647357 Eh     change       -0.7455230E-04 Eh
   gradient norm :     0.0031269 Eh/α   predicted    -0.5264560E-04 ( -29.38%)
   displ. norm   :     0.1233743 α      lambda       -0.6933187E-04
   maximum displ.:     0.0772124 α      in ANC's #2, #1, #5, ...

........................................................................
.............................. CYCLE   26 ..............................
........................................................................
   1    -21.7489080 -0.217489E+02  0.250E-01    4.98       0.0  T
   2    -21.7489157 -0.766967E-05  0.159E-01    4.99       1.0  T
   3    -21.7489193 -0.359663E-05  0.162E-02    4.98       1.8  T
   4    -21.7489210 -0.170151E-05  0.824E-03    4.99       3.5  T
   5    -21.7489211 -0.143818E-06  0.162E-03    4.98      17.8  T
   6    -21.7489211 -0.318863E-08  0.404E-04    4.98      71.4  T
   7    -21.7489211 -0.295163E-09  0.120E-04    4.98     239.6  T
     SCC iter.                  ...        0 min,  0.004 sec
     gradient                   ...        0 min,  0.002 sec
 * total energy  :   -21.5647849 Eh     change       -0.4914434E-04 Eh
   gradient norm :     0.0043359 Eh/α   predicted    -0.3519404E-04 ( -28.39%)
   displ. norm   :     0.1347090 α      lambda       -0.7388760E-04
   maximum displ.:     0.0994285 α      in ANC's #2, #1, #5, ...

........................................................................
.............................. CYCLE   27 ..............................
........................................................................
   1    -21.7490531 -0.217491E+02  0.205E-01    4.98       0.0  T
   2    -21.7490578 -0.465877E-05  0.129E-01    4.98       1.0  T
   3    -21.7490599 -0.212438E-05  0.133E-02    4.98       2.2  T
   4    -21.7490608 -0.887372E-06  0.777E-03    4.98       3.7  T
   5    -21.7490610 -0.174980E-06  0.205E-03    4.98      14.1  T
   6    -21.7490610 -0.534568E-08  0.465E-04    4.98      62.1  T
     SCC iter.                  ...        0 min,  0.093 sec
     gradient                   ...        0 min,  0.002 sec
 * total energy  :   -21.5648325 Eh     change       -0.4763532E-04 Eh
   gradient norm :     0.0028231 Eh/α   predicted    -0.3761283E-04 ( -21.04%)
   displ. norm   :     0.1823106 α      lambda       -0.5643752E-04
   maximum displ.:     0.1437794 α      in ANC's #2, #5, #1, ...

........................................................................
.............................. CYCLE   28 ..............................
........................................................................
   1    -21.7475701 -0.217476E+02  0.321E-01    4.98       0.0  T
   2    -21.7475827 -0.126842E-04  0.202E-01    4.98       1.0  T
   3    -21.7475906 -0.785294E-05  0.152E-02    4.98       1.9  T
   4    -21.7475905  0.861309E-07  0.910E-03    4.98       3.2  T
   5    -21.7475908 -0.301081E-06  0.439E-03    4.98       6.6  T
   6    -21.7475909 -0.740521E-07  0.790E-04    4.98      36.6  T
   7    -21.7475909 -0.189809E-08  0.253E-04    4.98     113.9  T
     SCC iter.                  ...        0 min,  0.004 sec
     gradient                   ...        0 min,  0.092 sec
 * total energy  :   -21.5648280 Eh     change        0.4446938E-05 Eh
   gradient norm :     0.0085982 Eh/α   predicted    -0.2915457E-04 (-755.61%)
   displ. norm   :     0.0445100 α      lambda       -0.1080511E-03
   maximum displ.:     0.0312903 α      in ANC's #5, #1, #4, ...

........................................................................
.............................. CYCLE   29 ..............................
........................................................................
   1    -21.7490724 -0.217491E+02  0.120E-01    4.99       0.0  T
   2    -21.7490755 -0.309303E-05  0.759E-02    4.99       1.0  T
   3    -21.7490693  0.617235E-05  0.295E-02    4.99       1.0  T
   4    -21.7490774 -0.809194E-05  0.515E-03    4.99       5.6  T
   5    -21.7490775 -0.904489E-07  0.194E-03    4.99      14.9  T
   6    -21.7490775 -0.204733E-08  0.505E-04    4.99      57.2  T
     SCC iter.                  ...        0 min,  0.003 sec
     gradient                   ...        0 min,  0.002 sec
 * total energy  :   -21.5648732 Eh     change       -0.4517693E-04 Eh
   gradient norm :     0.0013318 Eh/α   predicted    -0.5413214E-04 (  19.82%)
   displ. norm   :     0.0769292 α      lambda       -0.8842104E-05
   maximum displ.:     0.0631699 α      in ANC's #2, #1, #4, ...

........................................................................
.............................. CYCLE   30 ..............................
........................................................................
   1    -21.7488880 -0.217489E+02  0.116E-01    4.99       0.0  T
   2    -21.7488895 -0.148159E-05  0.729E-02    4.99       1.0  T
   3    -21.7488904 -0.937206E-06  0.556E-03    4.99       5.2  T
   4    -21.7488904  0.227814E-07  0.332E-03    4.99       8.7  T
   5    -21.7488904 -0.513750E-07  0.139E-03    4.99      20.8  T
   6    -21.7488904 -0.755539E-08  0.249E-04    4.99     115.8  T
   7    -21.7488904 -0.161837E-09  0.844E-05    4.99     342.0  T
     SCC iter.                  ...        0 min,  0.005 sec
     gradient                   ...        0 min,  0.002 sec
 * total energy  :   -21.5648818 Eh     change       -0.8608804E-05 Eh
   gradient norm :     0.0011178 Eh/α   predicted    -0.4432265E-05 ( -48.51%)
   displ. norm   :     0.0497668 α      lambda       -0.3264582E-05
   maximum displ.:     0.0417925 α      in ANC's #2, #4, #1, ...

........................................................................
.............................. CYCLE   31 ..............................
........................................................................
   1    -21.7489267 -0.217489E+02  0.690E-02    4.99       0.0  T
   2    -21.7489271 -0.426951E-06  0.428E-02    4.99       1.0  T
   3    -21.7489271  0.156117E-07  0.601E-03    4.99       4.8  T
   4    -21.7489274 -0.296362E-06  0.247E-03    4.99      11.7  T
   5    -21.7489274 -0.102737E-07  0.649E-04    4.99      44.5  T
   6    -21.7489274 -0.346063E-09  0.970E-05    4.99     297.7  T
     SCC iter.                  ...        0 min,  0.093 sec
     gradient                   ...        0 min,  0.002 sec
 * total energy  :   -21.5648847 Eh     change       -0.2841366E-05 Eh
   gradient norm :     0.0010353 Eh/α   predicted    -0.1635719E-05 ( -42.43%)
   displ. norm   :     0.0155054 α      lambda       -0.1722231E-05
   maximum displ.:     0.0100632 α      in ANC's #2, #4, #7, ...

........................................................................
.............................. CYCLE   32 ..............................
........................................................................
   1    -21.7491012 -0.217491E+02  0.223E-02    4.99       0.0  T
   2    -21.7491012 -0.379307E-07  0.137E-02    4.99       2.1  T
   3    -21.7491013 -0.131809E-07  0.131E-03    4.99      22.0  T
   4    -21.7491013 -0.842748E-08  0.759E-04    4.99      38.0  T
   5    -21.7491013 -0.191050E-08  0.219E-04    4.99     131.6  T
     SCC iter.                  ...        0 min,  0.002 sec
     gradient                   ...        0 min,  0.001 sec
 * total energy  :   -21.5648860 Eh     change       -0.1330706E-05 Eh
   gradient norm :     0.0003450 Eh/α   predicted    -0.8613619E-06 ( -35.27%)
   displ. norm   :     0.0105616 α      lambda       -0.9347431E-06
   maximum displ.:     0.0080554 α      in ANC's #1, #4, #2, ...

   *** GEOMETRY OPTIMIZATION CONVERGED AFTER 32 ITERATIONS ***

------------------------------------------------------------------------
 total energy gain   :        -0.0240043 Eh      -15.0629 kcal/mol
 total RMSD          :         1.2925396 a0        0.6840 Å
 total power (kW/mol):        -1.9694798 (step)  -24.3060 (real)
------------------------------------------------------------------------

 ANCopt (total)                0 d,  0 h,  0 min,  2.593 sec
 optimizer setup                ...        0 min,  0.000 sec (  0.016%)
 model hessian                  ...        0 min,  0.181 sec (  6.970%)
 ANC generation                 ...        0 min,  0.001 sec (  0.052%)
 coordinate transformation      ...        0 min,  0.001 sec (  0.048%)
 single point calculation       ...        0 min,  2.302 sec ( 88.781%)
 optimization log               ...        0 min,  0.003 sec (  0.108%)
 hessian update                 ...        0 min,  0.096 sec (  3.708%)
 rational function              ...        0 min,  0.003 sec (  0.101%)

================
 final structure:
================
12
 xtb: 6.2.3 (830e466)
C         1.30700600849450    1.29889128600766   -2.61171637588274
C         0.64149889536892    0.11699610360750   -1.95202597639557
C         0.73460218367352   -0.18967020414225   -0.66056325760450
O         0.76996739765594    2.56618563733699   -2.27814478096350
O         1.29303806773479    2.99648863368462   -1.01510173170415
O         1.38573304356464    0.49382912708279    0.29460755157995
H         0.71555220071906    3.73851941452757   -0.79633343039591
H         2.38755866272196    1.31204616342308   -2.40993999777937
H         1.15436800224865    1.25508145775784   -3.69185277858859
H         0.26142124954964   -1.07667012408171   -0.26119731771395
H         0.05261147749912   -0.51928173342930   -2.59004583450605
H         1.68564281076918    1.34718423822482   -0.06348607004579
 
 Bond Distances (Angstroems)
 ---------------------------
C1-C2=1.5083         C1-O4=1.4162         C1-H8=1.0993         C1-H9=1.0917         C2-C1=1.5083         C2-C3=1.3306         
C2-H11=1.0764        C3-C2=1.3306         C3-O6=1.3429         C3-H10=1.0817        O4-C1=1.4162         O4-O5=1.4332         
O5-O4=1.4332         O5-H7=0.9654         O6-C3=1.3429         O6-H12=0.9728        H7-O5=0.9654         H8-C1=1.0993         
H9-C1=1.0917         H10-C3=1.0817        H11-C2=1.0764        H12-O6=0.9728        
 C  H  Rav=1.0873 sigma=0.0088  Rmin=1.0764  Rmax=1.0993     4
 C  C  Rav=1.4195 sigma=0.0888  Rmin=1.3306  Rmax=1.5083     2
 O  H  Rav=0.9691 sigma=0.0037  Rmin=0.9654  Rmax=0.9728     2
 O  C  Rav=1.3796 sigma=0.0366  Rmin=1.3429  Rmax=1.4162     2
 O  O  Rav=1.4332 sigma=0.0000  Rmin=1.4332  Rmax=1.4332     1
 
 selected bond angles (degree)
 --------------------
O4-C1-C2=115.52                H8-C1-C2=111.27                H8-C1-O4=108.59                H9-C1-C2=109.85                
H9-C1-O4=102.47                H9-C1-H8=108.63                C3-C2-C1=125.04                H11-C2-C1=116.44               
H11-C2-C3=118.51               O6-C3-C2=127.37                H10-C3-C2=121.11               H10-C3-O6=111.52               
O5-O4-C1=109.75                H7-O5-O4=102.25                H12-O6-C3=109.52               
 
 selected dihedral angles (degree)
 ---------------------------------
C3-C2-C1-O4=289.22            C3-C2-C1-H8= 53.62            C3-C2-C1-H9=173.96            H11-C2-C1-O4=109.46           
H11-C2-C1-H8=233.86           H11-C2-C1-H9=354.20           O6-C3-C2-C1=  2.20            O6-C3-C2-H11=181.96           
H10-C3-C2-C1=182.44           H10-C3-C2-H11=  2.20          O5-O4-C1-C2= 80.87            O5-O4-C1-H8=315.09            
O5-O4-C1-H9=200.28            H7-O5-O4-C1=192.96            H12-O6-C3-C2=  8.60           H12-O6-C3-H10=188.38          
           -------------------------------------------------
          |                Final Singlepoint                |
           -------------------------------------------------

          ...................................................
          :                      SETUP                      :
          :.................................................:
          :  # basis functions                  30          :
          :  # atomic orbitals                  30          :
          :  # shells                           18          :
          :  # electrons                        36          :
          :  max. iterations                   100          :
          :  Hamiltonian                  GFN2-xTB          :
          :  restarted?                      false          :
          :  GBSA solvation                  false          :
          :  PC potential                    false          :
          :  electronic temp.          300.0000000     K    :
          :  accuracy                    1.0000000          :
          :  -> integral cutoff          0.2500000E+02      :
          :  -> integral neglect         0.1000000E-07      :
          :  -> SCF convergence          0.1000000E-05 Eh   :
          :  -> wf. convergence          0.1000000E-03 e    :
          :  Broyden damping             0.4000000          :
          ...................................................

 iter      E             dE          RMSdq      gap      omega  full diag
   1    -21.7491013 -0.217491E+02  0.458E-05    4.99       0.0  T
   2    -21.7491013 -0.506262E-11  0.221E-05    4.99    1307.4  T
   3    -21.7491013 -0.142109E-13  0.173E-05    4.99    1667.6  T

   *** convergence criteria satisfied after 3 iterations ***

         #    Occupation            Energy/Eh            Energy/eV
      -------------------------------------------------------------
         1        2.0000           -0.7334914             -19.9593
       ...           ...                  ...                  ...
        12        2.0000           -0.5144026             -13.9976
        13        2.0000           -0.5132608             -13.9665
        14        2.0000           -0.4901494             -13.3376
        15        2.0000           -0.4650270             -12.6540
        16        2.0000           -0.4529970             -12.3267
        17        2.0000           -0.4172185             -11.3531
        18        2.0000           -0.3844160             -10.4605 (HOMO)
        19                         -0.2010319              -5.4704 (LUMO)
        20                         -0.1659776              -4.5165
        21                          0.0538311               1.4648
        22                          0.0752487               2.0476
        23                          0.1022315               2.7819
       ...                                ...                  ...
        30                          0.6161020              16.7650
      -------------------------------------------------------------
                  HL-Gap            0.1833841 Eh            4.9901 eV
             Fermi-level           -0.2927239 Eh           -7.9654 eV

 SCC (total)                   0 d,  0 h,  0 min,  0.094 sec
 SCC setup                      ...        0 min,  0.000 sec (  0.109%)
 Dispersion                     ...        0 min,  0.000 sec (  0.043%)
 integral evaluation            ...        0 min,  0.000 sec (  0.518%)
 zeroth order Hamiltonian       ...        0 min,  0.000 sec (  0.063%)
 iterations                     ...        0 min,  0.001 sec (  1.427%)
 molecular gradient             ...        0 min,  0.091 sec ( 97.542%)
 printout                       ...        0 min,  0.000 sec (  0.081%)

         :::::::::::::::::::::::::::::::::::::::::::::::::::::
         ::                     SUMMARY                     ::
         :::::::::::::::::::::::::::::::::::::::::::::::::::::
         :: total energy             -21.564886000799 Eh    ::
         :: gradient norm              0.000345813733 Eh/a0 ::
         :: HOMO-LUMO gap              4.990134947997 eV    ::
         ::.................................................::
         :: SCC energy               -21.749101267632 Eh    ::
         :: -> isotropic ES            0.045061050348 Eh    ::
         :: -> anisotropic ES         -0.005584047669 Eh    ::
         :: -> anisotropic XC         -0.004779411578 Eh    ::
         :: -> dispersion             -0.006214152309 Eh    ::
         :: repulsion energy           0.184207304208 Eh    ::
         :: add. restraining           0.000000000000 Eh    ::
         :::::::::::::::::::::::::::::::::::::::::::::::::::::

           -------------------------------------------------
          |                Property Printout                |
           -------------------------------------------------

    * Orbital Energies and Occupations

         #    Occupation            Energy/Eh            Energy/eV
      -------------------------------------------------------------
         1        2.0000           -0.7334914             -19.9593
       ...           ...                  ...                  ...
         6        2.0000           -0.6210697             -16.9002
         7        2.0000           -0.6052943             -16.4709
         8        2.0000           -0.5799762             -15.7820
         9        2.0000           -0.5679751             -15.4554
        10        2.0000           -0.5482352             -14.9182
        11        2.0000           -0.5275339             -14.3549
        12        2.0000           -0.5144026             -13.9976
        13        2.0000           -0.5132608             -13.9665
        14        2.0000           -0.4901494             -13.3376
        15        2.0000           -0.4650270             -12.6540
        16        2.0000           -0.4529970             -12.3267
        17        2.0000           -0.4172185             -11.3531
        18        2.0000           -0.3844160             -10.4605 (HOMO)
        19                         -0.2010319              -5.4704 (LUMO)
        20                         -0.1659776              -4.5165
        21                          0.0538311               1.4648
        22                          0.0752487               2.0476
        23                          0.1022315               2.7819
        24                          0.1266213               3.4455
        25                          0.1634691               4.4482
        26                          0.1801987               4.9035
        27                          0.2127410               5.7890
        28                          0.2598270               7.0703
        29                          0.4007903              10.9061
        30                          0.6161020              16.7650
      -------------------------------------------------------------
                  HL-Gap            0.1833841 Eh            4.9901 eV
             Fermi-level           -0.2927239 Eh           -7.9654 eV

     #   Z        covCN         q      C6AA      α(0)
     1   6 C      3.678     0.085    19.370     6.305
     2   6 C      2.884    -0.112    30.835     9.104
     3   6 C      2.763     0.107    25.624     8.290
     4   8 O      1.772    -0.216    17.577     5.661
     5   8 O      1.729    -0.336    19.623     5.981
     6   8 O      1.658    -0.381    20.486     6.110
     7   1 H      0.805     0.324     0.654     1.270
     8   1 H      0.923     0.050     2.319     2.382
     9   1 H      0.924     0.066     2.133     2.284
    10   1 H      0.925     0.048     2.346     2.395
    11   1 H      0.926     0.038     2.479     2.462
    12   1 H      0.804     0.328     0.643     1.260

 Mol. C6AA /au·bohr⁶  :       1277.129362
 Mol. C8AA /au·bohr⁸  :      27565.005703
 Mol. α(0) /au        :         53.502826


Wiberg/Mayer (AO) data.
largest (>0.10) Wiberg bond orders for each atom
          total WBO             WBO to atom ...
     1  C   3.934        C    2 1.004    O    4 0.971    H    8 0.959    H    9 0.955
     2  C   3.967        C    3 1.822    C    1 1.004    H   11 0.970    O    6 0.145
     3  C   3.947        C    2 1.822    O    6 1.126    H   10 0.958
     4  O   2.000        C    1 0.971    O    5 0.968
     5  O   1.931        O    4 0.968    H    7 0.886
     6  O   2.162        C    3 1.126    H   12 0.847    C    2 0.145
     7  H   0.895        O    5 0.886
     8  H   0.997        C    1 0.959
     9  H   0.996        C    1 0.955
    10  H   0.998        C    3 0.958
    11  H   0.999        C    2 0.970
    12  H   0.893        O    6 0.847

molecular dipole:
                 x           y           z       tot (Debye)
 q only:       -0.031       0.109      -0.200
   full:       -0.098       0.327      -0.330       1.206
molecular quadrupole (traceless):
                xx          xy          yy          xz          yz          zz
 q only:       -1.645      -0.103       2.536      -1.794       3.152      -0.891
  q+dip:       -2.475       0.646       4.097      -2.846       1.676      -1.623
   full:       -2.559       0.174       4.363      -2.553       2.526      -1.803

           -------------------------------------------------
          |                Geometry Summary                 |
           -------------------------------------------------

      molecular mass/u    :       90.0780670
   center of mass at/Å    :        1.0403276       1.3070129      -1.3390049
  moments of inertia/u·Å² :        0.9246031E+02   0.1684811E+03   0.2429335E+03
rotational constants/cm⁻¹ :        0.1823229E+00   0.1000565E+00   0.6939197E-01

 * 10 selected distances

     #   Z        #   Z                                     value/Å
     2   6 C      3   6 C                                 1.3306346
     1   6 C      4   8 O                                 1.4162328
     4   8 O      5   8 O                                 1.4331927 (max)
     3   6 C      6   8 O                                 1.3429423
     5   8 O      7   1 H                                 0.9653803 (min)
     1   6 C      8   1 H                                 1.0993092
     1   6 C      9   1 H                                 1.0917474
     3   6 C     10   1 H                                 1.0817404
     2   6 C     11   1 H                                 1.0764326
     6   8 O     12   1 H                                 0.9728267

 * 5 distinct bonds (by element types)

   Z      Z             #   av. dist./Å        max./Å        min./Å
   1 H    6 C           4     1.0873074     1.0993092     1.0764326
   6 C    6 C           1     1.3306346     1.3306346     1.3306346
   1 H    8 O           2     0.9691035     0.9728267     0.9653803
   6 C    8 O           2     1.3795876     1.4162328     1.3429423
   8 O    8 O           1     1.4331927     1.4331927     1.4331927


optimized geometry written to: xtbopt.xyz


           -------------------------------------------------
          | TOTAL ENERGY              -21.564886000799 Eh   |
          | GRADIENT NORM               0.000345813733 Eh/α |
          | HOMO-LUMO GAP               4.990134947997 eV   |
           -------------------------------------------------

------------------------------------------------------------------------
 * finished run on 2020/12/23 at 21:41:45.066     
------------------------------------------------------------------------
 total:
 * wall-time:     0 d,  0 h,  0 min,  2.841 sec
 *  cpu-time:     0 d,  0 h,  0 min, 11.805 sec
 * ratio c/w:     4.155 speedup
 SCF:
 * wall-time:     0 d,  0 h,  0 min,  0.008 sec
 *  cpu-time:     0 d,  0 h,  0 min,  0.185 sec
 * ratio c/w:    23.887 speedup
 ANC optimizer:
 * wall-time:     0 d,  0 h,  0 min,  2.690 sec
 *  cpu-time:     0 d,  0 h,  0 min, 10.570 sec
 * ratio c/w:     3.930 speedup

