12
 energy: -21.505694646364 gnorm: 0.124823877032 xtb: 6.2.3 (830e466)
C         1.62761000000000    0.85647000000000   -2.46807000000000
C         0.86233000000000   -0.07965000000000   -1.89742000000000
C         1.33196000000000   -0.91625000000000   -0.77533000000000
O        -0.26236000000000    3.21562000000000   -1.05163000000000
O         0.73645000000000    4.07226000000000   -1.10568000000000
O         2.45515000000000   -0.78786000000000   -0.31275000000000
H         1.19897000000000    3.86949000000000   -1.95873000000000
H         2.64065000000000    1.04638000000000   -2.12708000000000
H         1.23588000000000    1.44748000000000   -3.28960000000000
H         0.66488000000000   -1.66034000000000   -0.35357000000000
H        -0.14570000000000   -0.23376000000000   -2.26983000000000
H         0.04317000000000    2.50977000000000   -0.42611000000000
12
 energy: -21.513344066849 gnorm: 0.044086580115 xtb: 6.2.3 (830e466)
C         1.61922397640348    0.85800853162345   -2.46410877733384
C         0.86063946124294   -0.07688189797413   -1.89651954671724
C         1.34898860895138   -0.90290251941754   -0.78256810764534
O        -0.27250340316586    3.17968299975474   -1.04527209889219
O         0.75864093803352    4.08425919078415   -1.12280719725705
O         2.45579185502166   -0.78465558581090   -0.30630467168528
H         1.21604521202966    3.89312323917034   -1.96657960234722
H         2.62889840168205    1.03937413424327   -2.12696122541921
H         1.24494126764094    1.44396905491799   -3.28923747849467
H         0.65383061104149   -1.64706708779304   -0.37667278761921
H        -0.14664368272027   -0.24772059150999   -2.25443596692394
H         0.02113675383902    2.50042053201167   -0.40433253966480
12
 energy: -21.514925586657 gnorm: 0.010114824432 xtb: 6.2.3 (830e466)
C         1.61784562750527    0.85218453319185   -2.47435874043466
C         0.85899200650395   -0.07592913887076   -1.89960009180657
C         1.35608385034850   -0.88386650592197   -0.77838519719268
O        -0.26634655625825    3.13897133878568   -1.05409032489572
O         0.76825898977102    4.08485934191156   -1.13188814642165
O         2.45552930327103   -0.78309161081263   -0.29612574829555
H         1.21466129488830    3.90988480190332   -1.97383173738181
H         2.61944714861422    1.03831629333674   -2.12195590890068
H         1.25359939430995    1.45136964295711   -3.29137934839785
H         0.64164595252716   -1.63989353797529   -0.40230973886254
H        -0.14996581045532   -0.26110788482320   -2.24007066442384
H         0.01923879897419    2.50791272631763   -0.37180435298650
12
 energy: -21.515164620575 gnorm: 0.013489095263 xtb: 6.2.3 (830e466)
C         1.60682060736098    0.86570031158627   -2.46874749323323
C         0.85588107515212   -0.07282393147253   -1.90105579929593
C         1.36881260185135   -0.89231081060559   -0.79461778747036
O        -0.25230292942887    3.10424678020514   -1.07101403931948
O         0.77787304550067    4.07640217499886   -1.12895335326674
O         2.44963531016249   -0.76963262065432   -0.27989995594563
H         1.21213634155359    3.92678015326465   -1.97925478188598
H         2.61459454493683    1.03460904698558   -2.12465820518007
H         1.26044323874560    1.45004479857223   -3.30428593609687
H         0.63111389027168   -1.62670020333951   -0.40823797044714
H        -0.15078155176554   -0.27590968317063   -2.23568826547049
H         0.01476382565910    2.51920398362990   -0.33938641238813
12
 energy: -21.515575663718 gnorm: 0.010522640888 xtb: 6.2.3 (830e466)
C         1.60732871477303    0.86129128853001   -2.47852692590278
C         0.85524915255478   -0.07193824655249   -1.90355062990115
C         1.36276098508199   -0.87540655986682   -0.78169504491672
O        -0.24179147413861    3.09249006374066   -1.07689224105641
O         0.79758306897768    4.05852836701584   -1.11514319861029
O         2.44620194851829   -0.76095627437988   -0.27267290258841
H         1.20079267429570    3.94111084464269   -1.98958711314218
H         2.61170470243772    1.03535402614680   -2.12503597228372
H         1.26217771460579    1.45140870725863   -3.31049310217831
H         0.63450711778953   -1.63203495952733   -0.41926089547813
H        -0.15136112106288   -0.28124484256848   -2.23334742359841
H         0.00383651616699    2.52100758556044   -0.32959455034358
12
 energy: -21.515818885020 gnorm: 0.016460586259 xtb: 6.2.3 (830e466)
C         1.60891941941798    0.85367574905231   -2.49341768506245
C         0.85622786095454   -0.07441762352577   -1.91141270920902
C         1.35859703987333   -0.86535493065979   -0.77662808727003
O        -0.22418190993133    3.08353833705036   -1.07844248305167
O         0.83868582904263    4.02255838955648   -1.09048717803933
O         2.43727713726474   -0.73954074163540   -0.25877959645242
H         1.17637554662033    3.96223462558227   -2.00900670763692
H         2.60522126950658    1.04274595012035   -2.12194261097080
H         1.26299671021254    1.45043387024031   -3.31996198799009
H         0.63796825673030   -1.63107356800057   -0.42197902854596
H        -0.15014770003728   -0.28908449791524   -2.23729559814581
H        -0.01894945965435    2.52389444013481   -0.31644632762562
12
 energy: -21.515816795978 gnorm: 0.027454151806 xtb: 6.2.3 (830e466)
C         1.60591766641537    0.85070631939400   -2.50585132669105
C         0.85475426147365   -0.07484367460777   -1.91837469991184
C         1.35330271473731   -0.85408215213427   -0.77250487845632
O        -0.20063033735294    3.05029653602703   -1.10757374954093
O         0.84951442839895    4.00111321546183   -1.08725317411685
O         2.42926480883067   -0.71475340597443   -0.25059548034146
H         1.18723158885528    3.96188911662685   -1.99699715796699
H         2.59850817906182    1.04873120851000   -2.12736406403629
H         1.25921801301195    1.44471474674178   -3.33379057912696
H         0.64821463315744   -1.63500076302511   -0.42636518702083
H        -0.14981770771800   -0.29656715520714   -2.24530075466838
H        -0.04648824887144    2.55740600818740   -0.26382894812223
12
 energy: -21.516228583528 gnorm: 0.006516658395 xtb: 6.2.3 (830e466)
C         1.60286631069280    0.85627628981012   -2.49864176532001
C         0.85343044874998   -0.07383708847019   -1.91633583219166
C         1.35077020983735   -0.85440659060964   -0.77220207347153
O        -0.20318768042624    3.06604031907183   -1.08929103473786
O         0.85699103792666    3.99782996816727   -1.08236145523577
O         2.42505442413663   -0.70522450816853   -0.24742699044529
H         1.17980971829884    3.96040988321552   -1.99158896100339
H         2.60045647782475    1.04652879231843   -2.13274247956689
H         1.25952546869871    1.43351815114910   -3.34046775228474
H         0.65225918455640   -1.63696633029343   -0.42209612155575
H        -0.14717791200734   -0.29874003725425   -2.25488044194630
H        -0.04180768828848    2.54818115106394   -0.28776509224097
12
 energy: -21.516426890522 gnorm: 0.013533384893 xtb: 6.2.3 (830e466)
C         1.59940618640132    0.85459653229695   -2.50527787463289
C         0.85207525061582   -0.07649488529804   -1.92203483346051
C         1.35044124333881   -0.84779554576941   -0.77281728378622
O        -0.18494467269792    3.04636022552112   -1.08973476734080
O         0.88778567147295    3.97159446183826   -1.06496574452077
O         2.41402239719200   -0.67979959831324   -0.23104347080587
H         1.16512680716728    3.99040932439643   -2.00146262059501
H         2.59378739209327    1.05123679590587   -2.13452465820930
H         1.26079248608749    1.42284530803718   -3.35508896014572
H         0.65207122247289   -1.63232918815289   -0.42416527272980
H        -0.14545626447249   -0.31119779025895   -2.26359680506553
H        -0.05611771967133    2.55018435979694   -0.27108770870778
12
 energy: -21.516689423840 gnorm: 0.012939711379 xtb: 6.2.3 (830e466)
C         1.59740924324489    0.84558030568907   -2.52112273302781
C         0.85175352249016   -0.08401640582907   -1.93296585270107
C         1.34960079134434   -0.84064854755871   -0.77524976756979
O        -0.16168009347465    3.01768251575618   -1.09567888930935
O         0.91047763106081    3.94803986898158   -1.05484910205433
O         2.40019479451216   -0.64568121442350   -0.21492352567350
H         1.16609351534397    4.01008127097883   -1.99227062701791
H         2.58260894159329    1.06402755250098   -2.13693056525895
H         1.25664844815687    1.40758724216014   -3.37330504285542
H         0.65468589044065   -1.62524826811442   -0.42089458899963
H        -0.14281413634977   -0.32580705191637   -2.27854421845640
H        -0.07598854836259    2.56801273177557   -0.23906508707609
12
 energy: -21.516917924858 gnorm: 0.012195628848 xtb: 6.2.3 (830e466)
C         1.59411953646210    0.84135123130195   -2.53313930614098
C         0.85088354531358   -0.08872924083434   -1.94194676915090
C         1.34279442127569   -0.82487283707384   -0.77002272254580
O        -0.13686155970222    2.99018632805703   -1.09284628316731
O         0.93457469798688    3.92214584076324   -1.04537811477189
O         2.38256564268934   -0.60938543983092   -0.19957852227502
H         1.16118041243504    4.02911967820900   -1.98090787061020
H         2.57412926217645    1.07385511635508   -2.14548916169717
H         1.25651675359477    1.38305168033255   -3.40073096020095
H         0.65942890351130   -1.62276877700028   -0.41996664508546
H        -0.13577460293890   -0.34443132589678   -2.30158092934070
H        -0.09456701280386    2.59008774561767   -0.20421271501393
12
 energy: -21.517126073683 gnorm: 0.004526423740 xtb: 6.2.3 (830e466)
C         1.59536509390323    0.82986884809246   -2.55087613431643
C         0.85372480261482   -0.09989650132140   -1.95618429316428
C         1.33469777300092   -0.81095599036036   -0.76520650305075
O        -0.11621626856856    2.97325375347302   -1.07268172636866
O         0.95783057954566    3.90060437859360   -1.03684392800336
O         2.36195121023571   -0.57486764101721   -0.18224721327819
H         1.14562886988806    4.05093973124215   -1.97076124734835
H         2.56468588323944    1.08792930158177   -2.15100007797316
H         1.25646201862273    1.35865814150203   -3.42524717080747
H         0.65823160079796   -1.61508928389431   -0.41361235921695
H        -0.12509954066676   -0.36614472994327   -2.32917582121558
H        -0.09827202261301    2.60530999205198   -0.18196352525724
12
 energy: -21.516520919252 gnorm: 0.034679502202 xtb: 6.2.3 (830e466)
C         1.59094558451529    0.81759642702218   -2.58062656442472
C         0.85747125497495   -0.11649991190623   -1.98222775770813
C         1.32033788693582   -0.77978749429887   -0.75446083444822
O        -0.06737374752051    2.93508153186955   -1.04915545381814
O         1.02941276316806    3.83709384446683   -1.00670747000010
O         2.32222814120606   -0.49884517595379   -0.14122883191994
H         1.10774823319084    4.09856150428040   -1.96435337734605
H         2.54602954795605    1.10797608894263   -2.16730443356647
H         1.25910222233230    1.31412728100165   -3.47809184801451
H         0.66159258571614   -1.60543146335916   -0.41256637147692
H        -0.10480350729029   -0.41529535589480   -2.37780726540401
H        -0.13370096518445    2.64503272383022   -0.12126979187336
12
 energy: -21.517259179327 gnorm: 0.005076280183 xtb: 6.2.3 (830e466)
C         1.59147122634023    0.82563523403566   -2.56685124022615
C         0.85761728750598   -0.10985662819768   -1.97197367609799
C         1.32790206038178   -0.79326883398636   -0.76002117496656
O        -0.09556323696379    2.95843095601780   -1.05601886307203
O         0.98799883051602    3.87598300436053   -1.02492579261415
O         2.34131417190957   -0.53532918453100   -0.16119545914377
H         1.13250811161459    4.05968158918143   -1.95860135847646
H         2.55406359663906    1.09693113637577   -2.16403250830140
H         1.26017397030094    1.33334144677779   -3.45749537522940
H         0.65737953166976   -1.60607714748365   -0.41387965181565
H        -0.11031587804980   -0.40065169891003   -2.35621986811695
H        -0.11555967186411    2.63479012636028   -0.14458503193996
12
 energy: -21.517299562391 gnorm: 0.003344927009 xtb: 6.2.3 (830e466)
C         1.59316156867878    0.82274337796502   -2.57047387177409
C         0.85937769505761   -0.11185062363557   -1.97445947506543
C         1.32634512017255   -0.79264493909646   -0.76077480190344
O        -0.09272360681005    2.95543783486307   -1.05108954701037
O         0.99180778876845    3.87233667082311   -1.02312183017154
O         2.33837955296491   -0.53589870701759   -0.16307667858740
H         1.12292830614397    4.06754978407255   -1.96043357430667
H         2.55199165930309    1.10028903877449   -2.16137632917308
H         1.26446606985145    1.32915727365857   -3.46211590288533
H         0.65285786529048   -1.59997133132547   -0.41049480434532
H        -0.10646276915272   -0.40659408594530   -2.35862256327362
H        -0.11313925026829    2.63905570686415   -0.13976062150423
12
 energy: -21.517348428405 gnorm: 0.004133655894 xtb: 6.2.3 (830e466)
C         1.59250904571544    0.81671809035611   -2.58204740098209
C         0.86330679549462   -0.12187285744688   -1.98726218372762
C         1.32212005904054   -0.78644919228034   -0.76106228554252
O        -0.07983318157747    2.94735393090474   -1.03567003357901
O         1.00838460813157    3.86019870198261   -1.01917901619249
O         2.32520106318099   -0.51500353277608   -0.15197980245864
H         1.10800711262518    4.07680600515277   -1.95807888467253
H         2.54291793993786    1.10976861791765   -2.16181649833872
H         1.26871991702590    1.31491687938961   -3.47946186755188
H         0.64773046913605   -1.59173134867803   -0.40842147203622
H        -0.09525470103203   -0.43200232414665   -2.37725583665935
H        -0.11481912767840    2.66090702962510   -0.11356471825950
12
 energy: -21.517382934675 gnorm: 0.005203066010 xtb: 6.2.3 (830e466)
C         1.59157800132518    0.81262202884169   -2.59142189585073
C         0.86720399870446   -0.13127119019404   -1.99954448206506
C         1.31640338044078   -0.77828457523388   -0.75981810817208
O        -0.06830071487777    2.94147993026556   -1.01509477527043
O         1.02392319828548    3.84970233515907   -1.01787127580330
O         2.31209329959940   -0.49617537171686   -0.14396263086949
H         1.09075836535404    4.08315507115421   -1.95621757829442
H         2.53330198316009    1.11888116518389   -2.16180652389868
H         1.27645313086858    1.29709466257874   -3.50049498302201
H         0.64150846055911   -1.58318097957365   -0.40627239333617
H        -0.08131560290602   -0.46087309854934   -2.40017097578394
H        -0.11461750051305    2.68646002208529   -0.08312437763434
12
 energy: -21.517421180815 gnorm: 0.002353658645 xtb: 6.2.3 (830e466)
C         1.59166225770598    0.80867970146130   -2.59772664560796
C         0.87084239208509   -0.14059795919928   -2.01031583224721
C         1.31161499959196   -0.77439905975328   -0.76015468440877
O        -0.06241111129754    2.94071118472617   -0.99499059524733
O         1.03046250141186    3.84748472942151   -1.02134960267828
O         2.30287874614950   -0.48465513113488   -0.13971808675310
H         1.07675618351748    4.08421663907802   -1.95729663573585
H         2.52484806384709    1.12664883686504   -2.15831181694312
H         1.28306996264648    1.28543352120544   -3.51291589491300
H         0.63449989610211   -1.57644604680755   -0.40369799187768
H        -0.06907936696535   -0.48352072523410   -2.41999988437503
H        -0.10615452479439    2.70605430937233   -0.05932232921338
12
 energy: -21.517453861893 gnorm: 0.002675999645 xtb: 6.2.3 (830e466)
C         1.59417843166881    0.80283938040617   -2.60564597322181
C         0.87657173974655   -0.15263306959720   -2.02444739435038
C         1.30402888188091   -0.76985470945563   -0.76175229382890
O        -0.05475128687115    2.93836143714298   -0.96489202938146
O         1.03880166342870    3.84312746359582   -1.02995458329708
O         2.29104433090274   -0.47512566823978   -0.13951816454408
H         1.05155485026567    4.08410454995775   -1.96467823187006
H         2.51292893221272    1.13957165947267   -2.14898676249034
H         1.29576441826557    1.26965922528974   -3.52875456805386
H         0.62202656882100   -1.56455872000256   -0.39851744028898
H        -0.05036544851281   -0.51200596510387   -2.44786910033297
H        -0.09279308180843    2.73612441653471   -0.02078345834086
12
 energy: -21.517484113587 gnorm: 0.004099131304 xtb: 6.2.3 (830e466)
C         1.59703714556763    0.79864826298148   -2.61111228278449
C         0.88400170509488   -0.16784858931291   -2.04210331454585
C         1.29344211193555   -0.76583521779195   -0.76475664406679
O        -0.04748874879903    2.94011822620094   -0.92065009461191
O         1.04767776485566    3.83987170878331   -1.04529989232109
O         2.27544108078146   -0.46376884195528   -0.13691041092202
H         1.01369155469831    4.07815753485656   -1.98215981378923
H         2.49740234654507    1.15498544992951   -2.13486077675529
H         1.31312770700845    1.25340370134446   -3.54478125663026
H         0.60458563564887   -1.55225887223539   -0.39571650935377
H        -0.02508279899246   -0.54810043564192   -2.48585751374332
H        -0.06484550434415    2.77223707284205    0.02840850952312
12
 energy: -21.517515138671 gnorm: 0.004255305540 xtb: 6.2.3 (830e466)
C         1.60017585062405    0.79919576490839   -2.60913179734410
C         0.88812860769700   -0.17343144305645   -2.04888959054073
C         1.28692038852273   -0.76692363580053   -0.76779734183583
O        -0.04740365335617    2.94206231978075   -0.89685314948265
O         1.04108581224058    3.84383805199123   -1.06150682273552
O         2.26993356137443   -0.46779955275072   -0.13952255824730
H         0.99125707589314    4.06446364838258   -1.99909786990875
H         2.48958933753340    1.16377896287830   -2.12206721264322
H         1.32385071248440    1.25152255789979   -3.54568539429038
H         0.59239677795692   -1.54665761349919   -0.39594127121801
H        -0.01154627956226   -0.55890886985554   -2.50404951573553
H        -0.03539819140799    2.78846980912227    0.05474252398103
12
 energy: -21.517578699872 gnorm: 0.001520086219 xtb: 6.2.3 (830e466)
C         1.60150466374895    0.80025471149778   -2.60879319007481
C         0.88937346215373   -0.17257421401689   -2.04924622022890
C         1.28639277021909   -0.76649533469485   -0.76705534131082
O        -0.05828777421931    2.95564880903894   -0.89420979260116
O         1.04991533921624    3.82914728926676   -1.06821154480542
O         2.26639682489799   -0.46697864456382   -0.13407624619579
H         0.97967866693250    4.06842782372844   -2.00107749940314
H         2.48872427462327    1.16790924266992   -2.11868530349278
H         1.32555243875666    1.25280678543956   -3.54576891865045
H         0.58937101393216   -1.54461695790783   -0.39682696721019
H        -0.00996074381509   -0.55874555690058   -2.50582772966474
H        -0.01967093644597    2.77482604644348    0.05397875363721
12
 energy: -21.517220691744 gnorm: 0.029276632679 xtb: 6.2.3 (830e466)
C         1.60329517903083    0.80830731918785   -2.60482773388522
C         0.89223408480007   -0.16681335097354   -2.04838703314109
C         1.27819523523591   -0.75761861809375   -0.75942973811590
O        -0.10265800779650    3.01036724020977   -0.88068811940281
O         1.08793488774227    3.76821037646143   -1.09740981137829
O         2.24991946714222   -0.45991703021893   -0.11275951865566
H         0.93824779288079    4.08347493335118   -2.00904973000283
H         2.48558602108271    1.18330231293498   -2.10813781565275
H         1.33239766059976    1.25662643561387   -3.54627882792387
H         0.58446765170336   -1.54648727971542   -0.40616473504418
H        -0.00144515507356   -0.56073461729862   -2.51276358853637
H         0.04081518265232    2.72089227854212    0.05009665173792
12
 energy: -21.517645042169 gnorm: 0.007889042369 xtb: 6.2.3 (830e466)
C         1.60185588438709    0.80663441064834   -2.60621258400475
C         0.89081307464171   -0.16819347326951   -2.04902095404089
C         1.28086376252581   -0.76084476085733   -0.76293012325680
O        -0.07440136266798    2.97733869851709   -0.88494486155078
O         1.06689529181291    3.79932420308304   -1.08564135211468
O         2.25436576826548   -0.46123488535540   -0.12000365174631
H         0.95632355004763    4.07047206647242   -2.00842750278428
H         2.48564359801211    1.17938555554523   -2.11183960209085
H         1.32929324416779    1.25627024783188   -3.54615257404559
H         0.58530943585465   -1.54517970482093   -0.40332906274169
H        -0.00454082108880   -0.55971902502259   -2.51083391992096
H         0.01656857404178    2.74535666722868    0.05353618829656
12
 energy: -21.517679285817 gnorm: 0.004852346396 xtb: 6.2.3 (830e466)
C         1.60163568988387    0.80878991378587   -2.60530183484820
C         0.89137138665156   -0.16763895068674   -2.04987361981801
C         1.28103179063856   -0.76201915519626   -0.76477643825534
O        -0.07209759721760    2.97420266585253   -0.88043141688740
O         1.06823146847857    3.79514663875256   -1.09070532158518
O         2.24994312759619   -0.45699913349713   -0.11746164898952
H         0.95303145446904    4.06664253232154   -2.01184817722708
H         2.48319469722987    1.18378071876347   -2.10913803792709
H         1.32983270343682    1.25838054033451   -3.54532196193623
H         0.58246599873461   -1.54285624269976   -0.40329365968776
H        -0.00264299826235   -0.56006126163539   -2.51299828539549
H         0.02299227836105    2.74224173390572    0.05535040255628
12
 energy: -21.517738806222 gnorm: 0.003186772476 xtb: 6.2.3 (830e466)
C         1.60234419350060    0.81439317242379   -2.60355852518302
C         0.89178372194817   -0.16377603465751   -2.05154548726602
C         1.27257802227496   -0.75395854494199   -0.76232388971823
O        -0.06407251737492    2.96434277425248   -0.86656910533143
O         1.07221634038092    3.78123707950037   -1.10744972090116
O         2.23478246749445   -0.44333407442851   -0.10780609083975
H         0.93992647446370    4.05407037764264   -2.02353741923263
H         2.47655004195601    1.19697628431332   -2.10082565628609
H         1.33247205297275    1.26457265450156   -3.54361005123856
H         0.57962873925153   -1.54434197892041   -0.41005953667476
H         0.00231706728420   -0.55958459675166   -2.51979892277751
H         0.04846339584780    2.72901288706686    0.06128440544817
12
 energy: -21.517833771521 gnorm: 0.004457719128 xtb: 6.2.3 (830e466)
C         1.59929267018507    0.82805130145734   -2.59672457806172
C         0.89098770497835   -0.15659505493173   -2.05303468908114
C         1.26194140902664   -0.74521711789552   -0.76054456965171
O        -0.05715013428124    2.95629526862891   -0.84692792266014
O         1.08104592561040    3.75662184345440   -1.13342932008981
O         2.20991867634885   -0.42140045723908   -0.09091528613986
H         0.91423695735629    4.04072097164996   -2.04032157219813
H         2.46877768719388    1.21375347281058   -2.08898044030183
H         1.33948005201712    1.27099885993270   -3.54309337521798
H         0.57358319256932   -1.54466890274829   -0.41895086451738
H         0.01159096915724   -0.56154848009673   -2.53262947712435
H         0.09528488983822    2.70259829497843    0.06975209504309
12
 energy: -21.515674805750 gnorm: 0.060209266508 xtb: 6.2.3 (830e466)
C         1.58457360208019    0.89942664419339   -2.56059796978447
C         0.88696856419383   -0.11875613493674   -2.06128822844151
C         1.20387386086388   -0.69801714168608   -0.75048849148771
O        -0.02535579312655    2.92067226442361   -0.74061325670662
O         1.13112445886326    3.61992562923519   -1.27499949035555
O         2.07465238969897   -0.30294756684608    0.00053293231192
H         0.77004981149215    3.97547192440352   -2.12859219271240
H         2.42720628148759    1.30311331365675   -2.02418086837162
H         1.37893974616983    1.30437994771699   -3.54050433593451
H         0.54092967124955   -1.54643675730110   -0.46633905993456
H         0.06153946282226   -0.57193959468510   -2.60196652133770
H         0.35448794420502    2.55471747182676    0.11323748275391
12
 energy: -21.517697694933 gnorm: 0.023670835499 xtb: 6.2.3 (830e466)
C         1.58936842212465    0.87857324141685   -2.57883321979174
C         0.88817646380064   -0.12660007820959   -2.06243192812798
C         1.21368896415191   -0.69821674015513   -0.75000200423071
O         0.01863007536496    2.86484595566663   -0.77809813501267
O         1.09606514964597    3.68439885624603   -1.22467676076949
O         2.10632502013395   -0.32490304122029   -0.02346005882153
H         0.83173719982474    3.95397130752522   -2.11167993805954
H         2.42236554742623    1.30095812409829   -2.03596100546269
H         1.35671048764725    1.30601645706335   -3.53959596774270
H         0.54823219470132   -1.53846116215073   -0.45333179911478
H         0.04660069614570   -0.56612252798955   -2.58277808902659
H         0.27108977903269    2.60514960770995    0.10504890615963
12
 energy: -21.517614101629 gnorm: 0.022308185348 xtb: 6.2.3 (830e466)
C         1.58727606002993    0.85919217191129   -2.58038444714485
C         0.88236412707418   -0.13455999439573   -2.04963015351365
C         1.23765307302249   -0.71899611879587   -0.75321392836676
O        -0.03974615115029    2.93329577487105   -0.83272570548908
O         1.08278310157055    3.71816882686739   -1.16334772378404
O         2.16176098072040   -0.37727765542558   -0.06914405430135
H         0.86569038707968    4.02053834366642   -2.04999501239572
H         2.45836924142144    1.23424151567435   -2.07460761591201
H         1.36009785788073    1.27287650290743   -3.54929091420219
H         0.56391010456273   -1.53098505529406   -0.42267982917059
H         0.02760061429253   -0.56016841169960   -2.55195750392985
H         0.20123060349570    2.62328409971391    0.06117688820911
12
 energy: -21.518061880739 gnorm: 0.004446775108 xtb: 6.2.3 (830e466)
C         1.59236209274680    0.86029383685992   -2.58458294104501
C         0.88718970577978   -0.13591930215595   -2.05783360815687
C         1.23126363902241   -0.71333640859243   -0.75391305078744
O        -0.02437846631676    2.91230438856466   -0.80794015943054
O         1.09573114647314    3.69798836850223   -1.18585384458570
O         2.14349139862166   -0.35692280930443   -0.05244650232720
H         0.84942805547652    3.99991820169615   -2.07073981853577
H         2.44685194323547    1.25592160685278   -2.06227273703387
H         1.35867403142603    1.28501421570261   -3.54589112851182
H         0.55693801999826   -1.53145792673794   -0.43233776281674
H         0.03387086811883   -0.56219762277439   -2.56382579776370
H         0.21756756541791    2.62800345138781    0.08183735099377
12
 energy: -21.518122745111 gnorm: 0.006614241047 xtb: 6.2.3 (830e466)
C         1.59259136836141    0.86591918082144   -2.58518967998516
C         0.88768674509834   -0.13260506225006   -2.06187569703730
C         1.22147566118623   -0.70284514013620   -0.75149759104092
O        -0.01218390020320    2.89747804246419   -0.79110515742756
O         1.09684087631510    3.68793078450283   -1.20235079532103
O         2.12190010072073   -0.33406525351015   -0.03718948814662
H         0.83659397992881    3.98269387709480   -2.08320749578900
H         2.43695280176388    1.27356239874463   -2.05274333181120
H         1.36199320122929    1.28952491716126   -3.54802534890302
H         0.55168601183145   -1.53014208605196   -0.43914915127834
H         0.04034538992139   -0.56522724407503   -2.57478938922257
H         0.25310776384660    2.60738558523528    0.09132312596186
12
 energy: -21.518198911424 gnorm: 0.008539065825 xtb: 6.2.3 (830e466)
C         1.59254490682477    0.87235619265276   -2.58617923446424
C         0.88708389483283   -0.12731700509658   -2.06550051850159
C         1.20907561478307   -0.68817999476525   -0.74778912176658
O         0.00191011282396    2.88092786203795   -0.77423307703418
O         1.10301001824560    3.66896482798213   -1.21810291248116
O         2.09589661393782   -0.30598498420105   -0.02179433616634
H         0.81352582518678    3.97185246029991   -2.09005939294747
H         2.42765029909512    1.28977094204346   -2.04494695079717
H         1.36951434035134    1.29015543449735   -3.55389859950617
H         0.54578183344301   -1.52466957688252   -0.44351859242868
H         0.04802192780574   -0.56840276374645   -2.58661589383329
H         0.29497461266996    2.58013660517935    0.09683862992601
12
 energy: -21.518290411763 gnorm: 0.020075926010 xtb: 6.2.3 (830e466)
C         1.59382847052908    0.88478321693356   -2.59301822245603
C         0.88539260239508   -0.11426089906520   -2.07492085973209
C         1.17800905682762   -0.64782505072954   -0.73806757053982
O         0.03125660870264    2.84442736020497   -0.73500295845711
O         1.11697337465557    3.61947867079011   -1.24896090585438
O         2.03015369154464   -0.23089553748850    0.01333256693354
H         0.75704656055131    3.94925955167815   -2.09357478006887
H         2.40751959772387    1.32365688059719   -2.03357050448976
H         1.39134451962201    1.28539958557066   -3.57375748143154
H         0.53085202506140   -1.50238818722826   -0.44745535653378
H         0.06663572486090   -0.57576968243520   -2.61336951476471
H         0.39997776752579    2.50374409117314    0.10256558739375
12
 energy: -21.518467654032 gnorm: 0.010178055660 xtb: 6.2.3 (830e466)
C         1.59570856121414    0.87813075687392   -2.59762612285998
C         0.88529277950661   -0.11634763806347   -2.07402550594308