      -----------------------------------------------------------      
     |                   =====================                   |     
     |                           x T B                           |     
     |                   =====================                   |     
     |                         S. Grimme                         |     
     |          Mulliken Center for Theoretical Chemistry        |     
     |                    University of Bonn                     |     
      -----------------------------------------------------------      

   * xtb version 6.2.3 (830e466) compiled by 'ehlert@majestix' on 2020-03-16

   xtb is free software: you can redistribute it and/or modify it under
   the terms of the GNU Lesser General Public License as published by
   the Free Software Foundation, either version 3 of the License, or
   (at your option) any later version.
   
   xtb is distributed in the hope that it will be useful,
   but WITHOUT ANY WARRANTY; without even the implied warranty of
   MERCHANTABILITY or FITNESS FOR A PARTICULAR PURPOSE.  See the
   GNU Lesser General Public License for more details.
   
   Cite this work as:
   * S. Grimme, C. Bannwarth, P. Shushkov, J. Chem. Theory Comput., 2017,
     13, 1989-2009. DOI: 10.1021/acs.jctc.7b00118
   * C. Bannwarth, S. Ehlert and S. Grimme., J. Chem. Theory Comput., 2019,
     15, 1652-1671. DOI: 10.1021/acs.jctc.8b01176
   * P. Pracht, E. Caldeweyher, S. Ehlert, S. Grimme, ChemRxiv, 2019, preprint.
     DOI: 10.26434/chemrxiv.8326202.v1
   
   for DFT-D4:
   * E. Caldeweyher, C. Bannwarth and S. Grimme, J. Chem. Phys., 2017,
     147, 034112. DOI: 10.1063/1.4993215
   * E. Caldeweyher, S. Ehlert, A. Hansen, H. Neugebauer, S. Spicher,
     C. Bannwarth and S. Grimme, J. Chem. Phys., 2019, 150, 154122.
     DOI: 10.1063/1.5090222
   
   for sTDA-xTB:
   * S. Grimme and C. Bannwarth, J. Chem. Phys., 2016, 145, 054103.
     DOI: 10.1063/1.4959605
   
   in the mass-spec context:
   * V. Asgeirsson, C. Bauer and S. Grimme, Chem. Sci., 2017, 8, 4879.
     DOI: 10.1039/c7sc00601b
   
   for metadynamics refer to:
   * S. Grimme, J. Chem. Theory Comput., 2019, 155, 2847-2862
     DOI: 10.1021/acs.jctc.9b00143
   
   with help from (in alphabetical order)
   C. Bannwarth, F. Bohle, G. Brandenburg, E. Caldeweyher, M. Checinski,
   S. Dohm, S. Ehlert, S. Ehrlich, F. März, H. Neugebauer, J. Pisarek,
   P. Pracht, P. Shushkov, and S. Spicher.
   
 * started run on 2020/12/23 at 21:43:14.776     

           -------------------------------------------------
          |                Calculation Setup                |
           -------------------------------------------------

          program call               : xtb -c 0 -u 0 -a 1.0 --iterations 100 --opt normal --namespace product_31 /scratch/bell/zhao922/YARP/paper-example/potential_product/test/reaction_channel/pp_0/pp_6_0.xyz
          hostname                   : bell-fe05.rcac.purdue.edu
          calculation namespace      : product_31
          coordinate file            : /scratch/bell/zhao922/YARP/paper-example/potential_product/test/reaction_channel/pp_0/pp_6_0.xyz
          omp threads                :                    32
          number of atoms            :                    12
          number of electrons        :                    36
          charge                     :                     0
          spin                       :                   0.0
          first test random number   :      0.10701252012330

           ------------------------------------------------- 
          |                 G F N 2 - x T B                 |
          | Geometry, Frequencies, Noncovalent interactions |
          |            JCTC 2019 parametrisation            |
           ------------------------------------------------- 
             k(s)              :                1.8500
             k(p)              :                2.2300
             k(d)              :                2.2300
             k(f)              :                2.0000
             kEN (H0ij)        :               -2.0000
             D4 a1             :                0.5200
             D4 a2             :                5.0000
             D4 s6             :                1.0000
             D4 s8             :                2.7000
             D4 s9             :                5.0000
             alphaj            :                2.0000

  Z AO/shell   Hii/eV     exponent
  1     Wed Apr 25 08:07:45 CEST 2018   EN: 2.200 GM2: 0.406  GM3: 0.0800  RAES: 1.40
     1s    -10.707211    1.230000
  6     Wed Apr 25 08:07:45 CEST 2018   EN: 2.550 GM2: 0.538  GM3: 0.1500  RAES: 3.00
     2s    -13.970922    2.096432
     2p    -10.063292    1.800000
  8     Wed Apr 25 08:07:45 CEST 2018   EN: 3.440 GM2: 0.452  GM3:-0.0517  RAES: 1.80
     2s    -20.229985    2.439742
     2p    -15.503117    2.137023

           ------------------------------------------------- 
          |        Self-Consistent Charge Iterations        |
           ------------------------------------------------- 

          ...................................................
          :                      SETUP                      :
          :.................................................:
          :  # basis functions                  30          :
          :  # atomic orbitals                  30          :
          :  # shells                           18          :
          :  # electrons                        36          :
          :  max. iterations                   100          :
          :  Hamiltonian                  GFN2-xTB          :
          :  restarted?                      false          :
          :  GBSA solvation                  false          :
          :  PC potential                    false          :
          :  electronic temp.          300.0000000     K    :
          :  accuracy                    1.0000000          :
          :  -> integral cutoff          0.2500000E+02      :
          :  -> integral neglect         0.1000000E-07      :
          :  -> SCF convergence          0.1000000E-05 Eh   :
          :  -> wf. convergence          0.1000000E-03 e    :
          :  Broyden damping             0.4000000          :
          ...................................................

 iter      E             dE          RMSdq      gap      omega  full diag
   1    -21.6562775 -0.216563E+02  0.544E+00    3.64       0.0  T
   2    -21.6902840 -0.340065E-01  0.291E+00    2.85       1.0  T
   3    -21.6894860  0.798008E-03  0.180E+00    3.18       1.0  T
   4    -21.6989363 -0.945028E-02  0.167E-01    2.88       1.0  T
   5    -21.6990138 -0.775627E-04  0.859E-02    2.94       1.0  T
   6    -21.6990228 -0.899908E-05  0.330E-02    2.95       1.0  T
   7    -21.6990234 -0.611498E-06  0.816E-03    2.95       3.5  T
   8    -21.6990236 -0.162606E-06  0.275E-03    2.95      10.5  T
   9    -21.6990236 -0.556022E-08  0.522E-04    2.95      55.3  T
  10    -21.6990236 -0.103161E-08  0.284E-04    2.95     101.7  T

   *** convergence criteria satisfied after 10 iterations ***

         #    Occupation            Energy/Eh            Energy/eV
      -------------------------------------------------------------
         1        2.0000           -0.7557540             -20.5651
       ...           ...                  ...                  ...
        12        2.0000           -0.5348294             -14.5534
        13        2.0000           -0.5207771             -14.1711
        14        2.0000           -0.5025897             -13.6762
        15        2.0000           -0.4808558             -13.0848
        16        2.0000           -0.4668849             -12.7046
        17        2.0000           -0.4332214             -11.7886
        18        2.0000           -0.4053503             -11.0301 (HOMO)
        19                         -0.2969040              -8.0792 (LUMO)
        20                         -0.0575883              -1.5671
        21                          0.0602699               1.6400
        22                          0.0737762               2.0076
        23                          0.0955703               2.6006
       ...                                ...                  ...
        30                          0.5136518              13.9772
      -------------------------------------------------------------
                  HL-Gap            0.1084463 Eh            2.9510 eV
             Fermi-level           -0.3511271 Eh           -9.5547 eV

 SCC (total)                   0 d,  0 h,  0 min,  0.010 sec
 SCC setup                      ...        0 min,  0.000 sec (  1.306%)
 Dispersion                     ...        0 min,  0.000 sec (  0.596%)
 integral evaluation            ...        0 min,  0.001 sec (  7.241%)
 zeroth order Hamiltonian       ...        0 min,  0.000 sec (  0.636%)
 iterations                     ...        0 min,  0.006 sec ( 62.357%)
 molecular gradient             ...        0 min,  0.003 sec ( 25.122%)
 printout                       ...        0 min,  0.000 sec (  0.964%)

         :::::::::::::::::::::::::::::::::::::::::::::::::::::
         ::                     SUMMARY                     ::
         :::::::::::::::::::::::::::::::::::::::::::::::::::::
         :: total energy             -21.542892057352 Eh    ::
         :: gradient norm              0.131943044435 Eh/a0 ::
         :: HOMO-LUMO gap              2.950974470137 eV    ::
         ::.................................................::
         :: SCC energy               -21.699023602884 Eh    ::
         :: -> isotropic ES            0.039448159980 Eh    ::
         :: -> anisotropic ES         -0.000820934011 Eh    ::
         :: -> anisotropic XC         -0.007542635095 Eh    ::
         :: -> dispersion             -0.005955623621 Eh    ::
         :: repulsion energy           0.156123412809 Eh    ::
         :: add. restraining           0.000000000000 Eh    ::
         :::::::::::::::::::::::::::::::::::::::::::::::::::::

      ----------------------------------------------------------- 
     |                   =====================                   |
     |                        A N C O P T                        |
     |                   =====================                   |
     |               Approximate Normal Coordinate               |
     |                Rational Function Optimizer                |
      ----------------------------------------------------------- 

          ...................................................
          :                      SETUP                      :
          :.................................................:
          :   optimization level            normal          :
          :   max. optcycles                   200          :
          :   ANC micro-cycles                  20          :
          :   degrees of freedom                30          :
          :.................................................:
          :   RF solver                   davidson          :
          :   write xtbopt.log                true          :
          :   linear?                        false          :
          :   energy convergence         0.5000000E-05 Eh   :
          :   grad. convergence          0.1000000E-02 Eh/α :
          :   maximium RF displ.         1.0000000          :
          :   Hlow (freq-cutoff)         0.1000000E-01      :
          :   Hmax (freq-cutoff)         5.0000000          :
          :   S6 in model hess.         20.0000000          :
          ...................................................

generating ANC from model Hessian ...
Using Lindh-Hessian (1995)
 Shifting diagonal of input Hessian by   6.719051541867364E-003
 Lowest  eigenvalues of input Hessian
   -0.000000   -0.000000    0.000000    0.000000    0.000000    0.000000
    0.010000    0.011160    0.016783    0.024128    0.035012    0.048280
    0.058581    0.067375    0.081228    0.099353    0.105747    0.111487
 Highest eigenvalues
    1.093609    1.275784    1.379890    1.467959    1.647486    2.100629
 

........................................................................
.............................. CYCLE    1 ..............................
........................................................................
   1    -21.6990236 -0.216990E+02  0.974E-05    2.95       0.0  T
   2    -21.6990236 -0.239453E-10  0.697E-05    2.95     414.4  T
   3    -21.6990236 -0.108500E-10  0.498E-05    2.95     579.7  T
     SCC iter.                  ...        0 min,  0.001 sec
     gradient                   ...        0 min,  0.003 sec
 * total energy  :   -21.5428920 Eh     change        0.2819502E-07 Eh
   gradient norm :     0.1319430 Eh/α   predicted     0.0000000E+00 (-100.00%)
   displ. norm   :     0.2197614 α      lambda       -0.1689823E-01
   maximum displ.:     0.0867101 α      in ANC's #7, #13, #17, ...

........................................................................
.............................. CYCLE    2 ..............................
........................................................................
   1    -21.7174247 -0.217174E+02  0.358E-01    3.27       0.0  T
   2    -21.7176010 -0.176239E-03  0.223E-01    3.19       1.0  T
   3    -21.7176170 -0.160214E-04  0.734E-02    3.13       1.0  T
   4    -21.7176219 -0.487341E-05  0.262E-02    3.15       1.1  T
   5    -21.7176259 -0.402710E-05  0.773E-03    3.15       3.7  T
   6    -21.7176261 -0.182285E-06  0.417E-03    3.15       6.9  T
   7    -21.7176261 -0.127893E-07  0.978E-04    3.15      29.5  T
     SCC iter.                  ...        0 min,  0.003 sec
     gradient                   ...        0 min,  0.087 sec
 * total energy  :   -21.5541161 Eh     change       -0.1122411E-01 Eh
   gradient norm :     0.0499030 Eh/α   predicted    -0.8857162E-02 ( -21.09%)
   displ. norm   :     0.2121016 α      lambda       -0.4847435E-02
   maximum displ.:     0.1140457 α      in ANC's #3, #7, #6, ...

........................................................................
.............................. CYCLE    3 ..............................
........................................................................
   1    -21.7248664 -0.217249E+02  0.294E-01    3.35       0.0  T
   2    -21.7249687 -0.102385E-03  0.182E-01    3.28       1.0  T
   3    -21.7249794 -0.106328E-04  0.532E-02    3.24       1.0  T
   4    -21.7249822 -0.283148E-05  0.168E-02    3.25       1.7  T
   5    -21.7249835 -0.131078E-05  0.618E-03    3.25       4.7  T
   6    -21.7249836 -0.112282E-06  0.348E-03    3.26       8.3  T
   7    -21.7249836 -0.149418E-07  0.873E-04    3.25      33.1  T
     SCC iter.                  ...        0 min,  0.003 sec
     gradient                   ...        0 min,  0.002 sec
 * total energy  :   -21.5563921 Eh     change       -0.2275999E-02 Eh
   gradient norm :     0.0132832 Eh/α   predicted    -0.2532756E-02 (  11.28%)
   displ. norm   :     0.1625565 α      lambda       -0.1223408E-02
   maximum displ.:     0.0936083 α      in ANC's #3, #4, #7, ...

........................................................................
.............................. CYCLE    4 ..............................
........................................................................
   1    -21.7236190 -0.217236E+02  0.247E-01    3.25       0.0  T
   2    -21.7236308 -0.117237E-04  0.155E-01    3.25       1.0  T
   3    -21.7236310 -0.270523E-06  0.317E-02    3.24       1.0  T
   4    -21.7236389 -0.786330E-05  0.101E-02    3.25       2.8  T
   5    -21.7236391 -0.149530E-06  0.344E-03    3.25       8.4  T
   6    -21.7236391 -0.240975E-07  0.134E-03    3.25      21.6  T
   7    -21.7236391 -0.551169E-08  0.599E-04    3.25      48.2  T
     SCC iter.                  ...        0 min,  0.004 sec
     gradient                   ...        0 min,  0.287 sec
 * total energy  :   -21.5568372 Eh     change       -0.4450303E-03 Eh
   gradient norm :     0.0101015 Eh/α   predicted    -0.6278684E-03 (  41.08%)
   displ. norm   :     0.1010579 α      lambda       -0.3395295E-03
   maximum displ.:     0.0859668 α      in ANC's #3, #2, #1, ...

........................................................................
.............................. CYCLE    5 ..............................
........................................................................
   1    -21.7232448 -0.217232E+02  0.814E-02    3.25       0.0  T
   2    -21.7232459 -0.104004E-05  0.498E-02    3.25       1.0  T
   3    -21.7232461 -0.182011E-06  0.753E-03    3.25       3.8  T
   4    -21.7232464 -0.350778E-06  0.342E-03    3.25       8.4  T
   5    -21.7232464 -0.272209E-07  0.177E-03    3.25      16.3  T
   6    -21.7232464 -0.811886E-08  0.747E-04    3.25      38.7  T
     SCC iter.                  ...        0 min,  0.001 sec
     gradient                   ...        0 min,  0.001 sec
 * total energy  :   -21.5571130 Eh     change       -0.2757999E-03 Eh
   gradient norm :     0.0058889 Eh/α   predicted    -0.1714975E-03 ( -37.82%)
   displ. norm   :     0.2795789 α      lambda       -0.5642739E-03
   maximum displ.:     0.2401907 α      in ANC's #3, #2, #4, ...

........................................................................
.............................. CYCLE    6 ..............................
........................................................................
   1    -21.7217818 -0.217218E+02  0.259E-01    3.24       0.0  T
   2    -21.7217919 -0.100706E-04  0.161E-01    3.25       1.0  T
   3    -21.7217982 -0.635059E-05  0.170E-02    3.25       1.7  T
   4    -21.7217989 -0.708339E-06  0.107E-02    3.25       2.7  T
   5    -21.7217992 -0.214089E-06  0.487E-03    3.25       5.9  T
   6    -21.7217993 -0.904472E-07  0.191E-03    3.25      15.1  T
   7    -21.7217993 -0.132264E-07  0.878E-04    3.25      32.9  T
     SCC iter.                  ...        0 min,  0.002 sec
     gradient                   ...        0 min,  0.001 sec
 * total energy  :   -21.5575277 Eh     change       -0.4147155E-03 Eh
   gradient norm :     0.0084956 Eh/α   predicted    -0.3041903E-03 ( -26.65%)
   displ. norm   :     0.2709471 α      lambda       -0.4184502E-03
   maximum displ.:     0.2328102 α      in ANC's #3, #4, #2, ...

........................................................................
.............................. CYCLE    7 ..............................
........................................................................
   1    -21.7209123 -0.217209E+02  0.283E-01    3.25       0.0  T
   2    -21.7209246 -0.123571E-04  0.177E-01    3.25       1.0  T
   3    -21.7209336 -0.898821E-05  0.172E-02    3.25       1.7  T
   4    -21.7209341 -0.466463E-06  0.109E-02    3.25       2.7  T
   5    -21.7209343 -0.194503E-06  0.410E-03    3.25       7.0  T
   6    -21.7209344 -0.856653E-07  0.190E-03    3.25      15.2  T
   7    -21.7209344 -0.127781E-07  0.818E-04    3.25      35.3  T
     SCC iter.                  ...        0 min,  0.003 sec
     gradient                   ...        0 min,  0.001 sec
 * total energy  :   -21.5578417 Eh     change       -0.3139774E-03 Eh
   gradient norm :     0.0125660 Eh/α   predicted    -0.2245863E-03 ( -28.47%)
   displ. norm   :     0.2936606 α      lambda       -0.5610709E-03
   maximum displ.:     0.2448325 α      in ANC's #3, #4, #1, ...

........................................................................
.............................. CYCLE    8 ..............................
........................................................................
   1    -21.7220622 -0.217221E+02  0.336E-01    3.26       0.0  T
   2    -21.7220801 -0.178587E-04  0.212E-01    3.26       1.0  T
   3    -21.7220933 -0.131696E-04  0.201E-02    3.26       1.4  T
   4    -21.7220940 -0.728521E-06  0.127E-02    3.26       2.3  T
   5    -21.7220943 -0.283809E-06  0.455E-03    3.26       6.4  T
   6    -21.7220944 -0.101525E-06  0.217E-03    3.26      13.3  T
   7    -21.7220944 -0.170787E-07  0.878E-04    3.26      32.9  T
     SCC iter.                  ...        0 min,  0.002 sec
     gradient                   ...        0 min,  0.001 sec
 * total energy  :   -21.5582588 Eh     change       -0.4171798E-03 Eh
   gradient norm :     0.0128367 Eh/α   predicted    -0.3047263E-03 ( -26.96%)
   displ. norm   :     0.2352044 α      lambda       -0.6007577E-03
   maximum displ.:     0.1755476 α      in ANC's #3, #4, #5, ...

........................................................................
.............................. CYCLE    9 ..............................
........................................................................
   1    -21.7262119 -0.217262E+02  0.272E-01    3.29       0.0  T
   2    -21.7262234 -0.115201E-04  0.172E-01    3.29       1.0  T
   3    -21.7262311 -0.771625E-05  0.177E-02    3.29       1.6  T
   4    -21.7262321 -0.984587E-06  0.105E-02    3.29       2.7  T
   5    -21.7262323 -0.225255E-06  0.311E-03    3.29       9.3  T
   6    -21.7262324 -0.258155E-07  0.138E-03    3.29      21.0  T
   7    -21.7262324 -0.637581E-08  0.691E-04    3.29      41.8  T
     SCC iter.                  ...        0 min,  0.092 sec
     gradient                   ...        0 min,  0.001 sec
 * total energy  :   -21.5586600 Eh     change       -0.4011605E-03 Eh
   gradient norm :     0.0058346 Eh/α   predicted    -0.3169956E-03 ( -20.98%)
   displ. norm   :     0.4225030 α      lambda       -0.4657306E-03
   maximum displ.:     0.3504288 α      in ANC's #3, #5, #2, ...

........................................................................
.............................. CYCLE   10 ..............................
........................................................................
   1    -21.7196486 -0.217196E+02  0.446E-01    3.23       0.0  T
   2    -21.7196880 -0.393740E-04  0.280E-01    3.24       1.0  T
   3    -21.7197079 -0.198843E-04  0.348E-02    3.24       1.0  T
   4    -21.7197125 -0.459657E-05  0.182E-02    3.25       1.6  T
   5    -21.7197130 -0.506097E-06  0.992E-03    3.24       2.9  T
   6    -21.7197132 -0.266002E-06  0.325E-03    3.24       8.9  T
   7    -21.7197133 -0.366768E-07  0.142E-03    3.24      20.3  T
   8    -21.7197133 -0.648633E-08  0.761E-04    3.24      37.9  T
     SCC iter.                  ...        0 min,  0.002 sec
     gradient                   ...        0 min,  0.001 sec
 * total energy  :   -21.5586345 Eh     change        0.2546243E-04 Eh
   gradient norm :     0.0278131 Eh/α   predicted    -0.2744292E-03 (*******%)
   displ. norm   :     0.1150567 α      lambda       -0.8062747E-03
   maximum displ.:     0.0993097 α      in ANC's #3, #4, #6, ...

........................................................................
.............................. CYCLE   11 ..............................
........................................................................
   1    -21.7270559 -0.217271E+02  0.152E-01    3.33       0.0  T
   2    -21.7270679 -0.120319E-04  0.945E-02    3.32       1.0  T
   3    -21.7270692 -0.130561E-05  0.238E-02    3.32       1.2  T
   4    -21.7270712 -0.200912E-05  0.753E-03    3.31       3.8  T
   5    -21.7270714 -0.174702E-06  0.456E-03    3.31       6.3  T
   6    -21.7270714 -0.548071E-07  0.216E-03    3.31      13.4  T
     SCC iter.                  ...        0 min,  0.091 sec
     gradient                   ...        0 min,  0.001 sec
 * total energy  :   -21.5590312 Eh     change       -0.3966208E-03 Eh
   gradient norm :     0.0053898 Eh/α   predicted    -0.4084744E-03 (   2.99%)
   displ. norm   :     0.1464077 α      lambda       -0.1983391E-03
   maximum displ.:     0.0963842 α      in ANC's #3, #5, #2, ...

........................................................................
.............................. CYCLE   12 ..............................
........................................................................
   1    -21.7273880 -0.217274E+02  0.135E-01    3.31       0.0  T
   2    -21.7273906 -0.260334E-05  0.845E-02    3.31       1.0  T
   3    -21.7273925 -0.189521E-05  0.757E-03    3.32       3.8  T
   4    -21.7273926 -0.652784E-07  0.429E-03    3.32       6.7  T
   5    -21.7273926 -0.239914E-07  0.142E-03    3.31      20.3  T
   6    -21.7273926 -0.568256E-08  0.555E-04    3.32      52.0  T
     SCC iter.                  ...        0 min,  0.001 sec
     gradient                   ...        0 min,  0.001 sec
 * total energy  :   -21.5592098 Eh     change       -0.1786065E-03 Eh
   gradient norm :     0.0062775 Eh/α   predicted    -0.1012966E-03 ( -43.29%)
   displ. norm   :     0.5685643 α      lambda       -0.7282969E-03
   maximum displ.:     0.3815974 α      in ANC's #3, #2, #5, ...

........................................................................
.............................. CYCLE   13 ..............................
........................................................................
   1    -21.7205508 -0.217206E+02  0.494E-01    3.24       0.0  T
   2    -21.7205954 -0.445675E-04  0.309E-01    3.27       1.0  T
   3    -21.7206135 -0.180992E-04  0.445E-02    3.26       1.0  T
   4    -21.7206240 -0.105110E-04  0.203E-02    3.27       1.4  T
   5    -21.7206244 -0.463874E-06  0.102E-02    3.27       2.8  T
   6    -21.7206246 -0.176486E-06  0.254E-03    3.27      11.4  T
   7    -21.7206246 -0.186416E-07  0.771E-04    3.27      37.4  T
     SCC iter.                  ...        0 min,  0.002 sec
     gradient                   ...        0 min,  0.001 sec
 * total energy  :   -21.5593934 Eh     change       -0.1836545E-03 Eh
   gradient norm :     0.0249790 Eh/α   predicted    -0.4818778E-03 ( 162.38%)
   displ. norm   :     0.1802844 α      lambda       -0.9195580E-03
   maximum displ.:     0.1445549 α      in ANC's #3, #1, #5, ...

........................................................................
.............................. CYCLE   14 ..............................
........................................................................
   1    -21.7273950 -0.217274E+02  0.197E-01    3.33       0.0  T
   2    -21.7274036 -0.858798E-05  0.124E-01    3.32       1.0  T
   3    -21.7274050 -0.148426E-05  0.216E-02    3.32       1.3  T
   4    -21.7274079 -0.286761E-05  0.785E-03    3.32       3.7  T
   5    -21.7274080 -0.876320E-07  0.463E-03    3.32       6.2  T
   6    -21.7274080 -0.499501E-07  0.132E-03    3.32      21.9  T
     SCC iter.                  ...        0 min,  0.002 sec
     gradient                   ...        0 min,  0.001 sec
 * total energy  :   -21.5597953 Eh     change       -0.4018552E-03 Eh
   gradient norm :     0.0090892 Eh/α   predicted    -0.4747212E-03 (  18.13%)
   displ. norm   :     0.1813720 α      lambda       -0.4239811E-03
   maximum displ.:     0.1211683 α      in ANC's #4, #2, #3, ...

........................................................................
.............................. CYCLE   15 ..............................
........................................................................
   1    -21.7295427 -0.217295E+02  0.164E-01    3.35       0.0  T
   2    -21.7295477 -0.494730E-05  0.103E-01    3.35       1.0  T
   3    -21.7295504 -0.267692E-05  0.124E-02    3.35       2.3  T
   4    -21.7295509 -0.555005E-06  0.692E-03    3.35       4.2  T
   5    -21.7295510 -0.973256E-07  0.313E-03    3.35       9.2  T
   6    -21.7295510 -0.241831E-07  0.121E-03    3.35      23.9  T
   7    -21.7295510 -0.443673E-08  0.501E-04    3.35      57.6  T
     SCC iter.                  ...        0 min,  0.002 sec
     gradient                   ...        0 min,  0.001 sec
 * total energy  :   -21.5600993 Eh     change       -0.3040197E-03 Eh
   gradient norm :     0.0121413 Eh/α   predicted    -0.2189640E-03 ( -27.98%)
   displ. norm   :     0.5934723 α      lambda       -0.1093831E-02
   maximum displ.:     0.3313828 α      in ANC's #2, #4, #3, ...

........................................................................
.............................. CYCLE   16 ..............................
........................................................................
   1    -21.7233324 -0.217233E+02  0.502E-01    3.39       0.0  T
   2    -21.7233760 -0.435660E-04  0.314E-01    3.40       1.0  T
   3    -21.7233962 -0.202653E-04  0.416E-02    3.40       1.0  T
   4    -21.7234049 -0.870992E-05  0.208E-02    3.40       1.4  T
   5    -21.7234056 -0.689777E-06  0.835E-03    3.40       3.5  T
   6    -21.7234058 -0.143418E-06  0.314E-03    3.40       9.2  T
   7    -21.7234058 -0.279643E-07  0.128E-03    3.40      22.5  T
   8    -21.7234058 -0.479756E-08  0.686E-04    3.40      42.1  T
     SCC iter.                  ...        0 min,  0.092 sec
     gradient                   ...        0 min,  0.001 sec
 * total energy  :   -21.5604150 Eh     change       -0.3156716E-03 Eh
   gradient norm :     0.0217779 Eh/α   predicted    -0.7395577E-03 ( 134.28%)
   displ. norm   :     0.1578346 α      lambda       -0.1051345E-02
   maximum displ.:     0.0833301 α      in ANC's #3, #2, #1, ...

........................................................................
.............................. CYCLE   17 ..............................
........................................................................
   1    -21.7277192 -0.217277E+02  0.163E-01    3.37       0.0  T
   2    -21.7277314 -0.121886E-04  0.100E-01    3.38       1.0  T
   3    -21.7277332 -0.180513E-05  0.193E-02    3.38       1.5  T
   4    -21.7277339 -0.621807E-06  0.733E-03    3.38       3.9  T
   5    -21.7277340 -0.189277E-06  0.297E-03    3.38       9.7  T
   6    -21.7277341 -0.224412E-07  0.159E-03    3.38      18.2  T
     SCC iter.                  ...        0 min,  0.001 sec
     gradient                   ...        0 min,  0.001 sec
 * total energy  :   -21.5610255 Eh     change       -0.6104849E-03 Eh
   gradient norm :     0.0100850 Eh/α   predicted    -0.5387684E-03 ( -11.75%)
   displ. norm   :     0.2018916 α      lambda       -0.5143044E-03
   maximum displ.:     0.1327450 α      in ANC's #4, #1, #9, ...

........................................................................
.............................. CYCLE   18 ..............................
........................................................................
   1    -21.7308237 -0.217308E+02  0.269E-01    3.47       0.0  T
   2    -21.7308351 -0.113857E-04  0.170E-01    3.47       1.0  T
   3    -21.7308418 -0.670781E-05  0.155E-02    3.47       1.9  T
   4    -21.7308426 -0.762182E-06  0.856E-03    3.47       3.4  T
   5    -21.7308427 -0.117893E-06  0.406E-03    3.47       7.1  T
   6    -21.7308428 -0.477647E-07  0.164E-03    3.47      17.6  T
   7    -21.7308428 -0.950867E-08  0.927E-04    3.47      31.1  T
     SCC iter.                  ...        0 min,  0.002 sec
     gradient                   ...        0 min,  0.091 sec
 * total energy  :   -21.5612086 Eh     change       -0.1831012E-03 Eh
   gradient norm :     0.0147341 Eh/α   predicted    -0.2676336E-03 (  46.17%)
   displ. norm   :     0.4039381 α      lambda       -0.6851982E-03
   maximum displ.:     0.2593244 α      in ANC's #4, #3, #20, ...

........................................................................
.............................. CYCLE   19 ..............................
........................................................................
   1    -21.7236760 -0.217237E+02  0.456E-01    3.35       0.0  T
   2    -21.7237374 -0.613928E-04  0.287E-01    3.39       1.0  T
   3    -21.7237529 -0.155628E-04  0.469E-02    3.39       1.0  T
   4    -21.7237635 -0.105228E-04  0.178E-02    3.40       1.6  T
   5    -21.7237641 -0.666820E-06  0.103E-02    3.39       2.8  T
   6    -21.7237644 -0.226037E-06  0.447E-03    3.39       6.5  T
   7    -21.7237644 -0.554171E-07  0.128E-03    3.39      22.5  T
   8    -21.7237644 -0.582209E-08  0.436E-04    3.39      66.2  T
     SCC iter.                  ...        0 min,  0.002 sec
     gradient                   ...        0 min,  0.001 sec
 * total energy  :   -21.5611277 Eh     change        0.8084023E-04 Eh
   gradient norm :     0.0291223 Eh/α   predicted    -0.3984999E-03 (-592.95%)
   displ. norm   :     0.2325315 α      lambda       -0.8679031E-03
   maximum displ.:     0.1503387 α      in ANC's #4, #2, #9, ...

........................................................................
.............................. CYCLE   20 ..............................
........................................................................
   1    -21.7296234 -0.217296E+02  0.269E-01    3.43       0.0  T
   2    -21.7296426 -0.191733E-04  0.169E-01    3.42       1.0  T
   3    -21.7296488 -0.620432E-05  0.237E-02    3.42       1.2  T
   4    -21.7296509 -0.214373E-05  0.985E-03    3.42       2.9  T
   5    -21.7296511 -0.150912E-06  0.550E-03    3.42       5.3  T
   6    -21.7296511 -0.748366E-07  0.236E-03    3.42      12.2  T
     SCC iter.                  ...        0 min,  0.001 sec
     gradient                   ...        0 min,  0.001 sec
 * total energy  :   -21.5614964 Eh     change       -0.3687092E-03 Eh
   gradient norm :     0.0072614 Eh/α   predicted    -0.4574173E-03 (  24.06%)
   displ. norm   :     0.0686698 α      lambda       -0.1025386E-03
   maximum displ.:     0.0402420 α      in ANC's #4, #1, #2, ...
 * RMSD in coord.:     0.8065068 α      energy gain  -0.1860437E-01 Eh

generating ANC from model Hessian ...
Using Lindh-Hessian (1995)
 Shifting diagonal of input Hessian by   7.235433099303275E-003
 Lowest  eigenvalues of input Hessian
   -0.000000   -0.000000    0.000000    0.000000    0.000000    0.000000
    0.010000    0.011368    0.015095    0.021819    0.032528    0.044216
    0.050400    0.070493    0.089162    0.106720    0.117951    0.121114
 Highest eigenvalues
    1.135256    1.182732    1.227327    1.443481    1.559998    2.217862
 

........................................................................
.............................. CYCLE   21 ..............................
........................................................................
   1    -21.7292246 -0.217292E+02  0.775E-02    3.44       0.0  T
   2    -21.7292259 -0.122865E-05  0.486E-02    3.44       1.0  T
   3    -21.7292263 -0.480936E-06  0.524E-03    3.44       5.5  T
   4    -21.7292264 -0.802223E-07  0.252E-03    3.43      11.5  T
   5    -21.7292264 -0.823292E-08  0.125E-03    3.43      23.0  T
   6    -21.7292264 -0.303231E-08  0.586E-04    3.43      49.2  T
   7    -21.7292264 -0.132203E-08  0.238E-04    3.43     121.3  T
     SCC iter.                  ...        0 min,  0.002 sec
     gradient                   ...        0 min,  0.001 sec
 * total energy  :   -21.5615705 Eh     change       -0.7403700E-04 Eh
   gradient norm :     0.0047275 Eh/α   predicted     0.0000000E+00 (-100.00%)
   displ. norm   :     0.0910953 α      lambda       -0.1576509E-03
   maximum displ.:     0.0722872 α      in ANC's #3, #2, #4, ...

........................................................................
.............................. CYCLE   22 ..............................
........................................................................
   1    -21.7297536 -0.217298E+02  0.807E-02    3.43       0.0  T
   2    -21.7297545 -0.974022E-06  0.500E-02    3.43       1.0  T
   3    -21.7297551 -0.593269E-06  0.528E-03    3.43       5.5  T
   4    -21.7297552 -0.798877E-07  0.311E-03    3.43       9.3  T
   5    -21.7297552 -0.140502E-07  0.140E-03    3.43      20.6  T
   6    -21.7297552 -0.524759E-08  0.375E-04    3.43      77.1  T
     SCC iter.                  ...        0 min,  0.001 sec
     gradient                   ...        0 min,  0.001 sec
 * total energy  :   -21.5616874 Eh     change       -0.1169277E-03 Eh
   gradient norm :     0.0032878 Eh/α   predicted    -0.7947920E-04 ( -32.03%)
   displ. norm   :     0.2641798 α      lambda       -0.3470591E-03
   maximum displ.:     0.1955103 α      in ANC's #3, #2, #1, ...

........................................................................
.............................. CYCLE   23 ..............................
........................................................................
   1    -21.7289376 -0.217289E+02  0.298E-01    3.40       0.0  T
   2    -21.7289527 -0.151580E-04  0.187E-01    3.40       1.0  T
   3    -21.7289638 -0.111023E-04  0.173E-02    3.41       1.7  T
   4    -21.7289642 -0.330660E-06  0.997E-03    3.41       2.9  T
   5    -21.7289643 -0.128142E-06  0.370E-03    3.40       7.8  T
   6    -21.7289644 -0.546788E-07  0.150E-03    3.40      19.2  T
   7    -21.7289644 -0.784839E-08  0.713E-04    3.40      40.5  T
   8    -21.7289644 -0.172493E-08  0.353E-04    3.40      81.9  T
     SCC iter.                  ...        0 min,  0.092 sec
     gradient                   ...        0 min,  0.001 sec
 * total energy  :   -21.5618585 Eh     change       -0.1711001E-03 Eh
   gradient norm :     0.0090498 Eh/α   predicted    -0.1856408E-03 (   8.50%)
   displ. norm   :     0.0406346 α      lambda       -0.8160306E-04
   maximum displ.:     0.0242169 α      in ANC's #3, #4, #2, ...

........................................................................
.............................. CYCLE   24 ..............................
........................................................................
   1    -21.7296758 -0.217297E+02  0.407E-02    3.43       0.0  T
   2    -21.7296763 -0.481312E-06  0.251E-02    3.43       1.1  T
   3    -21.7296762  0.856722E-08  0.615E-03    3.43       4.7  T
   4    -21.7296765 -0.217517E-06  0.182E-03    3.43      15.8  T
   5    -21.7296765 -0.582816E-08  0.909E-04    3.43      31.8  T
     SCC iter.                  ...        0 min,  0.001 sec
     gradient                   ...        0 min,  0.001 sec
 * total energy  :   -21.5619167 Eh     change       -0.5824871E-04 Eh
   gradient norm :     0.0039258 Eh/α   predicted    -0.4086882E-04 ( -29.84%)
   displ. norm   :     0.0937258 α      lambda       -0.5740914E-04
   maximum displ.:     0.0607400 α      in ANC's #3, #2, #4, ...

........................................................................
.............................. CYCLE   25 ..............................
........................................................................
   1    -21.7298747 -0.217299E+02  0.103E-01    3.44       0.0  T
   2    -21.7298764 -0.178880E-05  0.646E-02    3.44       1.0  T
   3    -21.7298777 -0.129454E-05  0.703E-03    3.44       4.1  T
   4    -21.7298779 -0.142364E-06  0.421E-03    3.44       6.9  T
   5    -21.7298779 -0.298984E-07  0.101E-03    3.44      28.5  T
   6    -21.7298779 -0.288181E-08  0.467E-04    3.44      61.9  T
   7    -21.7298779 -0.678092E-09  0.237E-04    3.44     121.9  T
     SCC iter.                  ...        0 min,  0.002 sec
     gradient                   ...        0 min,  0.091 sec
 * total energy  :   -21.5619545 Eh     change       -0.3778530E-04 Eh
   gradient norm :     0.0021079 Eh/α   predicted    -0.2895620E-04 ( -23.37%)
   displ. norm   :     0.0468065 α      lambda       -0.2271205E-04
   maximum displ.:     0.0253846 α      in ANC's #1, #3, #4, ...

........................................................................
.............................. CYCLE   26 ..............................
........................................................................
   1    -21.7304045 -0.217304E+02  0.554E-02    3.45       0.0  T
   2    -21.7304050 -0.517706E-06  0.347E-02    3.45       1.0  T
   3    -21.7304053 -0.337059E-06  0.402E-03    3.45       7.2  T
   4    -21.7304054 -0.575056E-07  0.221E-03    3.45      13.0  T
   5    -21.7304054 -0.683018E-08  0.639E-04    3.45      45.2  T
   6    -21.7304054 -0.763926E-09  0.218E-04    3.45     132.2  T
     SCC iter.                  ...        0 min,  0.001 sec
     gradient                   ...        0 min,  0.001 sec
 * total energy  :   -21.5619695 Eh     change       -0.1493475E-04 Eh
   gradient norm :     0.0009374 Eh/α   predicted    -0.1138254E-04 ( -23.78%)
   displ. norm   :     0.1123030 α      lambda       -0.1595857E-04
   maximum displ.:     0.0677471 α      in ANC's #3, #1, #4, ...

........................................................................
.............................. CYCLE   27 ..............................
........................................................................
   1    -21.7297287 -0.217297E+02  0.121E-01    3.43       0.0  T
   2    -21.7297311 -0.240640E-05  0.755E-02    3.44       1.0  T
   3    -21.7297328 -0.166044E-05  0.750E-03    3.44       3.8  T
   4    -21.7297329 -0.141912E-06  0.456E-03    3.44       6.3  T
   5    -21.7297330 -0.196510E-07  0.160E-03    3.44      18.0  T
   6    -21.7297330 -0.113613E-07  0.385E-04    3.44      75.0  T
   7    -21.7297330 -0.336261E-09  0.179E-04    3.44     161.1  T
     SCC iter.                  ...        0 min,  0.002 sec
     gradient                   ...        0 min,  0.001 sec
 * total energy  :   -21.5619726 Eh     change       -0.3174786E-05 Eh
   gradient norm :     0.0033852 Eh/α   predicted    -0.8023267E-05 ( 152.72%)
   displ. norm   :     0.0340261 α      lambda       -0.1769231E-04
   maximum displ.:     0.0248008 α      in ANC's #2, #3, #5, ...

........................................................................
.............................. CYCLE   28 ..............................
........................................................................
   1    -21.7304165 -0.217304E+02  0.357E-02    3.45       0.0  T
   2    -21.7304168 -0.274594E-06  0.222E-02    3.44       1.3  T
   3    -21.7304169 -0.118120E-06  0.280E-03    3.44      10.3  T
   4    -21.7304169 -0.261202E-07  0.144E-03    3.44      20.1  T
   5    -21.7304169 -0.295289E-08  0.735E-04    3.44      39.3  T
   6    -21.7304169 -0.163826E-08  0.295E-04    3.44      97.9  T
     SCC iter.                  ...        0 min,  0.002 sec
     gradient                   ...        0 min,  0.001 sec
 * total energy  :   -21.5619831 Eh     change       -0.1047150E-04 Eh
   gradient norm :     0.0011200 Eh/α   predicted    -0.8854923E-05 ( -15.44%)
   displ. norm   :     0.0250800 α      lambda       -0.3484941E-05
   maximum displ.:     0.0195443 α      in ANC's #2, #3, #1, ...

........................................................................
.............................. CYCLE   29 ..............................
........................................................................
   1    -21.7304869 -0.217305E+02  0.240E-02    3.44       0.0  T
   2    -21.7304870 -0.122036E-06  0.148E-02    3.44       1.9  T
   3    -21.7304871 -0.519397E-07  0.192E-03    3.44      15.0  T
   4    -21.7304871 -0.113818E-07  0.989E-04    3.44      29.2  T
   5    -21.7304871 -0.155799E-08  0.512E-04    3.44      56.4  T
     SCC iter.                  ...        0 min,  0.001 sec
     gradient                   ...        0 min,  0.001 sec
 * total energy  :   -21.5619861 Eh     change       -0.3009679E-05 Eh
   gradient norm :     0.0006978 Eh/α   predicted    -0.1744704E-05 ( -42.03%)
   displ. norm   :     0.0126289 α      lambda       -0.8378678E-06
   maximum displ.:     0.0080378 α      in ANC's #2, #1, #4, ...

   *** GEOMETRY OPTIMIZATION CONVERGED AFTER 29 ITERATIONS ***

------------------------------------------------------------------------
 total energy gain   :        -0.0190941 Eh      -11.9817 kcal/mol
 total RMSD          :         0.8905380 a0        0.4713 Å
 total power (kW/mol):        -1.7286701 (step)  -33.5812 (real)
------------------------------------------------------------------------

 ANCopt (total)                0 d,  0 h,  0 min,  1.493 sec
 optimizer setup                ...        0 min,  0.000 sec (  0.020%)
 model hessian                  ...        0 min,  0.175 sec ( 11.743%)
 ANC generation                 ...        0 min,  0.001 sec (  0.070%)
 coordinate transformation      ...        0 min,  0.001 sec (  0.079%)
 single point calculation       ...        0 min,  1.214 sec ( 81.304%)
 optimization log               ...        0 min,  0.002 sec (  0.162%)
 hessian update                 ...        0 min,  0.092 sec (  6.144%)
 rational function              ...        0 min,  0.002 sec (  0.145%)

================
 final structure:
================
12
 xtb: 6.2.3 (830e466)
C         1.85589548270201    2.45244703176869   -2.69684614319715
C         0.01602055201033    0.57123562578549   -0.64237117347879
C         1.14698398823608   -0.43385581742937   -0.66559939673158
O         0.56769372651710    1.95901745433596   -2.42141174475711
O         0.35725583717178    1.87702936375192   -1.01250722757798
O         2.28099998613841   -0.21906319789879   -0.97254264164367
H         1.98620912537416    3.45970893841546   -2.29284494667522
H         2.62990467738421    1.78803245802510   -2.30386886120680
H         1.89768307246798    2.47850274135070   -3.78440295519216
H         0.80383371438566   -1.44349806852278   -0.36123787193165
H        -0.80272888110614    0.18594774978971   -1.26794147454263
H        -0.35075128128143    0.66410572062793    0.38578443693479
 
 Bond Distances (Angstroems)
 ---------------------------
C1-O4=1.4067         C1-H7=1.0931         C1-H8=1.0931         C1-H9=1.0887         C2-C3=1.5132         C2-O5=1.3995         
C2-H11=1.1001        C2-H12=1.0956        C3-C2=1.5132         C3-O6=1.1943         C3-H10=1.1089        O4-C1=1.4067         
O4-O5=1.4269         O5-C2=1.3995         O5-O4=1.4269         O6-C3=1.1943         H7-C1=1.0931         H8-C1=1.0931         
H9-C1=1.0887         H10-C3=1.1089        H11-C2=1.1001        H12-C2=1.0956        
 C  H  Rav=1.0966 sigma=0.0065  Rmin=1.0887  Rmax=1.1089     6
 C  C  Rav=1.5132 sigma=0.0000  Rmin=1.5132  Rmax=1.5132     1
 O  C  Rav=1.3335 sigma=0.0985  Rmin=1.1943  Rmax=1.4067     3
 O  O  Rav=1.4269 sigma=0.0000  Rmin=1.4269  Rmax=1.4269     1
 
 selected bond angles (degree)
 --------------------
H7-C1-O4=111.10                H8-C1-O4=111.40                H8-C1-H7=110.05                H9-C1-O4=103.84                
H9-C1-H7=110.04                H9-C1-H8=110.27                O5-C2-C3=115.69                H11-C2-C3=108.35               
H11-C2-O5=110.97               H12-C2-C3=108.72               H12-C2-O5=104.52               H12-C2-H11=108.31              
O6-C3-C2=126.45                H10-C3-C2=111.67               H10-C3-O6=121.88               O5-O4-C1=110.40                
O4-O5-C2=110.53                
 
 selected dihedral angles (degree)
 ---------------------------------
O6-C3-C2-O5=359.56            O6-C3-C2-H11=124.87           O6-C3-C2-H12=242.38           H10-C3-C2-O5=179.97           
H10-C3-C2-H11=305.27          H10-C3-C2-H12= 62.79          O5-O4-C1-H7=298.70            O5-O4-C1-H8= 61.78            
O5-O4-C1-H9=180.45            O4-O5-C2-C3= 73.53            O4-O5-C2-H11=309.58           O4-O5-C2-H12=193.03           
C2-O5-O4-C1=236.84            
           -------------------------------------------------
          |                Final Singlepoint                |
           -------------------------------------------------

          ...................................................
          :                      SETUP                      :
          :.................................................:
          :  # basis functions                  30          :
          :  # atomic orbitals                  30          :
          :  # shells                           18          :
          :  # electrons                        36          :
          :  max. iterations                   100          :
          :  Hamiltonian                  GFN2-xTB          :
          :  restarted?                      false          :
          :  GBSA solvation                  false          :
          :  PC potential                    false          :
          :  electronic temp.          300.0000000     K    :
          :  accuracy                    1.0000000          :
          :  -> integral cutoff          0.2500000E+02      :
          :  -> integral neglect         0.1000000E-07      :
          :  -> SCF convergence          0.1000000E-05 Eh   :
          :  -> wf. convergence          0.1000000E-03 e    :
          :  Broyden damping             0.4000000          :
          ...................................................

 iter      E             dE          RMSdq      gap      omega  full diag
   1    -21.7304871 -0.217305E+02  0.204E-04    3.44       0.0  T
   2    -21.7304871 -0.971170E-10  0.133E-04    3.44     217.7  T
   3    -21.7304871 -0.403482E-10  0.931E-05    3.44     310.1  T

   *** convergence criteria satisfied after 3 iterations ***

         #    Occupation            Energy/Eh            Energy/eV
      -------------------------------------------------------------
         1        2.0000           -0.7406443             -20.1540
       ...           ...                  ...                  ...
        12        2.0000           -0.5319764             -14.4758
        13        2.0000           -0.5173909             -14.0789
        14        2.0000           -0.5081392             -13.8272
        15        2.0000           -0.4768729             -12.9764
        16        2.0000           -0.4631166             -12.6020
        17        2.0000           -0.4249789             -11.5643
        18        2.0000           -0.4078187             -11.0973 (HOMO)
        19                         -0.2813217              -7.6552 (LUMO)
        20                         -0.1527850              -4.1575
        21                          0.0384955               1.0475
        22                          0.0823824               2.2417
        23                          0.1013729               2.7585
       ...                                ...                  ...
        30                          0.6165502              16.7772
      -------------------------------------------------------------
                  HL-Gap            0.1264970 Eh            3.4422 eV
             Fermi-level           -0.3445702 Eh           -9.3762 eV

 SCC (total)                   0 d,  0 h,  0 min,  0.092 sec
 SCC setup                      ...        0 min,  0.000 sec (  0.114%)
 Dispersion                     ...        0 min,  0.000 sec (  0.040%)
 integral evaluation            ...        0 min,  0.090 sec ( 97.310%)
 zeroth order Hamiltonian       ...        0 min,  0.000 sec (  0.148%)
 iterations                     ...        0 min,  0.001 sec (  0.858%)
 molecular gradient             ...        0 min,  0.001 sec (  1.092%)
 printout                       ...        0 min,  0.000 sec (  0.217%)

         :::::::::::::::::::::::::::::::::::::::::::::::::::::
         ::                     SUMMARY                     ::
         :::::::::::::::::::::::::::::::::::::::::::::::::::::
         :: total energy             -21.561986097977 Eh    ::
         :: gradient norm              0.000699087226 Eh/a0 ::
         :: HOMO-LUMO gap              3.442159387565 eV    ::
         ::.................................................::
         :: SCC energy               -21.730487098039 Eh    ::
         :: -> isotropic ES            0.041783401426 Eh    ::
         :: -> anisotropic ES         -0.003361476456 Eh    ::
         :: -> anisotropic XC         -0.004388345106 Eh    ::
         :: -> dispersion             -0.005871114874 Eh    ::
         :: repulsion energy           0.168494116057 Eh    ::
         :: add. restraining           0.000000000000 Eh    ::
         :::::::::::::::::::::::::::::::::::::::::::::::::::::

           -------------------------------------------------
          |                Property Printout                |
           -------------------------------------------------

    * Orbital Energies and Occupations

         #    Occupation            Energy/Eh            Energy/eV
      -------------------------------------------------------------
         1        2.0000           -0.7406443             -20.1540
       ...           ...                  ...                  ...
         6        2.0000           -0.6290486             -17.1173
         7        2.0000           -0.6028060             -16.4032
         8        2.0000           -0.5878280             -15.9956
         9        2.0000           -0.5793671             -15.7654
        10        2.0000           -0.5591545             -15.2154
        11        2.0000           -0.5562065             -15.1351
        12        2.0000           -0.5319764             -14.4758
        13        2.0000           -0.5173909             -14.0789
        14        2.0000           -0.5081392             -13.8272
        15        2.0000           -0.4768729             -12.9764
        16        2.0000           -0.4631166             -12.6020
        17        2.0000           -0.4249789             -11.5643
        18        2.0000           -0.4078187             -11.0973 (HOMO)
        19                         -0.2813217              -7.6552 (LUMO)
        20                         -0.1527850              -4.1575
        21                          0.0384955               1.0475
        22                          0.0823824               2.2417
        23                          0.1013729               2.7585
        24                          0.1282856               3.4908
        25                          0.1471513               4.0042
        26                          0.1826280               4.9696
        27                          0.1978647               5.3842
        28                          0.2123024               5.7770
        29                          0.2227434               6.0612
        30                          0.6165502              16.7772
      -------------------------------------------------------------
                  HL-Gap            0.1264970 Eh            3.4422 eV
             Fermi-level           -0.3445702 Eh           -9.3762 eV

     #   Z        covCN         q      C6AA      α(0)
     1   6 C      3.625     0.032    20.456     6.517
     2   6 C      3.677     0.057    19.829     6.380
     3   6 C      2.754     0.209    23.561     7.948
     4   8 O      1.779    -0.202    17.350     5.625
     5   8 O      1.780    -0.194    17.228     5.605
     6   8 O      0.856    -0.291    19.618     5.938
     7   1 H      0.924     0.053     2.287     2.365
     8   1 H      0.924     0.069     2.099     2.266
     9   1 H      0.925     0.072     2.066     2.248
    10   1 H      0.922     0.025     2.665     2.553
    11   1 H      0.923     0.077     2.007     2.215
    12   1 H      0.924     0.093     1.851     2.128

 Mol. C6AA /au·bohr⁶  :       1243.834153
 Mol. C8AA /au·bohr⁸  :      26168.535012
 Mol. α(0) /au        :         51.787565


Wiberg/Mayer (AO) data.
largest (>0.10) Wiberg bond orders for each atom
          total WBO             WBO to atom ...
     1  C   3.932        O    4 0.994    H    7 0.979    H    8 0.974    H    9 0.964
     2  C   3.957        O    5 1.008    C    3 0.991    H   11 0.938    H   12 0.928
     3  C   3.921        O    6 1.948    C    2 0.991    H   10 0.928
     4  O   2.015        C    1 0.994    O    5 0.946
     5  O   2.052        C    2 1.008    O    4 0.946
     6  O   2.122        C    3 1.948
     7  H   0.997        C    1 0.979
     8  H   0.995        C    1 0.974
     9  H   0.995        C    1 0.964
    10  H   0.999        C    3 0.928
    11  H   0.994        C    2 0.938
    12  H   0.991        C    2 0.928

molecular dipole:
                 x           y           z       tot (Debye)
 q only:       -0.378      -0.287       0.158
   full:       -0.528      -0.437       0.246       1.850
molecular quadrupole (traceless):
                xx          xy          yy          xz          yz          zz
 q only:       -1.898       4.257       0.042      -2.365      -1.416       1.856
  q+dip:       -2.953       3.803       1.000      -1.213      -0.526       1.952
   full:       -3.409       4.294       0.383      -1.372      -0.555       3.026

           -------------------------------------------------
          |                Geometry Summary                 |
           -------------------------------------------------

      molecular mass/u    :       90.0780670
   center of mass at/Å    :        1.0409370       1.0675712      -1.4243478
  moments of inertia/u·Å² :        0.8660619E+02   0.1763544E+03   0.2402005E+03
rotational constants/cm⁻¹ :        0.1946470E+00   0.9558953E-01   0.7018150E-01

 * 9 selected distances

     #   Z        #   Z                                     value/Å
     1   6 C      4   8 O                                 1.4066985
     2   6 C      5   8 O                                 1.3994783
     4   8 O      5   8 O                                 1.4268911 (max)
     3   6 C      6   8 O                                 1.1942957
     1   6 C      7   1 H                                 1.0930577
     1   6 C      8   1 H                                 1.0931460
     1   6 C      9   1 H                                 1.0886712 (min)
     2   6 C     11   1 H                                 1.1000616
     2   6 C     12   1 H                                 1.0955594

 * 3 distinct bonds (by element types)

   Z      Z             #   av. dist./Å        max./Å        min./Å
   1 H    6 C           5     1.0940992     1.1000616     1.0886712
   6 C    8 O           3     1.3334908     1.4066985     1.1942957
   8 O    8 O           1     1.4268911     1.4268911     1.4268911


optimized geometry written to: xtbopt.xyz


           -------------------------------------------------
          | TOTAL ENERGY              -21.561986097977 Eh   |
          | GRADIENT NORM               0.000699087226 Eh/α |
          | HOMO-LUMO GAP               3.442159387565 eV   |
           -------------------------------------------------

------------------------------------------------------------------------
 * finished run on 2020/12/23 at 21:43:16.568     
------------------------------------------------------------------------
 total:
 * wall-time:     0 d,  0 h,  0 min,  1.792 sec
 *  cpu-time:     0 d,  0 h,  0 min,  7.512 sec
 * ratio c/w:     4.193 speedup
 SCF:
 * wall-time:     0 d,  0 h,  0 min,  0.011 sec
 *  cpu-time:     0 d,  0 h,  0 min,  0.201 sec
 * ratio c/w:    18.964 speedup
 ANC optimizer:
 * wall-time:     0 d,  0 h,  0 min,  1.588 sec
 *  cpu-time:     0 d,  0 h,  0 min,  6.220 sec
 * ratio c/w:     3.917 speedup

