      -----------------------------------------------------------      
     |                   =====================                   |     
     |                           x T B                           |     
     |                   =====================                   |     
     |                         S. Grimme                         |     
     |          Mulliken Center for Theoretical Chemistry        |     
     |                    University of Bonn                     |     
      -----------------------------------------------------------      

   * xtb version 6.2.3 (830e466) compiled by 'ehlert@majestix' on 2020-03-16

   xtb is free software: you can redistribute it and/or modify it under
   the terms of the GNU Lesser General Public License as published by
   the Free Software Foundation, either version 3 of the License, or
   (at your option) any later version.
   
   xtb is distributed in the hope that it will be useful,
   but WITHOUT ANY WARRANTY; without even the implied warranty of
   MERCHANTABILITY or FITNESS FOR A PARTICULAR PURPOSE.  See the
   GNU Lesser General Public License for more details.
   
   Cite this work as:
   * S. Grimme, C. Bannwarth, P. Shushkov, J. Chem. Theory Comput., 2017,
     13, 1989-2009. DOI: 10.1021/acs.jctc.7b00118
   * C. Bannwarth, S. Ehlert and S. Grimme., J. Chem. Theory Comput., 2019,
     15, 1652-1671. DOI: 10.1021/acs.jctc.8b01176
   * P. Pracht, E. Caldeweyher, S. Ehlert, S. Grimme, ChemRxiv, 2019, preprint.
     DOI: 10.26434/chemrxiv.8326202.v1
   
   for DFT-D4:
   * E. Caldeweyher, C. Bannwarth and S. Grimme, J. Chem. Phys., 2017,
     147, 034112. DOI: 10.1063/1.4993215
   * E. Caldeweyher, S. Ehlert, A. Hansen, H. Neugebauer, S. Spicher,
     C. Bannwarth and S. Grimme, J. Chem. Phys., 2019, 150, 154122.
     DOI: 10.1063/1.5090222
   
   for sTDA-xTB:
   * S. Grimme and C. Bannwarth, J. Chem. Phys., 2016, 145, 054103.
     DOI: 10.1063/1.4959605
   
   in the mass-spec context:
   * V. Asgeirsson, C. Bauer and S. Grimme, Chem. Sci., 2017, 8, 4879.
     DOI: 10.1039/c7sc00601b
   
   for metadynamics refer to:
   * S. Grimme, J. Chem. Theory Comput., 2019, 155, 2847-2862
     DOI: 10.1021/acs.jctc.9b00143
   
   with help from (in alphabetical order)
   C. Bannwarth, F. Bohle, G. Brandenburg, E. Caldeweyher, M. Checinski,
   S. Dohm, S. Ehlert, S. Ehrlich, F. März, H. Neugebauer, J. Pisarek,
   P. Pracht, P. Shushkov, and S. Spicher.
   
 * started run on 2020/12/23 at 21:42:38.563     

           -------------------------------------------------
          |                Calculation Setup                |
           -------------------------------------------------

          program call               : xtb -c 0 -u 0 -a 1.0 --iterations 100 --opt normal --namespace product_25 /scratch/bell/zhao922/YARP/paper-example/potential_product/test/reaction_channel/pp_0/pp_24_0.xyz
          hostname                   : bell-fe05.rcac.purdue.edu
          calculation namespace      : product_25
          coordinate file            : /scratch/bell/zhao922/YARP/paper-example/potential_product/test/reaction_channel/pp_0/pp_24_0.xyz
          omp threads                :                    32
          number of atoms            :                    12
          number of electrons        :                    36
          charge                     :                     0
          spin                       :                   0.0
          first test random number   :      0.76758242456452

           ------------------------------------------------- 
          |                 G F N 2 - x T B                 |
          | Geometry, Frequencies, Noncovalent interactions |
          |            JCTC 2019 parametrisation            |
           ------------------------------------------------- 
             k(s)              :                1.8500
             k(p)              :                2.2300
             k(d)              :                2.2300
             k(f)              :                2.0000
             kEN (H0ij)        :               -2.0000
             D4 a1             :                0.5200
             D4 a2             :                5.0000
             D4 s6             :                1.0000
             D4 s8             :                2.7000
             D4 s9             :                5.0000
             alphaj            :                2.0000

  Z AO/shell   Hii/eV     exponent
  1     Wed Apr 25 08:07:45 CEST 2018   EN: 2.200 GM2: 0.406  GM3: 0.0800  RAES: 1.40
     1s    -10.707211    1.230000
  6     Wed Apr 25 08:07:45 CEST 2018   EN: 2.550 GM2: 0.538  GM3: 0.1500  RAES: 3.00
     2s    -13.970922    2.096432
     2p    -10.063292    1.800000
  8     Wed Apr 25 08:07:45 CEST 2018   EN: 3.440 GM2: 0.452  GM3:-0.0517  RAES: 1.80
     2s    -20.229985    2.439742
     2p    -15.503117    2.137023

           ------------------------------------------------- 
          |        Self-Consistent Charge Iterations        |
           ------------------------------------------------- 

          ...................................................
          :                      SETUP                      :
          :.................................................:
          :  # basis functions                  30          :
          :  # atomic orbitals                  30          :
          :  # shells                           18          :
          :  # electrons                        36          :
          :  max. iterations                   100          :
          :  Hamiltonian                  GFN2-xTB          :
          :  restarted?                      false          :
          :  GBSA solvation                  false          :
          :  PC potential                    false          :
          :  electronic temp.          300.0000000     K    :
          :  accuracy                    1.0000000          :
          :  -> integral cutoff          0.2500000E+02      :
          :  -> integral neglect         0.1000000E-07      :
          :  -> SCF convergence          0.1000000E-05 Eh   :
          :  -> wf. convergence          0.1000000E-03 e    :
          :  Broyden damping             0.4000000          :
          ...................................................

 iter      E             dE          RMSdq      gap      omega  full diag
   1    -21.7753014 -0.217753E+02  0.478E+00    5.57       0.0  T
   2    -21.8228991 -0.475977E-01  0.247E+00    4.36       1.0  T
   3    -21.8261665 -0.326744E-02  0.142E+00    4.86       1.0  T
   4    -21.8297229 -0.355637E-02  0.204E-01    4.56       1.0  T
   5    -21.8299110 -0.188097E-03  0.910E-02    4.62       1.0  T
   6    -21.8299169 -0.593471E-05  0.279E-02    4.63       1.0  T
   7    -21.8299187 -0.177390E-05  0.103E-02    4.62       2.8  T
   8    -21.8299189 -0.184983E-06  0.316E-03    4.62       9.1  T
   9    -21.8299189 -0.664265E-08  0.113E-03    4.62      25.5  T
  10    -21.8299189 -0.452833E-08  0.469E-04    4.62      61.6  T
  11    -21.8299189 -0.511047E-09  0.217E-04    4.62     133.3  T

   *** convergence criteria satisfied after 11 iterations ***

         #    Occupation            Energy/Eh            Energy/eV
      -------------------------------------------------------------
         1        2.0000           -0.7501479             -20.4126
       ...           ...                  ...                  ...
        12        2.0000           -0.5267258             -14.3329
        13        2.0000           -0.5118281             -13.9276
        14        2.0000           -0.4990429             -13.5796
        15        2.0000           -0.4781833             -13.0120
        16        2.0000           -0.4665177             -12.6946
        17        2.0000           -0.4425931             -12.0436
        18        2.0000           -0.4199380             -11.4271 (HOMO)
        19                         -0.2501372              -6.8066 (LUMO)
        20                          0.0125942               0.3427
        21                          0.0186710               0.5081
        22                          0.0707014               1.9239
        23                          0.0817166               2.2236
       ...                                ...                  ...
        30                          0.5537497              15.0683
      -------------------------------------------------------------
                  HL-Gap            0.1698008 Eh            4.6205 eV
             Fermi-level           -0.3350376 Eh           -9.1168 eV

 SCC (total)                   0 d,  0 h,  0 min,  0.103 sec
 SCC setup                      ...        0 min,  0.000 sec (  0.108%)
 Dispersion                     ...        0 min,  0.000 sec (  0.040%)
 integral evaluation            ...        0 min,  0.014 sec ( 13.478%)
 zeroth order Hamiltonian       ...        0 min,  0.000 sec (  0.062%)
 iterations                     ...        0 min,  0.086 sec ( 83.629%)
 molecular gradient             ...        0 min,  0.003 sec (  2.452%)
 printout                       ...        0 min,  0.000 sec (  0.092%)

         :::::::::::::::::::::::::::::::::::::::::::::::::::::
         ::                     SUMMARY                     ::
         :::::::::::::::::::::::::::::::::::::::::::::::::::::
         :: total energy             -21.663038887207 Eh    ::
         :: gradient norm              0.066224500573 Eh/a0 ::
         :: HOMO-LUMO gap              4.620514888798 eV    ::
         ::.................................................::
         :: SCC energy               -21.829918895245 Eh    ::
         :: -> isotropic ES            0.071596089127 Eh    ::
         :: -> anisotropic ES          0.004372451559 Eh    ::
         :: -> anisotropic XC         -0.000702798304 Eh    ::
         :: -> dispersion             -0.005842637214 Eh    ::
         :: repulsion energy           0.166874439086 Eh    ::
         :: add. restraining           0.000000000000 Eh    ::
         :::::::::::::::::::::::::::::::::::::::::::::::::::::

      ----------------------------------------------------------- 
     |                   =====================                   |
     |                        A N C O P T                        |
     |                   =====================                   |
     |               Approximate Normal Coordinate               |
     |                Rational Function Optimizer                |
      ----------------------------------------------------------- 

          ...................................................
          :                      SETUP                      :
          :.................................................:
          :   optimization level            normal          :
          :   max. optcycles                   200          :
          :   ANC micro-cycles                  20          :
          :   degrees of freedom                30          :
          :.................................................:
          :   RF solver                   davidson          :
          :   write xtbopt.log                true          :
          :   linear?                        false          :
          :   energy convergence         0.5000000E-05 Eh   :
          :   grad. convergence          0.1000000E-02 Eh/α :
          :   maximium RF displ.         1.0000000          :
          :   Hlow (freq-cutoff)         0.1000000E-01      :
          :   Hmax (freq-cutoff)         5.0000000          :
          :   S6 in model hess.         20.0000000          :
          ...................................................

generating ANC from model Hessian ...
Using Lindh-Hessian (1995)
 Shifting diagonal of input Hessian by   5.454910443057958E-003
 Lowest  eigenvalues of input Hessian
   -0.000000   -0.000000   -0.000000   -0.000000    0.000000    0.000000
    0.010000    0.012037    0.016618    0.023197    0.035919    0.049848
    0.061584    0.063596    0.069451    0.082194    0.087074    0.095623
 Highest eigenvalues
    1.160794    1.208666    1.334723    1.460193    1.768221    2.220405
 

........................................................................
.............................. CYCLE    1 ..............................
........................................................................
   1    -21.8299189 -0.218299E+02  0.607E-05    4.62       0.0  T
   2    -21.8299189 -0.189253E-10  0.314E-05    4.62     919.9  T
   3    -21.8299189 -0.460787E-11  0.182E-05    4.62    1590.1  T
     SCC iter.                  ...        0 min,  0.001 sec
     gradient                   ...        0 min,  0.002 sec
 * total energy  :   -21.6630389 Eh     change        0.1522324E-08 Eh
   gradient norm :     0.0662281 Eh/α   predicted     0.0000000E+00 (-100.00%)
   displ. norm   :     0.2502547 α      lambda       -0.7576762E-02
   maximum displ.:     0.1334397 α      in ANC's #7, #9, #13, ...

........................................................................
.............................. CYCLE    2 ..............................
........................................................................
   1    -21.8481624 -0.218482E+02  0.293E-01    4.87       0.0  T
   2    -21.8482911 -0.128702E-03  0.178E-01    4.85       1.0  T
   3    -21.8482998 -0.864318E-05  0.703E-02    4.85       1.0  T
   4    -21.8483042 -0.444759E-05  0.133E-02    4.85       2.2  T
   5    -21.8483045 -0.235471E-06  0.672E-03    4.85       4.3  T
   6    -21.8483045 -0.372700E-07  0.272E-03    4.85      10.6  T
   7    -21.8483045 -0.943579E-08  0.771E-04    4.85      37.5  T
     SCC iter.                  ...        0 min,  0.003 sec
     gradient                   ...        0 min,  0.002 sec
 * total energy  :   -21.6680349 Eh     change       -0.4996029E-02 Eh
   gradient norm :     0.0244351 Eh/α   predicted    -0.4025640E-02 ( -19.42%)
   displ. norm   :     0.2345770 α      lambda       -0.2416714E-02
   maximum displ.:     0.1502486 α      in ANC's #5, #1, #4, ...

........................................................................
.............................. CYCLE    3 ..............................
........................................................................
   1    -21.8561089 -0.218561E+02  0.255E-01    4.95       0.0  T
   2    -21.8561643 -0.553107E-04  0.157E-01    4.95       1.0  T
   3    -21.8561677 -0.339146E-05  0.491E-02    4.94       1.0  T
   4    -21.8561730 -0.537990E-05  0.132E-02    4.95       2.2  T
   5    -21.8561735 -0.442191E-06  0.646E-03    4.94       4.5  T
   6    -21.8561735 -0.515936E-07  0.283E-03    4.95      10.2  T
   7    -21.8561735 -0.833207E-08  0.639E-04    4.94      45.2  T
     SCC iter.                  ...        0 min,  0.089 sec
     gradient                   ...        0 min,  0.002 sec
 * total energy  :   -21.6693843 Eh     change       -0.1349429E-02 Eh
   gradient norm :     0.0153874 Eh/α   predicted    -0.1274842E-02 (  -5.53%)
   displ. norm   :     0.1787077 α      lambda       -0.8566943E-03
   maximum displ.:     0.1034592 α      in ANC's #4, #1, #5, ...

........................................................................
.............................. CYCLE    4 ..............................
........................................................................
   1    -21.8555179 -0.218555E+02  0.237E-01    4.93       0.0  T
   2    -21.8555332 -0.153233E-04  0.147E-01    4.95       1.0  T
   3    -21.8555307  0.246712E-05  0.351E-02    4.93       1.0  T
   4    -21.8555391 -0.838386E-05  0.838E-03    4.94       3.4  T
   5    -21.8555392 -0.484089E-07  0.352E-03    4.94       8.2  T
   6    -21.8555392 -0.149901E-07  0.705E-04    4.94      40.9  T
   7    -21.8555392 -0.722029E-09  0.304E-04    4.94      94.9  T
     SCC iter.                  ...        0 min,  0.004 sec
     gradient                   ...        0 min,  0.002 sec
 * total energy  :   -21.6698476 Eh     change       -0.4632250E-03 Eh
   gradient norm :     0.0146596 Eh/α   predicted    -0.4420265E-03 (  -4.58%)
   displ. norm   :     0.1085457 α      lambda       -0.3426267E-03
   maximum displ.:     0.0780136 α      in ANC's #1, #4, #5, ...

........................................................................
.............................. CYCLE    5 ..............................
........................................................................
   1    -21.8542713 -0.218543E+02  0.134E-01    4.91       0.0  T
   2    -21.8542749 -0.353109E-05  0.814E-02    4.92       1.0  T
   3    -21.8542735  0.139583E-05  0.188E-02    4.91       1.5  T
   4    -21.8542760 -0.249988E-05  0.358E-03    4.92       8.1  T
   5    -21.8542760 -0.844286E-08  0.118E-03    4.92      24.5  T
   6    -21.8542760 -0.613106E-09  0.346E-04    4.92      83.5  T
     SCC iter.                  ...        0 min,  0.003 sec
     gradient                   ...        0 min,  0.002 sec
 * total energy  :   -21.6700827 Eh     change       -0.2350953E-03 Eh
   gradient norm :     0.0089507 Eh/α   predicted    -0.1733320E-03 ( -26.27%)
   displ. norm   :     0.0941590 α      lambda       -0.2103752E-03
   maximum displ.:     0.0752595 α      in ANC's #1, #3, #4, ...

........................................................................
.............................. CYCLE    6 ..............................
........................................................................
   1    -21.8549356 -0.218549E+02  0.106E-01    4.89       0.0  T
   2    -21.8549380 -0.233066E-05  0.643E-02    4.90       1.0  T
   3    -21.8549378  0.191311E-06  0.125E-02    4.89       2.3  T
   4    -21.8549387 -0.965144E-06  0.362E-03    4.90       8.0  T
   5    -21.8549387 -0.149146E-07  0.157E-03    4.90      18.4  T
   6    -21.8549387 -0.224351E-08  0.528E-04    4.90      54.7  T
     SCC iter.                  ...        0 min,  0.003 sec
     gradient                   ...        0 min,  0.002 sec
 * total energy  :   -21.6701975 Eh     change       -0.1147868E-03 Eh
   gradient norm :     0.0038530 Eh/α   predicted    -0.1061223E-03 (  -7.55%)
   displ. norm   :     0.1156357 α      lambda       -0.8551266E-04
   maximum displ.:     0.1044671 α      in ANC's #1, #4, #3, ...

........................................................................
.............................. CYCLE    7 ..............................
........................................................................
   1    -21.8544287 -0.218544E+02  0.131E-01    4.89       0.0  T
   2    -21.8544302 -0.147713E-05  0.796E-02    4.90       1.0  T
   3    -21.8544304 -0.241669E-06  0.755E-03    4.89       3.8  T
   4    -21.8544307 -0.320854E-06  0.333E-03    4.90       8.7  T
   5    -21.8544308 -0.149161E-07  0.132E-03    4.89      21.9  T
   6    -21.8544308 -0.171737E-08  0.503E-04    4.89      57.4  T
   7    -21.8544308 -0.437939E-09  0.107E-04    4.89     269.5  T
     SCC iter.                  ...        0 min,  0.003 sec
     gradient                   ...        0 min,  0.002 sec
 * total energy  :   -21.6702551 Eh     change       -0.5763974E-04 Eh
   gradient norm :     0.0061789 Eh/α   predicted    -0.4332664E-04 ( -24.83%)
   displ. norm   :     0.0989363 α      lambda       -0.7753359E-04
   maximum displ.:     0.0925255 α      in ANC's #1, #3, #6, ...

........................................................................
.............................. CYCLE    8 ..............................
........................................................................
   1    -21.8548228 -0.218548E+02  0.101E-01    4.90       0.0  T
   2    -21.8548235 -0.664272E-06  0.614E-02    4.90       1.0  T
   3    -21.8548238 -0.317973E-06  0.464E-03    4.90       6.2  T
   4    -21.8548239 -0.724217E-07  0.263E-03    4.90      11.0  T
   5    -21.8548239 -0.459684E-08  0.872E-04    4.90      33.1  T
     SCC iter.                  ...        0 min,  0.002 sec
     gradient                   ...        0 min,  0.002 sec
 * total energy  :   -21.6703223 Eh     change       -0.6718691E-04 Eh
   gradient norm :     0.0045907 Eh/α   predicted    -0.3914722E-04 ( -41.73%)
   displ. norm   :     0.2304263 α      lambda       -0.1585181E-03
   maximum displ.:     0.2170777 α      in ANC's #1, #3, #6, ...

........................................................................
.............................. CYCLE    9 ..............................
........................................................................
   1    -21.8550110 -0.218550E+02  0.233E-01    4.90       0.0  T
   2    -21.8550140 -0.299576E-05  0.142E-01    4.90       1.0  T
   3    -21.8550155 -0.146611E-05  0.107E-02    4.90       2.7  T
   4    -21.8550160 -0.519536E-06  0.593E-03    4.90       4.9  T
   5    -21.8550160 -0.310266E-07  0.154E-03    4.90      18.8  T
   6    -21.8550161 -0.524558E-08  0.260E-04    4.90     110.8  T
     SCC iter.                  ...        0 min,  0.002 sec
     gradient                   ...        0 min,  0.088 sec
 * total energy  :   -21.6704430 Eh     change       -0.1207110E-03 Eh
   gradient norm :     0.0031731 Eh/α   predicted    -0.8346677E-04 ( -30.85%)
   displ. norm   :     0.2378532 α      lambda       -0.1069138E-03
   maximum displ.:     0.2258825 α      in ANC's #1, #3, #6, ...

........................................................................
.............................. CYCLE   10 ..............................
........................................................................
   1    -21.8545847 -0.218546E+02  0.242E-01    4.89       0.0  T
   2    -21.8545873 -0.264258E-05  0.147E-01    4.89       1.0  T
   3    -21.8545893 -0.199412E-05  0.827E-03    4.89       3.5  T
   4    -21.8545894 -0.325081E-07  0.302E-03    4.89       9.6  T
   5    -21.8545894 -0.238347E-07  0.683E-04    4.89      42.3  T
   6    -21.8545894 -0.189578E-08  0.250E-04    4.89     115.3  T
     SCC iter.                  ...        0 min,  0.002 sec
     gradient                   ...        0 min,  0.003 sec
 * total energy  :   -21.6705152 Eh     change       -0.7217076E-04 Eh
   gradient norm :     0.0038071 Eh/α   predicted    -0.5648121E-04 ( -21.74%)
   displ. norm   :     0.1354157 α      lambda       -0.5822448E-04
   maximum displ.:     0.1271000 α      in ANC's #1, #3, #11, ...

........................................................................
.............................. CYCLE   11 ..............................
........................................................................
   1    -21.8556194 -0.218556E+02  0.139E-01    4.90       0.0  T
   2    -21.8556209 -0.141146E-05  0.850E-02    4.90       1.0  T
   3    -21.8556216 -0.728317E-06  0.588E-03    4.90       4.9  T
   4    -21.8556217 -0.775894E-07  0.348E-03    4.90       8.3  T
   5    -21.8556217 -0.172971E-07  0.161E-03    4.90      17.9  T
   6    -21.8556217 -0.315534E-08  0.247E-04    4.90     117.0  T
   7    -21.8556217 -0.102620E-09  0.939E-05    4.90     307.4  T
     SCC iter.                  ...        0 min,  0.003 sec
     gradient                   ...        0 min,  0.087 sec
 * total energy  :   -21.6705524 Eh     change       -0.3726950E-04 Eh
   gradient norm :     0.0017008 Eh/α   predicted    -0.2964809E-04 ( -20.45%)
   displ. norm   :     0.1644084 α      lambda       -0.2401013E-04
   maximum displ.:     0.1486325 α      in ANC's #1, #3, #11, ...

........................................................................
.............................. CYCLE   12 ..............................
........................................................................
   1    -21.8550752 -0.218551E+02  0.180E-01    4.89       0.0  T
   2    -21.8550772 -0.200064E-05  0.110E-01    4.90       1.0  T
   3    -21.8550782 -0.985642E-06  0.816E-03    4.89       3.5  T
   4    -21.8550785 -0.283926E-06  0.459E-03    4.90       6.3  T
   5    -21.8550785 -0.239250E-07  0.123E-03    4.90      23.4  T
   6    -21.8550785 -0.209878E-08  0.301E-04    4.90      95.8  T
   7    -21.8550785 -0.263896E-09  0.127E-04    4.90     227.2  T
     SCC iter.                  ...        0 min,  0.003 sec
     gradient                   ...        0 min,  0.002 sec
 * total energy  :   -21.6705618 Eh     change       -0.9379305E-05 Eh
   gradient norm :     0.0033595 Eh/α   predicted    -0.1214877E-04 (  29.53%)
   displ. norm   :     0.0359690 α      lambda       -0.1835147E-04
   maximum displ.:     0.0321529 α      in ANC's #1, #2, #6, ...

........................................................................
.............................. CYCLE   13 ..............................
........................................................................
   1    -21.8563578 -0.218564E+02  0.410E-02    4.91       0.0  T
   2    -21.8563581 -0.313041E-06  0.248E-02    4.91       1.2  T
   3    -21.8563581  0.486435E-07  0.421E-03    4.91       6.9  T
   4    -21.8563582 -0.120603E-06  0.104E-03    4.91      27.7  T
   5    -21.8563582 -0.178468E-08  0.528E-04    4.91      54.7  T
   6    -21.8563582 -0.269726E-09  0.207E-04    4.91     139.5  T
     SCC iter.                  ...        0 min,  0.002 sec
     gradient                   ...        0 min,  0.003 sec
 * total energy  :   -21.6705679 Eh     change       -0.6124904E-05 Eh
   gradient norm :     0.0012990 Eh/α   predicted    -0.9187950E-05 (  50.01%)
   displ. norm   :     0.0144598 α      lambda       -0.4582924E-05
   maximum displ.:     0.0101262 α      in ANC's #1, #5, #6, ...

........................................................................
.............................. CYCLE   14 ..............................
........................................................................
   1    -21.8558028 -0.218558E+02  0.161E-02    4.91       0.0  T
   2    -21.8558028 -0.387819E-07  0.976E-03    4.91       3.0  T
   3    -21.8558028 -0.189275E-08  0.118E-03    4.91      24.4  T
   4    -21.8558028 -0.637499E-08  0.399E-04    4.91      72.4  T
   5    -21.8558028 -0.305885E-09  0.184E-04    4.91     156.6  T
     SCC iter.                  ...        0 min,  0.002 sec
     gradient                   ...        0 min,  0.002 sec
 * total energy  :   -21.6705702 Eh     change       -0.2234228E-05 Eh
   gradient norm :     0.0007773 Eh/α   predicted    -0.2293435E-05 (   2.65%)
   displ. norm   :     0.0080354 α      lambda       -0.1084931E-05
   maximum displ.:     0.0062926 α      in ANC's #1, #2, #3, ...

   *** GEOMETRY OPTIMIZATION CONVERGED AFTER 14 ITERATIONS ***

------------------------------------------------------------------------
 total energy gain   :        -0.0075313 Eh       -4.7259 kcal/mol
 total RMSD          :         0.4234225 a0        0.2241 Å
 total power (kW/mol):        -1.4123837 (step)  -28.3921 (real)
------------------------------------------------------------------------

 ANCopt (total)                0 d,  0 h,  0 min,  0.696 sec
 optimizer setup                ...        0 min,  0.000 sec (  0.042%)
 model hessian                  ...        0 min,  0.006 sec (  0.890%)
 ANC generation                 ...        0 min,  0.085 sec ( 12.247%)
 coordinate transformation      ...        0 min,  0.000 sec (  0.071%)
 single point calculation       ...        0 min,  0.598 sec ( 85.790%)
 optimization log               ...        0 min,  0.002 sec (  0.235%)
 hessian update                 ...        0 min,  0.002 sec (  0.328%)
 rational function              ...        0 min,  0.001 sec (  0.129%)

================
 final structure:
================
12
 xtb: 6.2.3 (830e466)
C         1.18115153074994    0.78096265586690   -2.49018458142911
C         0.63056856778528    0.87341737151498   -1.05420198796595
C         1.61882326105963    1.59707838013421   -0.15960848134038
O         0.22926803318209    0.27781707409622   -3.38983770904182
O         1.67387394064103    2.92787602272877   -0.33906590964463
O         2.32410553991470    1.05151834403682    0.63581073165190
H         1.04711551721609    3.24332823156981   -1.00383241810245
H         2.09254473411297    0.16789395923957   -2.49038498476806
H         1.43696886829467    1.77511882939912   -2.87018626054711
H         0.00799562100886   -0.62782952116132   -3.14612399611714
H         0.47240298010352   -0.13031549964338   -0.65617444409385
H        -0.32582859406877    1.40274415221830   -1.07201995860138
 
 Bond Distances (Angstroems)
 ---------------------------
C1-C2=1.5407         C1-O4=1.4031         C1-H8=1.0984         C1-H9=1.0946         C2-C1=1.5407         C2-C3=1.5168         
C2-H11=1.0913        C2-H12=1.0933        C3-C2=1.5168         C3-O5=1.3440         C3-O6=1.1949         O4-C1=1.4031         
O4-H10=0.9636        O5-C3=1.3440         O5-H7=0.9666         O6-C3=1.1949         H7-O5=0.9666         H8-C1=1.0984         
H9-C1=1.0946         H10-O4=0.9636        H11-C2=1.0913        H12-C2=1.0933        
 C  H  Rav=1.0944 sigma=0.0026  Rmin=1.0913  Rmax=1.0984     4
 C  C  Rav=1.5287 sigma=0.0120  Rmin=1.5168  Rmax=1.5407     2
 O  H  Rav=0.9651 sigma=0.0015  Rmin=0.9636  Rmax=0.9666     2
 O  C  Rav=1.3140 sigma=0.0876  Rmin=1.1949  Rmax=1.4031     3
 
 selected bond angles (degree)
 --------------------
O4-C1-C2=112.13                H8-C1-C2=109.28                H8-C1-O4=111.26                H9-C1-C2=110.64                
H9-C1-O4=105.17                H9-C1-H8=108.24                C3-C2-C1=110.21                H11-C2-C1=109.67               
H11-C2-C3=108.55               H12-C2-C1=109.06               H12-C2-C3=110.40               H12-C2-H11=108.93              
O5-C3-C2=114.86                O6-C3-C2=124.01                O6-C3-O5=121.12                H10-O4-C1=109.31               
H7-O5-C3=112.86                
 
 selected dihedral angles (degree)
 ---------------------------------
C3-C2-C1-O4=187.85            C3-C2-C1-H8= 64.00            C3-C2-C1-H9=304.92            H11-C2-C1-O4= 68.40           
H11-C2-C1-H8=304.55           H11-C2-C1-H9=185.47           H12-C2-C1-O4=309.19           H12-C2-C1-H8=185.35           
H12-C2-C1-H9= 66.26           O5-C3-C2-C1= 74.68            O5-C3-C2-H11=194.81           O5-C3-C2-H12=314.14           
O6-C3-C2-C1=255.95            O6-C3-C2-H11= 16.07           O6-C3-C2-H12=135.41           H10-O4-C1-C2=296.20           
H10-O4-C1-H8= 58.93           H10-O4-C1-H9=175.89           H7-O5-C3-C2=  1.78            H7-O5-C3-O6=180.56            
           -------------------------------------------------
          |                Final Singlepoint                |
           -------------------------------------------------

          ...................................................
          :                      SETUP                      :
          :.................................................:
          :  # basis functions                  30          :
          :  # atomic orbitals                  30          :
          :  # shells                           18          :
          :  # electrons                        36          :
          :  max. iterations                   100          :
          :  Hamiltonian                  GFN2-xTB          :
          :  restarted?                      false          :
          :  GBSA solvation                  false          :
          :  PC potential                    false          :
          :  electronic temp.          300.0000000     K    :
          :  accuracy                    1.0000000          :
          :  -> integral cutoff          0.2500000E+02      :
          :  -> integral neglect         0.1000000E-07      :
          :  -> SCF convergence          0.1000000E-05 Eh   :
          :  -> wf. convergence          0.1000000E-03 e    :
          :  Broyden damping             0.4000000          :
          ...................................................

 iter      E             dE          RMSdq      gap      omega  full diag
   1    -21.8558028 -0.218558E+02  0.437E-05    4.91       0.0  T
   2    -21.8558028 -0.364864E-11  0.218E-05    4.91    1323.6  T
   3    -21.8558028 -0.355271E-12  0.103E-05    4.91    2811.7  T

   *** convergence criteria satisfied after 3 iterations ***

         #    Occupation            Energy/Eh            Energy/eV
      -------------------------------------------------------------
         1        2.0000           -0.7546751             -20.5358
       ...           ...                  ...                  ...
        12        2.0000           -0.5350493             -14.5594
        13        2.0000           -0.5139552             -13.9854
        14        2.0000           -0.5038909             -13.7116
        15        2.0000           -0.4862312             -13.2310
        16        2.0000           -0.4687825             -12.7562
        17        2.0000           -0.4416694             -12.0184
        18        2.0000           -0.4261569             -11.5963 (HOMO)
        19                         -0.2458569              -6.6901 (LUMO)
        20                          0.0253241               0.6891
        21                          0.0512255               1.3939
        22                          0.0758713               2.0646
        23                          0.1008135               2.7433
       ...                                ...                  ...
        30                          0.6435059              17.5107
      -------------------------------------------------------------
                  HL-Gap            0.1803000 Eh            4.9062 eV
             Fermi-level           -0.3360069 Eh           -9.1432 eV

 SCC (total)                   0 d,  0 h,  0 min,  0.004 sec
 SCC setup                      ...        0 min,  0.000 sec (  5.362%)
 Dispersion                     ...        0 min,  0.000 sec (  1.028%)
 integral evaluation            ...        0 min,  0.001 sec ( 13.448%)
 zeroth order Hamiltonian       ...        0 min,  0.000 sec (  1.778%)
 iterations                     ...        0 min,  0.001 sec ( 30.214%)
 molecular gradient             ...        0 min,  0.002 sec ( 38.933%)
 printout                       ...        0 min,  0.000 sec (  4.822%)

         :::::::::::::::::::::::::::::::::::::::::::::::::::::
         ::                     SUMMARY                     ::
         :::::::::::::::::::::::::::::::::::::::::::::::::::::
         :: total energy             -21.670570158448 Eh    ::
         :: gradient norm              0.000776846523 Eh/a0 ::
         :: HOMO-LUMO gap              4.906213054702 eV    ::
         ::.................................................::
         :: SCC energy               -21.855802834334 Eh    ::
         :: -> isotropic ES            0.070201437575 Eh    ::
         :: -> anisotropic ES          0.003444473012 Eh    ::
         :: -> anisotropic XC         -0.001271174953 Eh    ::
         :: -> dispersion             -0.005876888429 Eh    ::
         :: repulsion energy           0.185227503287 Eh    ::
         :: add. restraining           0.000000000000 Eh    ::
         :::::::::::::::::::::::::::::::::::::::::::::::::::::

           -------------------------------------------------
          |                Property Printout                |
           -------------------------------------------------

    * Orbital Energies and Occupations

         #    Occupation            Energy/Eh            Energy/eV
      -------------------------------------------------------------
         1        2.0000           -0.7546751             -20.5358
       ...           ...                  ...                  ...
         6        2.0000           -0.6387461             -17.3812
         7        2.0000           -0.6008481             -16.3499
         8        2.0000           -0.5942649             -16.1708
         9        2.0000           -0.5769439             -15.6994
        10        2.0000           -0.5686239             -15.4730
        11        2.0000           -0.5443956             -14.8138
        12        2.0000           -0.5350493             -14.5594
        13        2.0000           -0.5139552             -13.9854
        14        2.0000           -0.5038909             -13.7116
        15        2.0000           -0.4862312             -13.2310
        16        2.0000           -0.4687825             -12.7562
        17        2.0000           -0.4416694             -12.0184
        18        2.0000           -0.4261569             -11.5963 (HOMO)
        19                         -0.2458569              -6.6901 (LUMO)
        20                          0.0253241               0.6891
        21                          0.0512255               1.3939
        22                          0.0758713               2.0646
        23                          0.1008135               2.7433
        24                          0.1136242               3.0919
        25                          0.1410531               3.8382
        26                          0.1555351               4.2323
        27                          0.2034354               5.5358
        28                          0.2384865               6.4895
        29                          0.3122437               8.4966
        30                          0.6435059              17.5107
      -------------------------------------------------------------
                  HL-Gap            0.1803000 Eh            4.9062 eV
             Fermi-level           -0.3360069 Eh           -9.1432 eV

     #   Z        covCN         q      C6AA      α(0)
     1   6 C      3.675     0.084    19.399     6.311
     2   6 C      3.799    -0.118    22.758     6.792
     3   6 C      2.689     0.355    20.967     7.494
     4   8 O      1.656    -0.432    21.472     6.255
     5   8 O      1.659    -0.369    20.262     6.077
     6   8 O      0.856    -0.358    20.868     6.125
     7   1 H      0.805     0.325     0.651     1.267
     8   1 H      0.923     0.034     2.529     2.487
     9   1 H      0.924     0.051     2.310     2.377
    10   1 H      0.805     0.295     0.736     1.347
    11   1 H      0.924     0.069     2.094     2.263
    12   1 H      0.924     0.064     2.158     2.297

 Mol. C6AA /au·bohr⁶  :       1227.432614
 Mol. C8AA /au·bohr⁸  :      26174.503336
 Mol. α(0) /au        :         51.092306


Wiberg/Mayer (AO) data.
largest (>0.10) Wiberg bond orders for each atom
          total WBO             WBO to atom ...
     1  C   3.959        O    4 1.009    C    2 0.973    H    8 0.971    H    9 0.971
     2  C   3.994        H   11 0.973    C    1 0.973    C    3 0.967    H   12 0.964
     3  C   3.920        O    6 1.804    O    5 1.121    C    2 0.967
     4  O   1.973        C    1 1.009    H   10 0.899
     5  O   2.204        C    3 1.121    H    7 0.872    O    6 0.165
     6  O   2.081        C    3 1.804    O    5 0.165
     7  H   0.894        O    5 0.872
     8  H   0.999        C    1 0.971
     9  H   0.997        C    1 0.971
    10  H   0.913        O    4 0.899
    11  H   0.995        C    2 0.973
    12  H   0.996        C    2 0.964

molecular dipole:
                 x           y           z       tot (Debye)
 q only:       -0.852      -0.006      -0.719
   full:       -1.065      -0.094      -0.839       3.454
molecular quadrupole (traceless):
                xx          xy          yy          xz          yz          zz
 q only:       -5.439      -3.061       7.700      -5.255      -2.410      -2.261
  q+dip:       -5.996      -4.781       9.962      -7.546      -2.826      -3.965
   full:       -6.004      -4.513       9.629      -7.707      -2.573      -3.625

           -------------------------------------------------
          |                Geometry Summary                 |
           -------------------------------------------------

      molecular mass/u    :       90.0780670
   center of mass at/Å    :        1.2611901       1.2549392      -1.1690228
  moments of inertia/u·Å² :        0.6088305E+02   0.2647147E+03   0.2976482E+03
rotational constants/cm⁻¹ :        0.2768855E+00   0.6368228E-01   0.5663610E-01

 * 9 selected distances

     #   Z        #   Z                                     value/Å
     1   6 C      4   8 O                                 1.4030728 (max)
     3   6 C      5   8 O                                 1.3439709
     3   6 C      6   8 O                                 1.1948852
     5   8 O      7   1 H                                 0.9665665
     1   6 C      8   1 H                                 1.0984038
     1   6 C      9   1 H                                 1.0946188
     4   8 O     10   1 H                                 0.9636149 (min)
     2   6 C     11   1 H                                 1.0912937
     2   6 C     12   1 H                                 1.0932520

 * 3 distinct bonds (by element types)

   Z      Z             #   av. dist./Å        max./Å        min./Å
   1 H    6 C           4     1.0943921     1.0984038     1.0912937
   1 H    8 O           2     0.9650907     0.9665665     0.9636149
   6 C    8 O           3     1.3139763     1.4030728     1.1948852


optimized geometry written to: xtbopt.xyz


           -------------------------------------------------
          | TOTAL ENERGY              -21.670570158448 Eh   |
          | GRADIENT NORM               0.000776846523 Eh/α |
          | HOMO-LUMO GAP               4.906213054702 eV   |
           -------------------------------------------------

------------------------------------------------------------------------
 * finished run on 2020/12/23 at 21:42:39.760     
------------------------------------------------------------------------
 total:
 * wall-time:     0 d,  0 h,  0 min,  1.197 sec
 *  cpu-time:     0 d,  0 h,  0 min,  4.878 sec
 * ratio c/w:     4.075 speedup
 SCF:
 * wall-time:     0 d,  0 h,  0 min,  0.103 sec
 *  cpu-time:     0 d,  0 h,  0 min,  0.567 sec
 * ratio c/w:     5.496 speedup
 ANC optimizer:
 * wall-time:     0 d,  0 h,  0 min,  0.704 sec
 *  cpu-time:     0 d,  0 h,  0 min,  2.908 sec
 * ratio c/w:     4.131 speedup

