      -----------------------------------------------------------      
     |                   =====================                   |     
     |                           x T B                           |     
     |                   =====================                   |     
     |                         S. Grimme                         |     
     |          Mulliken Center for Theoretical Chemistry        |     
     |                    University of Bonn                     |     
      -----------------------------------------------------------      

   * xtb version 6.2.3 (830e466) compiled by 'ehlert@majestix' on 2020-03-16

   xtb is free software: you can redistribute it and/or modify it under
   the terms of the GNU Lesser General Public License as published by
   the Free Software Foundation, either version 3 of the License, or
   (at your option) any later version.
   
   xtb is distributed in the hope that it will be useful,
   but WITHOUT ANY WARRANTY; without even the implied warranty of
   MERCHANTABILITY or FITNESS FOR A PARTICULAR PURPOSE.  See the
   GNU Lesser General Public License for more details.
   
   Cite this work as:
   * S. Grimme, C. Bannwarth, P. Shushkov, J. Chem. Theory Comput., 2017,
     13, 1989-2009. DOI: 10.1021/acs.jctc.7b00118
   * C. Bannwarth, S. Ehlert and S. Grimme., J. Chem. Theory Comput., 2019,
     15, 1652-1671. DOI: 10.1021/acs.jctc.8b01176
   * P. Pracht, E. Caldeweyher, S. Ehlert, S. Grimme, ChemRxiv, 2019, preprint.
     DOI: 10.26434/chemrxiv.8326202.v1
   
   for DFT-D4:
   * E. Caldeweyher, C. Bannwarth and S. Grimme, J. Chem. Phys., 2017,
     147, 034112. DOI: 10.1063/1.4993215
   * E. Caldeweyher, S. Ehlert, A. Hansen, H. Neugebauer, S. Spicher,
     C. Bannwarth and S. Grimme, J. Chem. Phys., 2019, 150, 154122.
     DOI: 10.1063/1.5090222
   
   for sTDA-xTB:
   * S. Grimme and C. Bannwarth, J. Chem. Phys., 2016, 145, 054103.
     DOI: 10.1063/1.4959605
   
   in the mass-spec context:
   * V. Asgeirsson, C. Bauer and S. Grimme, Chem. Sci., 2017, 8, 4879.
     DOI: 10.1039/c7sc00601b
   
   for metadynamics refer to:
   * S. Grimme, J. Chem. Theory Comput., 2019, 155, 2847-2862
     DOI: 10.1021/acs.jctc.9b00143
   
   with help from (in alphabetical order)
   C. Bannwarth, F. Bohle, G. Brandenburg, E. Caldeweyher, M. Checinski,
   S. Dohm, S. Ehlert, S. Ehrlich, F. März, H. Neugebauer, J. Pisarek,
   P. Pracht, P. Shushkov, and S. Spicher.
   
 * started run on 2020/12/23 at 21:42:53.596     

           -------------------------------------------------
          |                Calculation Setup                |
           -------------------------------------------------

          program call               : xtb -c 0 -u 0 -a 1.0 --iterations 100 --opt normal --namespace product_28 /scratch/bell/zhao922/YARP/paper-example/potential_product/test/reaction_channel/pp_0/pp_3_0.xyz
          hostname                   : bell-fe05.rcac.purdue.edu
          calculation namespace      : product_28
          coordinate file            : /scratch/bell/zhao922/YARP/paper-example/potential_product/test/reaction_channel/pp_0/pp_3_0.xyz
          omp threads                :                    32
          number of atoms            :                    12
          number of electrons        :                    36
          charge                     :                     0
          spin                       :                   0.0
          first test random number   :      0.86982863439966


molecular fragmentation (1/2 indicates fragments):
122112111122
# atoms in fragment 1/2:     7     5
 fragment masses (1/2) :       48.04       42.04
CMA distance (Bohr)    :   6.489
constraining FC (au)   :  0.0500
           ------------------------------------------------- 
          |                 G F N 2 - x T B                 |
          | Geometry, Frequencies, Noncovalent interactions |
          |            JCTC 2019 parametrisation            |
           ------------------------------------------------- 
             k(s)              :                1.8500
             k(p)              :                2.2300
             k(d)              :                2.2300
             k(f)              :                2.0000
             kEN (H0ij)        :               -2.0000
             D4 a1             :                0.5200
             D4 a2             :                5.0000
             D4 s6             :                1.0000
             D4 s8             :                2.7000
             D4 s9             :                5.0000
             alphaj            :                2.0000

  Z AO/shell   Hii/eV     exponent
  1     Wed Apr 25 08:07:45 CEST 2018   EN: 2.200 GM2: 0.406  GM3: 0.0800  RAES: 1.40
     1s    -10.707211    1.230000
  6     Wed Apr 25 08:07:45 CEST 2018   EN: 2.550 GM2: 0.538  GM3: 0.1500  RAES: 3.00
     2s    -13.970922    2.096432
     2p    -10.063292    1.800000
  8     Wed Apr 25 08:07:45 CEST 2018   EN: 3.440 GM2: 0.452  GM3:-0.0517  RAES: 1.80
     2s    -20.229985    2.439742
     2p    -15.503117    2.137023

           ------------------------------------------------- 
          |        Self-Consistent Charge Iterations        |
           ------------------------------------------------- 

          ...................................................
          :                      SETUP                      :
          :.................................................:
          :  # basis functions                  30          :
          :  # atomic orbitals                  30          :
          :  # shells                           18          :
          :  # electrons                        36          :
          :  max. iterations                   100          :
          :  Hamiltonian                  GFN2-xTB          :
          :  restarted?                      false          :
          :  GBSA solvation                  false          :
          :  PC potential                    false          :
          :  electronic temp.          300.0000000     K    :
          :  accuracy                    1.0000000          :
          :  -> integral cutoff          0.2500000E+02      :
          :  -> integral neglect         0.1000000E-07      :
          :  -> SCF convergence          0.1000000E-05 Eh   :
          :  -> wf. convergence          0.1000000E-03 e    :
          :  Broyden damping             0.4000000          :
          ...................................................

 iter      E             dE          RMSdq      gap      omega  full diag
   1    -21.6505485 -0.216505E+02  0.575E+00    4.54       0.0  T
   2    -21.6900404 -0.394918E-01  0.344E+00    2.94       1.0  T
   3    -21.7003367 -0.102963E-01  0.222E+00    3.99       1.0  T
   4    -21.7195089 -0.191722E-01  0.323E-01    3.34       1.0  T
   5    -21.7201289 -0.619993E-03  0.999E-02    3.40       1.0  T
   6    -21.7201493 -0.204699E-04  0.492E-02    3.40       1.0  T
   7    -21.7201533 -0.395714E-05  0.166E-02    3.40       1.7  T
   8    -21.7201538 -0.520621E-06  0.381E-03    3.40       7.6  T
   9    -21.7201538 -0.163140E-07  0.145E-03    3.40      19.9  T
  10    -21.7201538 -0.149061E-07  0.497E-04    3.40      58.0  T
  11    -21.7201538 -0.706670E-09  0.274E-04    3.40     105.2  T

   *** convergence criteria satisfied after 11 iterations ***

         #    Occupation            Energy/Eh            Energy/eV
      -------------------------------------------------------------
         1        2.0000           -0.7434741             -20.2310
       ...           ...                  ...                  ...
        12        2.0000           -0.5196671             -14.1409
        13        2.0000           -0.5039559             -13.7133
        14        2.0000           -0.4851214             -13.2008
        15        2.0000           -0.4771254             -12.9832
        16        2.0000           -0.4577702             -12.4566
        17        2.0000           -0.4185534             -11.3894
        18        2.0000           -0.3841248             -10.4526 (HOMO)
        19                         -0.2591341              -7.0514 (LUMO)
        20                         -0.1762899              -4.7971
        21                         -0.0464902              -1.2651
        22                          0.0748328               2.0363
        23                          0.0835359               2.2731
       ...                                ...                  ...
        30                          1.0365615              28.2063
      -------------------------------------------------------------
                  HL-Gap            0.1249907 Eh            3.4012 eV
             Fermi-level           -0.3216294 Eh           -8.7520 eV

 SCC (total)                   0 d,  0 h,  0 min,  0.103 sec
 SCC setup                      ...        0 min,  0.001 sec (  0.518%)
 Dispersion                     ...        0 min,  0.000 sec (  0.057%)
 integral evaluation            ...        0 min,  0.001 sec (  1.226%)
 zeroth order Hamiltonian       ...        0 min,  0.000 sec (  0.456%)
 iterations                     ...        0 min,  0.098 sec ( 95.015%)
 molecular gradient             ...        0 min,  0.002 sec (  2.125%)
 printout                       ...        0 min,  0.000 sec (  0.409%)

         :::::::::::::::::::::::::::::::::::::::::::::::::::::
         ::                     SUMMARY                     ::
         :::::::::::::::::::::::::::::::::::::::::::::::::::::
         :: total energy             -21.521314409315 Eh    ::
         :: gradient norm              0.133087391967 Eh/a0 ::
         :: HOMO-LUMO gap              3.401169106261 eV    ::
         ::.................................................::
         :: SCC energy               -21.720153842156 Eh    ::
         :: -> isotropic ES            0.042824220721 Eh    ::
         :: -> anisotropic ES         -0.001660271505 Eh    ::
         :: -> anisotropic XC         -0.003650126357 Eh    ::
         :: -> dispersion             -0.005719405652 Eh    ::
         :: repulsion energy           0.198825659053 Eh    ::
         :: add. restraining           0.000000000000 Eh    ::
         :::::::::::::::::::::::::::::::::::::::::::::::::::::

      ----------------------------------------------------------- 
     |                   =====================                   |
     |                        A N C O P T                        |
     |                   =====================                   |
     |               Approximate Normal Coordinate               |
     |                Rational Function Optimizer                |
      ----------------------------------------------------------- 

          ...................................................
          :                      SETUP                      :
          :.................................................:
          :   optimization level            normal          :
          :   max. optcycles                   200          :
          :   ANC micro-cycles                  20          :
          :   degrees of freedom                30          :
          :.................................................:
          :   RF solver                   davidson          :
          :   write xtbopt.log                true          :
          :   linear?                        false          :
          :   energy convergence         0.5000000E-05 Eh   :
          :   grad. convergence          0.1000000E-02 Eh/α :
          :   maximium RF displ.         1.0000000          :
          :   Hlow (freq-cutoff)         0.1000000E-01      :
          :   Hmax (freq-cutoff)         5.0000000          :
          :   S6 in model hess.         20.0000000          :
          ...................................................

generating ANC from model Hessian ...
Using Lindh-Hessian (1995)
 Shifting diagonal of input Hessian by   9.684463325476685E-003
 Lowest  eigenvalues of input Hessian
   -0.000000   -0.000000   -0.000000   -0.000000    0.000000    0.000000
    0.010000    0.010355    0.010839    0.011167    0.011218    0.011842
    0.015297    0.023893    0.026750    0.029575    0.071284    0.095986
 Highest eigenvalues
    1.192575    1.198261    1.244387    1.362932    1.634280    2.634272
 

........................................................................
.............................. CYCLE    1 ..............................
........................................................................
   1    -21.7201538 -0.217202E+02  0.142E-04    3.40       0.0  T
   2    -21.7201538 -0.698144E-10  0.108E-04    3.40     266.5  T
   3    -21.7201538 -0.138545E-09  0.256E-05    3.40    1127.6  T
     SCC iter.                  ...        0 min,  0.001 sec
     gradient                   ...        0 min,  0.001 sec
 * total energy  :   -21.5213144 Eh     change       -0.1219136E-07 Eh
   gradient norm :     0.1330834 Eh/α   predicted     0.0000000E+00 (-100.00%)
   displ. norm   :     0.2816767 α      lambda       -0.1930708E-01
   maximum displ.:     0.1675485 α      in ANC's #8, #12, #18, ...

........................................................................
.............................. CYCLE    2 ..............................
........................................................................
   1    -21.7534040 -0.217534E+02  0.569E-01    3.68       0.0  T
   2    -21.7537302 -0.326290E-03  0.352E-01    3.54       1.0  T
   3    -21.7538515 -0.121245E-03  0.236E-01    3.65       1.0  T
   4    -21.7540506 -0.199078E-03  0.269E-02    3.60       1.1  T
   5    -21.7540528 -0.227887E-05  0.128E-02    3.60       2.3  T
   6    -21.7540536 -0.735594E-06  0.440E-03    3.60       6.6  T
   7    -21.7540536 -0.226427E-07  0.205E-03    3.60      14.1  T
     SCC iter.                  ...        0 min,  0.091 sec
     gradient                   ...        0 min,  0.001 sec
 * total energy  :   -21.5328256 Eh     change       -0.1151116E-01 Eh
   gradient norm :     0.0391634 Eh/α   predicted    -0.1041947E-01 (  -9.48%)
   displ. norm   :     0.2738343 α      lambda       -0.3642128E-02
   maximum displ.:     0.1809602 α      in ANC's #8, #6, #4, ...

........................................................................
.............................. CYCLE    3 ..............................
........................................................................
   1    -21.7689606 -0.217690E+02  0.439E-01    3.77       0.0  T
   2    -21.7690841 -0.123548E-03  0.270E-01    3.68       1.0  T
   3    -21.7690493  0.348198E-04  0.173E-01    3.76       1.0  T
   4    -21.7691927 -0.143405E-03  0.160E-02    3.72       1.8  T
   5    -21.7691935 -0.746022E-06  0.721E-03    3.72       4.0  T
   6    -21.7691937 -0.226434E-06  0.230E-03    3.72      12.5  T
   7    -21.7691937 -0.825599E-08  0.110E-03    3.72      26.3  T
     SCC iter.                  ...        0 min,  0.002 sec
     gradient                   ...        0 min,  0.001 sec
 * total energy  :   -21.5337282 Eh     change       -0.9026003E-03 Eh
   gradient norm :     0.0186976 Eh/α   predicted    -0.1957617E-02 ( 116.89%)
   displ. norm   :     0.2273432 α      lambda       -0.1787914E-02
   maximum displ.:     0.1480921 α      in ANC's #6, #8, #4, ...

........................................................................
.............................. CYCLE    4 ..............................
........................................................................
   1    -21.7647511 -0.217648E+02  0.362E-01    3.63       0.0  T
   2    -21.7647906 -0.394204E-04  0.226E-01    3.68       1.0  T
   3    -21.7647113  0.792468E-04  0.126E-01    3.62       1.0  T
   4    -21.7648277 -0.116356E-03  0.801E-03    3.65       3.6  T
   5    -21.7648280 -0.343783E-06  0.404E-03    3.65       7.1  T
   6    -21.7648280 -0.156134E-07  0.153E-03    3.65      18.9  T
   7    -21.7648280 -0.283006E-08  0.380E-04    3.65      75.9  T
     SCC iter.                  ...        0 min,  0.002 sec
     gradient                   ...        0 min,  0.090 sec
 * total energy  :   -21.5347375 Eh     change       -0.1009329E-02 Eh
   gradient norm :     0.0077950 Eh/α   predicted    -0.9401636E-03 (  -6.85%)
   displ. norm   :     0.1823089 α      lambda       -0.4407186E-03
   maximum displ.:     0.1305016 α      in ANC's #6, #7, #4, ...

........................................................................
.............................. CYCLE    5 ..............................
........................................................................
   1    -21.7614104 -0.217614E+02  0.207E-01    3.62       0.0  T
   2    -21.7614169 -0.649401E-05  0.128E-01    3.63       1.0  T
   3    -21.7613989  0.179802E-04  0.494E-02    3.61       1.0  T
   4    -21.7614223 -0.233798E-04  0.706E-03    3.63       4.1  T
   5    -21.7614223 -0.326710E-07  0.344E-03    3.63       8.4  T
   6    -21.7614223 -0.185559E-07  0.101E-03    3.63      28.5  T
   7    -21.7614223 -0.303576E-08  0.411E-04    3.63      70.3  T
     SCC iter.                  ...        0 min,  0.003 sec
     gradient                   ...        0 min,  0.001 sec
 * total energy  :   -21.5348417 Eh     change       -0.1042288E-03 Eh
   gradient norm :     0.0115968 Eh/α   predicted    -0.2276849E-03 ( 118.45%)
   displ. norm   :     0.1851193 α      lambda       -0.5886052E-03
   maximum displ.:     0.1273078 α      in ANC's #6, #4, #7, ...

........................................................................
.............................. CYCLE    6 ..............................
........................................................................
   1    -21.7608892 -0.217609E+02  0.205E-01    3.64       0.0  T
   2    -21.7608940 -0.487374E-05  0.126E-01    3.64       1.0  T
   3    -21.7608915  0.256823E-05  0.253E-02    3.65       1.1  T
   4    -21.7608975 -0.607380E-05  0.751E-03    3.64       3.8  T
   5    -21.7608976 -0.620931E-07  0.257E-03    3.64      11.2  T
   6    -21.7608976 -0.981894E-08  0.948E-04    3.64      30.5  T
     SCC iter.                  ...        0 min,  0.001 sec
     gradient                   ...        0 min,  0.001 sec
 * total energy  :   -21.5351994 Eh     change       -0.3576348E-03 Eh
   gradient norm :     0.0070371 Eh/α   predicted    -0.3043877E-03 ( -14.89%)
   displ. norm   :     0.1777530 α      lambda       -0.2310333E-03
   maximum displ.:     0.1277392 α      in ANC's #6, #4, #9, ...

........................................................................
.............................. CYCLE    7 ..............................
........................................................................
   1    -21.7623474 -0.217623E+02  0.172E-01    3.66       0.0  T
   2    -21.7623508 -0.340502E-05  0.104E-01    3.65       1.0  T
   3    -21.7623386  0.121271E-04  0.398E-02    3.67       1.0  T
   4    -21.7623538 -0.151302E-04  0.552E-03    3.65       5.2  T
   5    -21.7623538 -0.109738E-07  0.243E-03    3.65      11.9  T
   6    -21.7623538 -0.962332E-08  0.580E-04    3.65      49.8  T
     SCC iter.                  ...        0 min,  0.091 sec
     gradient                   ...        0 min,  0.001 sec
 * total energy  :   -21.5353830 Eh     change       -0.1836095E-03 Eh
   gradient norm :     0.0063756 Eh/α   predicted    -0.1191656E-03 ( -35.10%)
   displ. norm   :     0.2741261 α      lambda       -0.2757545E-03
   maximum displ.:     0.1903610 α      in ANC's #6, #4, #5, ...

........................................................................
.............................. CYCLE    8 ..............................
........................................................................
   1    -21.7632353 -0.217632E+02  0.266E-01    3.67       0.0  T
   2    -21.7632404 -0.514929E-05  0.160E-01    3.66       1.0  T
   3    -21.7632284  0.120097E-04  0.399E-02    3.68       1.0  T
   4    -21.7632442 -0.158018E-04  0.815E-03    3.66       3.5  T
   5    -21.7632443 -0.334897E-07  0.353E-03    3.67       8.2  T
   6    -21.7632443 -0.164126E-07  0.804E-04    3.67      35.9  T
   7    -21.7632443 -0.291885E-08  0.393E-04    3.67      73.5  T
     SCC iter.                  ...        0 min,  0.002 sec
     gradient                   ...        0 min,  0.001 sec
 * total energy  :   -21.5355982 Eh     change       -0.2152507E-03 Eh
   gradient norm :     0.0070640 Eh/α   predicted    -0.1482395E-03 ( -31.13%)
   displ. norm   :     0.3590552 α      lambda       -0.3048418E-03
   maximum displ.:     0.2503200 α      in ANC's #6, #4, #5, ...

........................................................................
.............................. CYCLE    9 ..............................
........................................................................
   1    -21.7632482 -0.217632E+02  0.334E-01    3.68       0.0  T
   2    -21.7632548 -0.656739E-05  0.201E-01    3.67       1.0  T
   3    -21.7632529  0.187286E-05  0.269E-02    3.68       1.1  T
   4    -21.7632589 -0.593398E-05  0.106E-02    3.67       2.7  T
   5    -21.7632590 -0.117211E-06  0.424E-03    3.67       6.8  T
   6    -21.7632590 -0.225467E-07  0.859E-04    3.67      33.6  T
   7    -21.7632590 -0.347239E-08  0.458E-04    3.67      63.0  T
     SCC iter.                  ...        0 min,  0.002 sec
     gradient                   ...        0 min,  0.090 sec
 * total energy  :   -21.5358301 Eh     change       -0.2318404E-03 Eh
   gradient norm :     0.0069237 Eh/α   predicted    -0.1720709E-03 ( -25.78%)
   displ. norm   :     0.3680460 α      lambda       -0.3260997E-03
   maximum displ.:     0.2557492 α      in ANC's #6, #4, #9, ...

........................................................................
.............................. CYCLE   10 ..............................
........................................................................
   1    -21.7638589 -0.217639E+02  0.340E-01    3.68       0.0  T
   2    -21.7638672 -0.820493E-05  0.206E-01    3.67       1.0  T
   3    -21.7638669  0.250774E-06  0.268E-02    3.68       1.1  T
   4    -21.7638720 -0.513078E-05  0.120E-02    3.67       2.4  T
   5    -21.7638722 -0.186737E-06  0.474E-03    3.68       6.1  T
   6    -21.7638722 -0.277965E-07  0.103E-03    3.68      28.1  T
   7    -21.7638723 -0.525668E-08  0.482E-04    3.68      59.9  T
     SCC iter.                  ...        0 min,  0.002 sec
     gradient                   ...        0 min,  0.002 sec
 * total energy  :   -21.5360939 Eh     change       -0.2638138E-03 Eh
   gradient norm :     0.0052647 Eh/α   predicted    -0.1851375E-03 ( -29.82%)
   displ. norm   :     0.5501677 α      lambda       -0.4946148E-03
   maximum displ.:     0.3483528 α      in ANC's #6, #4, #9, ...

........................................................................
.............................. CYCLE   11 ..............................
........................................................................
   1    -21.7595079 -0.217595E+02  0.572E-01    3.67       0.0  T
   2    -21.7595402 -0.322844E-04  0.353E-01    3.67       1.0  T
   3    -21.7595619 -0.217189E-04  0.313E-02    3.67       1.0  T
   4    -21.7595621 -0.210302E-06  0.167E-02    3.67       1.7  T
   5    -21.7595623 -0.208548E-06  0.640E-03    3.67       4.5  T
   6    -21.7595626 -0.316755E-06  0.195E-03    3.67      14.8  T
   7    -21.7595627 -0.104501E-07  0.113E-03    3.67      25.6  T
     SCC iter.                  ...        0 min,  0.002 sec
     gradient                   ...        0 min,  0.001 sec
 * total energy  :   -21.5363990 Eh     change       -0.3050597E-03 Eh
   gradient norm :     0.0152786 Eh/α   predicted    -0.3221741E-03 (   5.61%)
   displ. norm   :     0.4214390 α      lambda       -0.1229262E-02
   maximum displ.:     0.1999645 α      in ANC's #9, #6, #10, ...

........................................................................
.............................. CYCLE   12 ..............................
........................................................................
   1    -21.7646460 -0.217646E+02  0.537E-01    3.69       0.0  T
   2    -21.7646922 -0.462422E-04  0.335E-01    3.68       1.0  T
   3    -21.7646994 -0.715578E-05  0.506E-02    3.69       1.0  T
   4    -21.7647143 -0.148931E-04  0.236E-02    3.68       1.2  T
   5    -21.7647162 -0.195984E-05  0.102E-02    3.68       2.8  T
   6    -21.7647163 -0.978517E-07  0.387E-03    3.68       7.5  T
   7    -21.7647164 -0.642604E-07  0.142E-03    3.68      20.4  T
   8    -21.7647164 -0.642364E-08  0.862E-04    3.68      33.5  T
     SCC iter.                  ...        0 min,  0.002 sec
     gradient                   ...        0 min,  0.002 sec
 * total energy  :   -21.5370637 Eh     change       -0.6647831E-03 Eh
   gradient norm :     0.0163670 Eh/α   predicted    -0.7237953E-03 (   8.88%)
   displ. norm   :     0.5158197 α      lambda       -0.1607649E-02
   maximum displ.:     0.2485405 α      in ANC's #5, #2, #9, ...

........................................................................
.............................. CYCLE   13 ..............................
........................................................................
   1    -21.7608685 -0.217609E+02  0.636E-01    3.64       0.0  T
   2    -21.7609390 -0.704227E-04  0.386E-01    3.66       1.0  T
   3    -21.7609034  0.355208E-04  0.889E-02    3.62       1.0  T
   4    -21.7609620 -0.585636E-04  0.283E-02    3.66       1.0  T
   5    -21.7609649 -0.291093E-05  0.119E-02    3.65       2.4  T
   6    -21.7609650 -0.996262E-07  0.434E-03    3.65       6.7  T
   7    -21.7609651 -0.622859E-07  0.162E-03    3.65      17.9  T
   8    -21.7609651 -0.896596E-08  0.907E-04    3.65      31.8  T
     SCC iter.                  ...        0 min,  0.002 sec
     gradient                   ...        0 min,  0.001 sec
 * total energy  :   -21.5365498 Eh     change        0.5139846E-03 Eh
   gradient norm :     0.0399503 Eh/α   predicted    -0.1017703E-02 (-298.00%)
   displ. norm   :     0.1710664 α      lambda       -0.3080511E-02
   maximum displ.:     0.1109107 α      in ANC's #5, #9, #6, ...

........................................................................
.............................. CYCLE   14 ..............................
........................................................................
   1    -21.7647298 -0.217647E+02  0.256E-01    3.69       0.0  T
   2    -21.7647751 -0.453191E-04  0.154E-01    3.67       1.0  T
   3    -21.7647641  0.110069E-04  0.754E-02    3.69       1.0  T
   4    -21.7647944 -0.303153E-04  0.227E-02    3.67       1.3  T
   5    -21.7647961 -0.168229E-05  0.970E-03    3.68       3.0  T
   6    -21.7647963 -0.170704E-06  0.400E-03    3.68       7.2  T
   7    -21.7647964 -0.655923E-07  0.202E-03    3.68      14.3  T
     SCC iter.                  ...        0 min,  0.091 sec
     gradient                   ...        0 min,  0.001 sec
 * total energy  :   -21.5377342 Eh     change       -0.1184430E-02 Eh
   gradient norm :     0.0235787 Eh/α   predicted    -0.1585328E-02 (  33.85%)
   displ. norm   :     0.2388792 α      lambda       -0.1870256E-02
   maximum displ.:     0.1539941 α      in ANC's #3, #4, #6, ...

........................................................................
.............................. CYCLE   15 ..............................
........................................................................
   1    -21.7680206 -0.217680E+02  0.353E-01    3.71       0.0  T
   2    -21.7680486 -0.280501E-04  0.220E-01    3.70       1.0  T
   3    -21.7680422  0.640212E-05  0.561E-02    3.72       1.0  T
   4    -21.7680657 -0.234576E-04  0.195E-02    3.70       1.5  T
   5    -21.7680664 -0.677814E-06  0.728E-03    3.70       4.0  T
   6    -21.7680664 -0.889774E-07  0.333E-03    3.70       8.7  T
   7    -21.7680665 -0.392892E-07  0.149E-03    3.70      19.4  T
     SCC iter.                  ...        0 min,  0.002 sec
     gradient                   ...        0 min,  0.001 sec
 * total energy  :   -21.5368700 Eh     change        0.8641622E-03 Eh
   gradient norm :     0.0416652 Eh/α   predicted    -0.9884888E-03 (-214.39%)
   displ. norm   :     0.1468284 α      lambda       -0.2673133E-02
   maximum displ.:     0.0904163 α      in ANC's #3, #8, #2, ...

........................................................................
.............................. CYCLE   16 ..............................
........................................................................
   1    -21.7707573 -0.217708E+02  0.232E-01    3.69       0.0  T
   2    -21.7707685 -0.111661E-04  0.144E-01    3.69       1.0  T
   3    -21.7707661  0.234034E-05  0.325E-02    3.68       1.0  T
   4    -21.7707735 -0.741578E-05  0.115E-02    3.69       2.5  T
   5    -21.7707739 -0.352695E-06  0.475E-03    3.69       6.1  T
   6    -21.7707740 -0.572380E-07  0.207E-03    3.69      13.9  T
     SCC iter.                  ...        0 min,  0.002 sec
     gradient                   ...        0 min,  0.090 sec
 * total energy  :   -21.5380675 Eh     change       -0.1197496E-02 Eh
   gradient norm :     0.0170725 Eh/α   predicted    -0.1365382E-02 (  14.02%)
   displ. norm   :     0.5980161 α      lambda       -0.1865074E-02
   maximum displ.:     0.2994541 α      in ANC's #4, #9, #6, ...

........................................................................
.............................. CYCLE   17 ..............................
........................................................................
   1    -21.7442639 -0.217443E+02  0.807E-01    3.63       0.0  T
   2    -21.7443807 -0.116816E-03  0.501E-01    3.66       1.0  T
   3    -21.7443091  0.715768E-04  0.134E-01    3.60       1.0  T
   4    -21.7444570 -0.147891E-03  0.401E-02    3.65       1.0  T
   5    -21.7444595 -0.250371E-05  0.176E-02    3.64       1.6  T
   6    -21.7444600 -0.432050E-06  0.556E-03    3.64       5.2  T
   7    -21.7444601 -0.103062E-06  0.299E-03    3.64       9.7  T
   8    -21.7444601 -0.367109E-07  0.164E-03    3.64      17.6  T
     SCC iter.                  ...        0 min,  0.002 sec
     gradient                   ...        0 min,  0.001 sec
 * total energy  :   -21.5351332 Eh     change        0.2934353E-02 Eh
   gradient norm :     0.0581820 Eh/α   predicted    -0.1266045E-02 (-143.15%)
   displ. norm   :     0.3200251 α      lambda       -0.6955444E-02
   maximum displ.:     0.1763026 α      in ANC's #4, #9, #6, ...

........................................................................
.............................. CYCLE   18 ..............................
........................................................................
   1    -21.7669058 -0.217669E+02  0.490E-01    3.69       0.0  T
   2    -21.7669652 -0.594368E-04  0.303E-01    3.66       1.0  T
   3    -21.7669305  0.347753E-04  0.929E-02    3.70       1.0  T
   4    -21.7669950 -0.645280E-04  0.261E-02    3.67       1.1  T
   5    -21.7669966 -0.163137E-05  0.117E-02    3.67       2.5  T
   6    -21.7669967 -0.109311E-06  0.420E-03    3.67       6.9  T
   7    -21.7669968 -0.508086E-07  0.176E-03    3.67      16.4  T
     SCC iter.                  ...        0 min,  0.002 sec
     gradient                   ...        0 min,  0.001 sec
 * total energy  :   -21.5384866 Eh     change       -0.3353416E-02 Eh
   gradient norm :     0.0084514 Eh/α   predicted    -0.3833903E-02 (  14.33%)
   displ. norm   :     0.2610023 α      lambda       -0.8261132E-03
   maximum displ.:     0.1413006 α      in ANC's #6, #2, #10, ...

........................................................................
.............................. CYCLE   19 ..............................
........................................................................
   1    -21.7648102 -0.217648E+02  0.200E-01    3.71       0.0  T
   2    -21.7648267 -0.165172E-04  0.115E-01    3.69       1.0  T
   3    -21.7648144  0.123409E-04  0.553E-02    3.71       1.0  T
   4    -21.7648323 -0.178894E-04  0.100E-02    3.70       2.9  T
   5    -21.7648326 -0.361618E-06  0.433E-03    3.70       6.7  T
   6    -21.7648327 -0.285955E-07  0.136E-03    3.70      21.2  T
   7    -21.7648327 -0.604689E-08  0.516E-04    3.70      56.0  T
     SCC iter.                  ...        0 min,  0.003 sec
     gradient                   ...        0 min,  0.001 sec
 * total energy  :   -21.5368454 Eh     change        0.1641221E-02 Eh
   gradient norm :     0.0438595 Eh/α   predicted    -0.4411942E-03 (-126.88%)
   displ. norm   :     0.1892700 α      lambda       -0.3488560E-02
   maximum displ.:     0.1117437 α      in ANC's #6, #2, #10, ...

........................................................................
.............................. CYCLE   20 ..............................
........................................................................
   1    -21.7680123 -0.217680E+02  0.162E-01    3.68       0.0  T
   2    -21.7680249 -0.125820E-04  0.945E-02    3.69       1.0  T
   3    -21.7680203  0.457809E-05  0.381E-02    3.67       1.0  T
   4    -21.7680278 -0.746956E-05  0.105E-02    3.69       2.7  T
   5    -21.7680284 -0.564633E-06  0.439E-03    3.68       6.6  T
   6    -21.7680284 -0.349788E-07  0.161E-03    3.68      18.0  T
     SCC iter.                  ...        0 min,  0.002 sec
     gradient                   ...        0 min,  0.001 sec
 * total energy  :   -21.5386443 Eh     change       -0.1798922E-02 Eh
   gradient norm :     0.0041413 Eh/α   predicted    -0.1806765E-02 (   0.44%)
   displ. norm   :     0.1065466 α      lambda       -0.1211940E-03
   maximum displ.:     0.0536351 α      in ANC's #9, #2, #5, ...
 * RMSD in coord.:     0.9696400 α      energy gain  -0.1732987E-01 Eh

generating ANC from model Hessian ...
Using Lindh-Hessian (1995)
 Shifting diagonal of input Hessian by   9.661328149925631E-003
 Lowest  eigenvalues of input Hessian
   -0.000000   -0.000000   -0.000000    0.000000    0.000000    0.000000
    0.010000    0.010114    0.010306    0.010314    0.011074    0.011367
    0.011507    0.015150    0.024172    0.026688    0.066340    0.099748
 Highest eigenvalues
    1.191225    1.295540    1.301865    1.421343    1.500869    2.814373
 

........................................................................
.............................. CYCLE   21 ..............................
........................................................................
   1    -21.7676352 -0.217676E+02  0.108E-01    3.68       0.0  T
   2    -21.7676367 -0.153408E-05  0.664E-02    3.68       1.0  T
   3    -21.7676367  0.116533E-07  0.116E-02    3.68       2.5  T
   4    -21.7676376 -0.957232E-06  0.499E-03    3.68       5.8  T
   5    -21.7676377 -0.679099E-07  0.277E-03    3.68      10.4  T
   6    -21.7676377 -0.227713E-07  0.931E-04    3.68      31.0  T
   7    -21.7676377 -0.405151E-08  0.547E-04    3.68      52.8  T
     SCC iter.                  ...        0 min,  0.004 sec
     gradient                   ...        0 min,  0.002 sec
 * total energy  :   -21.5387055 Eh     change       -0.6117385E-04 Eh
   gradient norm :     0.0068661 Eh/α   predicted     0.0000000E+00 (-100.00%)
   displ. norm   :     0.0766213 α      lambda       -0.1260860E-03
   maximum displ.:     0.0539593 α      in ANC's #5, #3, #6, ...

........................................................................
.............................. CYCLE   22 ..............................
........................................................................
   1    -21.7678671 -0.217679E+02  0.105E-01    3.68       0.0  T
   2    -21.7678680 -0.899667E-06  0.642E-02    3.68       1.0  T
   3    -21.7678668  0.124078E-05  0.132E-02    3.68       2.2  T
   4    -21.7678684 -0.167443E-05  0.290E-03    3.68      10.0  T
   5    -21.7678685 -0.168912E-07  0.151E-03    3.68      19.1  T
     SCC iter.                  ...        0 min,  0.092 sec
     gradient                   ...        0 min,  0.002 sec
 * total energy  :   -21.5387733 Eh     change       -0.6779882E-04 Eh
   gradient norm :     0.0037840 Eh/α   predicted    -0.6341533E-04 (  -6.47%)
   displ. norm   :     0.1994737 α      lambda       -0.2899536E-03
   maximum displ.:     0.1391679 α      in ANC's #5, #3, #10, ...

........................................................................
.............................. CYCLE   23 ..............................
........................................................................
   1    -21.7680025 -0.217680E+02  0.238E-01    3.69       0.0  T
   2    -21.7680092 -0.666449E-05  0.144E-01    3.69       1.0  T
   3    -21.7680105 -0.130432E-05  0.128E-02    3.68       2.3  T
   4    -21.7680109 -0.405928E-06  0.747E-03    3.69       3.9  T
   5    -21.7680111 -0.225572E-06  0.401E-03    3.68       7.2  T
   6    -21.7680111 -0.315924E-07  0.125E-03    3.69      23.1  T
   7    -21.7680111 -0.339742E-08  0.444E-04    3.69      64.9  T
   8    -21.7680111 -0.621771E-09  0.283E-04    3.69     101.9  T
     SCC iter.                  ...        0 min,  0.004 sec
     gradient                   ...        0 min,  0.090 sec
 * total energy  :   -21.5388628 Eh     change       -0.8958573E-04 Eh
   gradient norm :     0.0076144 Eh/α   predicted    -0.1507478E-03 (  68.27%)
   displ. norm   :     0.0829832 α      lambda       -0.1404106E-03
   maximum displ.:     0.0563879 α      in ANC's #5, #3, #8, ...

........................................................................
.............................. CYCLE   24 ..............................
........................................................................
   1    -21.7676439 -0.217676E+02  0.103E-01    3.69       0.0  T
   2    -21.7676444 -0.559891E-06  0.623E-02    3.69       1.0  T
   3    -21.7676448 -0.357184E-06  0.396E-03    3.69       7.3  T
   4    -21.7676448 -0.556118E-08  0.207E-03    3.69      14.0  T
   5    -21.7676448 -0.311908E-08  0.621E-04    3.69      46.5  T
     SCC iter.                  ...        0 min,  0.003 sec
     gradient                   ...        0 min,  0.001 sec
 * total energy  :   -21.5389466 Eh     change       -0.8372538E-04 Eh
   gradient norm :     0.0057665 Eh/α   predicted    -0.7068870E-04 ( -15.57%)
   displ. norm   :     0.1757056 α      lambda       -0.3011408E-03
   maximum displ.:     0.1112291 α      in ANC's #5, #3, #8, ...

........................................................................
.............................. CYCLE   25 ..............................
........................................................................
   1    -21.7660471 -0.217660E+02  0.244E-01    3.67       0.0  T
   2    -21.7660521 -0.498784E-05  0.148E-01    3.68       1.0  T
   3    -21.7660434  0.864728E-05  0.357E-02    3.66       1.0  T
   4    -21.7660554 -0.119157E-04  0.717E-03    3.68       4.0  T
   5    -21.7660554 -0.390832E-07  0.362E-03    3.68       8.0  T
   6    -21.7660554 -0.215384E-07  0.995E-04    3.68      29.0  T
   7    -21.7660554 -0.275819E-08  0.344E-04    3.68      83.9  T
     SCC iter.                  ...        0 min,  0.093 sec
     gradient                   ...        0 min,  0.002 sec
 * total energy  :   -21.5389004 Eh     change        0.4616277E-04 Eh
   gradient norm :     0.0111334 Eh/α   predicted    -0.1552182E-03 (-436.24%)
   displ. norm   :     0.0565333 α      lambda       -0.3228074E-03
   maximum displ.:     0.0398175 α      in ANC's #8, #6, #3, ...

........................................................................
.............................. CYCLE   26 ..............................
........................................................................
   1    -21.7673367 -0.217673E+02  0.123E-01    3.69       0.0  T
   2    -21.7673382 -0.157838E-05  0.749E-02    3.68       1.0  T
   3    -21.7673344  0.385387E-05  0.231E-02    3.69       1.2  T
   4    -21.7673392 -0.485281E-05  0.313E-03    3.68       9.2  T
   5    -21.7673392 -0.182891E-07  0.171E-03    3.68      16.8  T
   6    -21.7673393 -0.473631E-08  0.667E-04    3.68      43.3  T
     SCC iter.                  ...        0 min,  0.003 sec
     gradient                   ...        0 min,  0.002 sec
 * total energy  :   -21.5390810 Eh     change       -0.1806351E-03 Eh
   gradient norm :     0.0033038 Eh/α   predicted    -0.1619199E-03 ( -10.36%)
   displ. norm   :     0.1081207 α      lambda       -0.6398734E-04
   maximum displ.:     0.0821246 α      in ANC's #5, #3, #10, ...

........................................................................
.............................. CYCLE   27 ..............................
........................................................................
   1    -21.7670078 -0.217670E+02  0.122E-01    3.68       0.0  T
   2    -21.7670088 -0.973226E-06  0.736E-02    3.68       1.0  T
   3    -21.7670085  0.321806E-06  0.107E-02    3.68       2.7  T
   4    -21.7670094 -0.940356E-06  0.407E-03    3.68       7.1  T
   5    -21.7670094 -0.174786E-07  0.155E-03    3.68      18.6  T
   6    -21.7670094 -0.513289E-08  0.480E-04    3.68      60.1  T
   7    -21.7670094 -0.930463E-09  0.249E-04    3.68     116.1  T
     SCC iter.                  ...        0 min,  0.004 sec
     gradient                   ...        0 min,  0.002 sec
 * total energy  :   -21.5391341 Eh     change       -0.5309449E-04 Eh
   gradient norm :     0.0037014 Eh/α   predicted    -0.3236694E-04 ( -39.04%)
   displ. norm   :     0.2331628 α      lambda       -0.1370376E-03
   maximum displ.:     0.1819695 α      in ANC's #5, #3, #10, ...

........................................................................
.............................. CYCLE   28 ..............................
........................................................................
   1    -21.7669046 -0.217669E+02  0.265E-01    3.68       0.0  T
   2    -21.7669094 -0.487706E-05  0.161E-01    3.68       1.0  T
   3    -21.7669094  0.948917E-07  0.211E-02    3.68       1.4  T
   4    -21.7669127 -0.330407E-05  0.930E-03    3.68       3.1  T
   5    -21.7669128 -0.992118E-07  0.320E-03    3.68       9.0  T
   6    -21.7669128 -0.310703E-07  0.112E-03    3.68      25.8  T
   7    -21.7669128 -0.512948E-08  0.564E-04    3.68      51.2  T
   8    -21.7669128 -0.118240E-08  0.314E-04    3.68      91.8  T
     SCC iter.                  ...        0 min,  0.093 sec
     gradient                   ...        0 min,  0.002 sec
 * total energy  :   -21.5392341 Eh     change       -0.9996220E-04 Eh
   gradient norm :     0.0038462 Eh/α   predicted    -0.7224143E-04 ( -27.73%)
   displ. norm   :     0.2248101 α      lambda       -0.1020021E-03
   maximum displ.:     0.1760477 α      in ANC's #5, #3, #10, ...

........................................................................
.............................. CYCLE   29 ..............................
........................................................................
   1    -21.7666036 -0.217666E+02  0.265E-01    3.68       0.0  T
   2    -21.7666085 -0.489539E-05  0.161E-01    3.68       1.0  T
   3    -21.7666099 -0.139030E-05  0.184E-02    3.68       1.6  T
   4    -21.7666119 -0.201949E-05  0.965E-03    3.68       3.0  T
   5    -21.7666120 -0.115762E-06  0.286E-03    3.68      10.1  T
   6    -21.7666120 -0.412155E-07  0.108E-03    3.68      26.8  T
   7    -21.7666120 -0.433928E-08  0.621E-04    3.68      46.5  T
   8    -21.7666120 -0.166008E-08  0.274E-04    3.68     105.3  T
     SCC iter.                  ...        0 min,  0.004 sec
     gradient                   ...        0 min,  0.091 sec
 * total energy  :   -21.5393053 Eh     change       -0.7120039E-04 Eh
   gradient norm :     0.0044656 Eh/α   predicted    -0.5357774E-04 ( -24.75%)
   displ. norm   :     0.1825958 α      lambda       -0.1228431E-03
   maximum displ.:     0.1481964 α      in ANC's #5, #3, #2, ...

........................................................................
.............................. CYCLE   30 ..............................
........................................................................
   1    -21.7691023 -0.217691E+02  0.235E-01    3.69       0.0  T
   2    -21.7691078 -0.546210E-05  0.145E-01    3.68       1.0  T
   3    -21.7691109 -0.312998E-05  0.155E-02    3.69       1.9  T
   4    -21.7691117 -0.825740E-06  0.956E-03    3.68       3.0  T
   5    -21.7691120 -0.226159E-06  0.251E-03    3.69      11.5  T
   6    -21.7691120 -0.211687E-07  0.119E-03    3.69      24.3  T
     SCC iter.                  ...        0 min,  0.004 sec
     gradient                   ...        0 min,  0.002 sec
 * total energy  :   -21.5393686 Eh     change       -0.6331869E-04 Eh
   gradient norm :     0.0043036 Eh/α   predicted    -0.6346790E-04 (   0.24%)
   displ. norm   :     0.3749797 α      lambda       -0.1304213E-03
   maximum displ.:     0.3017477 α      in ANC's #5, #3, #2, ...

........................................................................
.............................. CYCLE   31 ..............................
........................................................................
   1    -21.7642690 -0.217643E+02  0.491E-01    3.67       0.0  T
   2    -21.7642906 -0.216534E-04  0.300E-01    3.68       1.0  T
   3    -21.7642932 -0.251054E-05  0.416E-02    3.66       1.0  T
   4    -21.7643053 -0.121183E-04  0.196E-02    3.67       1.5  T
   5    -21.7643059 -0.610241E-06  0.660E-03    3.67       4.4  T
   6    -21.7643060 -0.129243E-06  0.272E-03    3.67      10.6  T
   7    -21.7643060 -0.326241E-07  0.152E-03    3.67      19.0  T
     SCC iter.                  ...        0 min,  0.093 sec
     gradient                   ...        0 min,  0.001 sec
 * total energy  :   -21.5393381 Eh     change        0.3054670E-04 Eh
   gradient norm :     0.0111499 Eh/α   predicted    -0.7437966E-04 (-343.49%)
   displ. norm   :     0.2086261 α      lambda       -0.2687547E-03
   maximum displ.:     0.1665021 α      in ANC's #5, #3, #10, ...

........................................................................
.............................. CYCLE   32 ..............................
........................................................................
   1    -21.7690633 -0.217691E+02  0.259E-01    3.69       0.0  T
   2    -21.7690717 -0.839743E-05  0.157E-01    3.68       1.0  T
   3    -21.7690567  0.149895E-04  0.473E-02    3.70       1.0  T
   4    -21.7690775 -0.207467E-04  0.102E-02    3.68       2.8  T
   5    -21.7690775 -0.704247E-07  0.462E-03    3.69       6.2  T
   6    -21.7690776 -0.667796E-07  0.151E-03    3.69      19.2  T
   7    -21.7690776 -0.597450E-08  0.562E-04    3.69      51.3  T
     SCC iter.                  ...        0 min,  0.004 sec
     gradient                   ...        0 min,  0.090 sec
 * total energy  :   -21.5394311 Eh     change       -0.9302314E-04 Eh
   gradient norm :     0.0036402 Eh/α   predicted    -0.1402237E-03 (  50.74%)
   displ. norm   :     0.0709785 α      lambda       -0.4449872E-04
   maximum displ.:     0.0595338 α      in ANC's #5, #2, #7, ...

........................................................................
.............................. CYCLE   33 ..............................
........................................................................
   1    -21.7688292 -0.217688E+02  0.105E-01    3.69       0.0  T
   2    -21.7688310 -0.176930E-05  0.661E-02    3.69       1.0  T
   3    -21.7688318 -0.804132E-06  0.764E-03    3.68       3.8  T
   4    -21.7688320 -0.225790E-06  0.438E-03    3.69       6.6  T
   5    -21.7688321 -0.777174E-07  0.197E-03    3.69      14.7  T
   6    -21.7688321 -0.989890E-08  0.933E-04    3.69      31.0  T
   7    -21.7688321 -0.422127E-08  0.454E-04    3.69      63.5  T
     SCC iter.                  ...        0 min,  0.003 sec
     gradient                   ...        0 min,  0.001 sec
 * total energy  :   -21.5394525 Eh     change       -0.2137886E-04 Eh
   gradient norm :     0.0029355 Eh/α   predicted    -0.2236157E-04 (   4.60%)
   displ. norm   :     0.1834862 α      lambda       -0.6078627E-04
   maximum displ.:     0.1417077 α      in ANC's #5, #2, #3, ...

........................................................................
.............................. CYCLE   34 ..............................
........................................................................
   1    -21.7675337 -0.217675E+02  0.252E-01    3.68       0.0  T
   2    -21.7675406 -0.689428E-05  0.156E-01    3.68       1.0  T
   3    -21.7675412 -0.588845E-06  0.247E-02    3.67       1.2  T
   4    -21.7675458 -0.465220E-05  0.111E-02    3.68       2.6  T
   5    -21.7675460 -0.195330E-06  0.395E-03    3.68       7.3  T
   6    -21.7675461 -0.649784E-07  0.169E-03    3.68      17.1  T
   7    -21.7675461 -0.117824E-07  0.103E-03    3.68      28.1  T
   8    -21.7675461 -0.495052E-08  0.245E-04    3.68     118.0  T
   9    -21.7675461 -0.239133E-09  0.816E-05    3.68     354.0  T
     SCC iter.                  ...        0 min,  0.293 sec
     gradient                   ...        0 min,  0.001 sec
 * total energy  :   -21.5394951 Eh     change       -0.4266264E-04 Eh
   gradient norm :     0.0038117 Eh/α   predicted    -0.3141733E-04 ( -26.36%)
   displ. norm   :     0.1401344 α      lambda       -0.4608003E-04
   maximum displ.:     0.0950417 α      in ANC's #5, #2, #3, ...

........................................................................
.............................. CYCLE   35 ..............................
........................................................................
   1    -21.7671283 -0.217671E+02  0.201E-01    3.68       0.0  T
   2    -21.7671327 -0.437698E-05  0.125E-01    3.68       1.0  T
   3    -21.7671348 -0.212756E-05  0.141E-02    3.67       2.0  T
   4    -21.7671357 -0.862813E-06  0.840E-03    3.68       3.4  T
   5    -21.7671359 -0.204298E-06  0.331E-03    3.68       8.7  T
   6    -21.7671359 -0.334495E-07  0.140E-03    3.68      20.7  T
   7    -21.7671360 -0.911681E-08  0.833E-04    3.68      34.7  T
   8    -21.7671360 -0.300403E-08  0.299E-04    3.68      96.5  T
     SCC iter.                  ...        0 min,  0.002 sec
     gradient                   ...        0 min,  0.001 sec
 * total energy  :   -21.5395220 Eh     change       -0.2691724E-04 Eh
   gradient norm :     0.0046292 Eh/α   predicted    -0.2349119E-04 ( -12.73%)
   displ. norm   :     0.1051746 α      lambda       -0.5374466E-04
   maximum displ.:     0.0799184 α      in ANC's #2, #5, #1, ...

........................................................................
.............................. CYCLE   36 ..............................
........................................................................
   1    -21.7681026 -0.217681E+02  0.119E-01    3.68       0.0  T
   2    -21.7681041 -0.153463E-05  0.743E-02    3.68       1.0  T
   3    -21.7681053 -0.113961E-05  0.776E-03    3.68       3.7  T
   4    -21.7681054 -0.141815E-06  0.513E-03    3.68       5.6  T
   5    -21.7681055 -0.794154E-07  0.149E-03    3.68      19.4  T
   6    -21.7681055 -0.121918E-07  0.855E-04    3.68      33.8  T
     SCC iter.                  ...        0 min,  0.002 sec
     gradient                   ...        0 min,  0.002 sec
 * total energy  :   -21.5395554 Eh     change       -0.3337409E-04 Eh
   gradient norm :     0.0034504 Eh/α   predicted    -0.2716952E-04 ( -18.59%)
   displ. norm   :     0.2015501 α      lambda       -0.5795065E-04
   maximum displ.:     0.1409447 α      in ANC's #2, #5, #1, ...

........................................................................
.............................. CYCLE   37 ..............................
........................................................................
   1    -21.7680717 -0.217681E+02  0.271E-01    3.68       0.0  T
   2    -21.7680801 -0.839332E-05  0.170E-01    3.68       1.0  T
   3    -21.7680860 -0.596304E-05  0.148E-02    3.68       1.9  T
   4    -21.7680863 -0.252843E-06  0.852E-03    3.68       3.4  T
   5    -21.7680865 -0.214984E-06  0.347E-03    3.68       8.3  T
   6    -21.7680865 -0.432410E-07  0.189E-03    3.68      15.3  T
   7    -21.7680866 -0.177667E-07  0.115E-03    3.68      25.2  T
   8    -21.7680866 -0.614369E-08  0.355E-04    3.68      81.3  T
   9    -21.7680866 -0.475872E-09  0.926E-05    3.68     311.9  T
     SCC iter.                  ...        0 min,  0.094 sec
     gradient                   ...        0 min,  0.002 sec
 * total energy  :   -21.5395934 Eh     change       -0.3793050E-04 Eh
   gradient norm :     0.0027831 Eh/α   predicted    -0.3015026E-04 ( -20.51%)
   displ. norm   :     0.1434844 α      lambda       -0.3790776E-04
   maximum displ.:     0.1099820 α      in ANC's #2, #5, #21, ...

........................................................................
.............................. CYCLE   38 ..............................
........................................................................
   1    -21.7680219 -0.217680E+02  0.178E-01    3.68       0.0  T
   2    -21.7680250 -0.309554E-05  0.110E-01    3.68       1.0  T
   3    -21.7680268 -0.179581E-05  0.109E-02    3.68       2.6  T
   4    -21.7680272 -0.361916E-06  0.685E-03    3.68       4.2  T
   5    -21.7680273 -0.139842E-06  0.265E-03    3.68      10.9  T
   6    -21.7680273 -0.286133E-07  0.129E-03    3.68      22.4  T
   7    -21.7680274 -0.795032E-08  0.689E-04    3.68      41.9  T
   8    -21.7680274 -0.203283E-08  0.281E-04    3.68     102.7  T
     SCC iter.                  ...        0 min,  0.004 sec
     gradient                   ...        0 min,  0.092 sec
 * total energy  :   -21.5396216 Eh     change       -0.2823891E-04 Eh
   gradient norm :     0.0027148 Eh/α   predicted    -0.1934310E-04 ( -31.50%)
   displ. norm   :     0.2308649 α      lambda       -0.4770740E-04
   maximum displ.:     0.1730779 α      in ANC's #2, #5, #4, ...

........................................................................
.............................. CYCLE   39 ..............................
........................................................................
   1    -21.7674065 -0.217674E+02  0.282E-01    3.68       0.0  T
   2    -21.7674135 -0.698404E-05  0.174E-01    3.68       1.0  T
   3    -21.7674184 -0.484411E-05  0.152E-02    3.68       1.9  T
   4    -21.7674187 -0.303332E-06  0.898E-03    3.68       3.2  T
   5    -21.7674189 -0.211972E-06  0.271E-03    3.68      10.6  T
   6    -21.7674189 -0.271828E-07  0.135E-03    3.68      21.3  T
   7    -21.7674189 -0.554668E-08  0.778E-04    3.68      37.1  T
   8    -21.7674189 -0.345078E-08  0.340E-04    3.68      84.8  T
     SCC iter.                  ...        0 min,  0.004 sec
     gradient                   ...        0 min,  0.001 sec
 * total energy  :   -21.5396443 Eh     change       -0.2276005E-04 Eh
   gradient norm :     0.0042690 Eh/α   predicted    -0.2512490E-04 (  10.39%)
   displ. norm   :     0.1374952 α      lambda       -0.7652699E-04
   maximum displ.:     0.1128444 α      in ANC's #2, #4, #6, ...

........................................................................
.............................. CYCLE   40 ..............................
........................................................................
   1    -21.7713791 -0.217714E+02  0.119E-01    3.70       0.0  T
   2    -21.7713817 -0.257167E-05  0.716E-02    3.69       1.0  T
   3    -21.7713735  0.812911E-05  0.346E-02    3.71       1.0  T
   4    -21.7713839 -0.103683E-04  0.322E-03    3.70       9.0  T
   5    -21.7713839 -0.159517E-07  0.196E-03    3.70      14.7  T
   6    -21.7713839 -0.746364E-08  0.735E-04    3.70      39.3  T
     SCC iter.                  ...        0 min,  0.093 sec
     gradient                   ...        0 min,  0.002 sec
 * total energy  :   -21.5396138 Eh     change        0.3054629E-04 Eh
   gradient norm :     0.0074234 Eh/α   predicted    -0.3898567E-04 (-227.63%)
   displ. norm   :     0.1425641 α      lambda       -0.1341607E-03
   maximum displ.:     0.1016252 α      in ANC's #5, #2, #6, ...

........................................................................
.............................. CYCLE   41 ..............................
........................................................................
   1    -21.7677377 -0.217677E+02  0.185E-01    3.68       0.0  T
   2    -21.7677420 -0.434692E-05  0.114E-01    3.69       1.0  T
   3    -21.7677348  0.724449E-05  0.327E-02    3.67       1.0  T
   4    -21.7677454 -0.106152E-04  0.780E-03    3.68       3.7  T
   5    -21.7677455 -0.857795E-07  0.394E-03    3.68       7.3  T
   6    -21.7677455 -0.379848E-07  0.129E-03    3.68      22.4  T
   7    -21.7677455 -0.641918E-08  0.841E-04    3.68      34.3  T
     SCC iter.                  ...        0 min,  0.093 sec
     gradient                   ...        0 min,  0.003 sec
 * total energy  :   -21.5396653 Eh     change       -0.5152041E-04 Eh
   gradient norm :     0.0048844 Eh/α   predicted    -0.6844329E-04 (  32.85%)
   displ. norm   :     0.0490444 α      lambda       -0.6047424E-04
   maximum displ.:     0.0230236 α      in ANC's #2, #9, #5, ...

........................................................................
.............................. CYCLE   42 ..............................
........................................................................
   1    -21.7680957 -0.217681E+02  0.528E-02    3.68       0.0  T
   2    -21.7680962 -0.484416E-06  0.318E-02    3.68       1.0  T
   3    -21.7680957  0.549820E-06  0.894E-03    3.68       3.2  T
   4    -21.7680964 -0.718459E-06  0.200E-03    3.68      14.5  T
   5    -21.7680964 -0.152161E-07  0.908E-04    3.68      31.8  T
     SCC iter.                  ...        0 min,  0.002 sec
     gradient                   ...        0 min,  0.001 sec
 * total energy  :   -21.5396727 Eh     change       -0.7398341E-05 Eh
   gradient norm :     0.0041894 Eh/α   predicted    -0.3031128E-04 ( 309.70%)
   displ. norm   :     0.0372627 α      lambda       -0.3763645E-04
   maximum displ.:     0.0217332 α      in ANC's #10, #4, #9, ...
 * RMSD in coord.:     0.6768319 α      energy gain  -0.1028443E-02 Eh

generating ANC from model Hessian ...
Using Lindh-Hessian (1995)
 Shifting diagonal of input Hessian by   9.830320742829217E-003
 Lowest  eigenvalues of input Hessian
   -0.000000   -0.000000   -0.000000    0.000000    0.000000    0.000000
    0.010000    0.010207    0.010280    0.010404    0.010706    0.010828
    0.010957    0.011254    0.022776    0.026812    0.067824    0.098683
 Highest eigenvalues
    1.189399    1.298733    1.303933    1.491498    1.524619    2.813464
 

........................................................................
.............................. CYCLE   43 ..............................
........................................................................
   1    -21.7686742 -0.217687E+02  0.490E-02    3.69       0.0  T
   2    -21.7686749 -0.656463E-06  0.307E-02    3.68       1.0  T
   3    -21.7686734  0.145301E-05  0.157E-02    3.69       1.8  T
   4    -21.7686754 -0.198219E-05  0.181E-03    3.68      16.0  T
   5    -21.7686754 -0.546597E-08  0.956E-04    3.69      30.2  T
   6    -21.7686754 -0.248646E-08  0.403E-04    3.69      71.7  T
     SCC iter.                  ...        0 min,  0.004 sec
     gradient                   ...        0 min,  0.001 sec
 * total energy  :   -21.5396924 Eh     change       -0.1970148E-04 Eh
   gradient norm :     0.0021776 Eh/α   predicted     0.0000000E+00 (-100.00%)
   displ. norm   :     0.0283920 α      lambda       -0.1669341E-04
   maximum displ.:     0.0209805 α      in ANC's #6, #8, #10, ...

........................................................................
.............................. CYCLE   44 ..............................
........................................................................
   1    -21.7686662 -0.217687E+02  0.715E-02    3.68       0.0  T
   2    -21.7686664 -0.201553E-06  0.438E-02    3.68       1.0  T
   3    -21.7686664 -0.728584E-08  0.389E-03    3.68       7.4  T
   4    -21.7686665 -0.129980E-06  0.155E-03    3.68      18.7  T
   5    -21.7686665 -0.223660E-08  0.237E-04    3.68     121.6  T
   6    -21.7686665 -0.114731E-09  0.998E-05    3.68     289.3  T
     SCC iter.                  ...        0 min,  0.093 sec
     gradient                   ...        0 min,  0.001 sec
 * total energy  :   -21.5396877 Eh     change        0.4727487E-05 Eh
   gradient norm :     0.0018505 Eh/α   predicted    -0.8354049E-05 (-276.71%)
   displ. norm   :     0.0752959 α      lambda       -0.4819424E-04
   maximum displ.:     0.0422404 α      in ANC's #7, #1, #10, ...

........................................................................
.............................. CYCLE   45 ..............................
........................................................................
   1    -21.7688384 -0.217688E+02  0.120E-01    3.68       0.0  T
   2    -21.7688396 -0.114626E-05  0.752E-02    3.68       1.0  T
   3    -21.7688400 -0.429757E-06  0.652E-03    3.68       4.4  T
   4    -21.7688403 -0.310215E-06  0.304E-03    3.68       9.5  T
   5    -21.7688403 -0.158331E-07  0.939E-04    3.68      30.8  T
   6    -21.7688403 -0.303003E-08  0.444E-04    3.68      65.0  T
     SCC iter.                  ...        0 min,  0.003 sec
     gradient                   ...        0 min,  0.092 sec
 * total energy  :   -21.5396945 Eh     change       -0.6850456E-05 Eh
   gradient norm :     0.0043422 Eh/α   predicted    -0.2415856E-04 ( 252.66%)
   displ. norm   :     0.0293622 α      lambda       -0.3322347E-04
   maximum displ.:     0.0155321 α      in ANC's #3, #2, #1, ...

........................................................................
.............................. CYCLE   46 ..............................
........................................................................
   1    -21.7688184 -0.217688E+02  0.607E-02    3.68       0.0  T
   2    -21.7688186 -0.149337E-06  0.373E-02    3.68       1.0  T
   3    -21.7688181  0.517294E-06  0.737E-03    3.69       3.9  T
   4    -21.7688187 -0.623651E-06  0.859E-04    3.68      33.6  T
   5    -21.7688187 -0.102074E-08  0.443E-04    3.68      65.2  T
     SCC iter.                  ...        0 min,  0.003 sec
     gradient                   ...        0 min,  0.001 sec
 * total energy  :   -21.5397016 Eh     change       -0.7021029E-05 Eh
   gradient norm :     0.0023785 Eh/α   predicted    -0.1662639E-04 ( 136.81%)
   displ. norm   :     0.0364172 α      lambda       -0.5492194E-04
   maximum displ.:     0.0260998 α      in ANC's #2, #1, #3, ...

........................................................................
.............................. CYCLE   47 ..............................
........................................................................
   1    -21.7687112 -0.217687E+02  0.911E-02    3.69       0.0  T
   2    -21.7687117 -0.490216E-06  0.558E-02    3.68       1.0  T
   3    -21.7687098  0.190073E-05  0.144E-02    3.69       2.0  T
   4    -21.7687121 -0.227027E-05  0.186E-03    3.69      15.5  T
   5    -21.7687121 -0.496832E-08  0.974E-04    3.69      29.6  T
   6    -21.7687121 -0.304528E-08  0.376E-04    3.69      76.8  T
     SCC iter.                  ...        0 min,  0.093 sec
     gradient                   ...        0 min,  0.001 sec
 * total energy  :   -21.5397092 Eh     change       -0.7613417E-05 Eh
   gradient norm :     0.0030295 Eh/α   predicted    -0.2749786E-04 ( 261.18%)
   displ. norm   :     0.0301277 α      lambda       -0.2401969E-04
   maximum displ.:     0.0177221 α      in ANC's #1, #6, #7, ...

........................................................................
.............................. CYCLE   48 ..............................
........................................................................
   1    -21.7687365 -0.217687E+02  0.332E-02    3.68       0.0  T
   2    -21.7687367 -0.221093E-06  0.207E-02    3.68       1.4  T
   3    -21.7687361  0.620818E-06  0.924E-03    3.68       3.1  T
   4    -21.7687369 -0.798412E-06  0.128E-03    3.68      22.5  T
   5    -21.7687369 -0.161048E-08  0.640E-04    3.68      45.1  T
   6    -21.7687369 -0.122236E-08  0.198E-04    3.68     145.7  T
     SCC iter.                  ...        0 min,  0.003 sec
     gradient                   ...        0 min,  0.091 sec
 * total energy  :   -21.5397229 Eh     change       -0.1370585E-04 Eh
   gradient norm :     0.0003983 Eh/α   predicted    -0.1201986E-04 ( -12.30%)
   displ. norm   :     0.0448690 α      lambda       -0.4582361E-05
   maximum displ.:     0.0266036 α      in ANC's #1, #6, #8, ...

........................................................................
.............................. CYCLE   49 ..............................
........................................................................
   1    -21.7686966 -0.217687E+02  0.442E-02    3.68       0.0  T
   2    -21.7686967 -0.605863E-07  0.266E-02    3.68       1.1  T
   3    -21.7686967  0.184704E-07  0.255E-03    3.68      11.3  T
   4    -21.7686967 -0.604958E-07  0.100E-03    3.68      28.8  T
   5    -21.7686967 -0.103367E-08  0.319E-04    3.68      90.4  T
   6    -21.7686967 -0.413749E-09  0.110E-04    3.68     262.0  T
     SCC iter.                  ...        0 min,  0.003 sec
     gradient                   ...        0 min,  0.001 sec
 * total energy  :   -21.5397286 Eh     change       -0.5730818E-05 Eh
   gradient norm :     0.0007357 Eh/α   predicted    -0.2294834E-05 ( -59.96%)
   displ. norm   :     0.1876359 α      lambda       -0.1592728E-04
   maximum displ.:     0.1073751 α      in ANC's #1, #6, #8, ...

........................................................................
.............................. CYCLE   50 ..............................
........................................................................
   1    -21.7681083 -0.217681E+02  0.199E-01    3.68       0.0  T
   2    -21.7681093 -0.102983E-05  0.119E-01    3.68       1.0  T
   3    -21.7681099 -0.629211E-06  0.602E-03    3.68       4.8  T
   4    -21.7681100 -0.684731E-07  0.412E-03    3.68       7.0  T
   5    -21.7681101 -0.567994E-07  0.148E-03    3.68      19.5  T
   6    -21.7681101 -0.905971E-08  0.593E-04    3.68      48.7  T
   7    -21.7681101 -0.147240E-08  0.257E-04    3.68     112.1  T
     SCC iter.                  ...        0 min,  0.094 sec
     gradient                   ...        0 min,  0.001 sec
 * total energy  :   -21.5397435 Eh     change       -0.1487151E-04 Eh
   gradient norm :     0.0014960 Eh/α   predicted    -0.8088061E-05 ( -45.61%)
   displ. norm   :     0.1070922 α      lambda       -0.7904255E-05
   maximum displ.:     0.0633494 α      in ANC's #1, #2, #8, ...

........................................................................
.............................. CYCLE   51 ..............................
........................................................................
   1    -21.7683856 -0.217684E+02  0.125E-01    3.68       0.0  T
   2    -21.7683863 -0.648548E-06  0.756E-02    3.68       1.0  T
   3    -21.7683864 -0.133433E-06  0.734E-03    3.68       3.9  T
   4    -21.7683868 -0.388587E-06  0.365E-03    3.68       7.9  T
   5    -21.7683868 -0.283616E-07  0.968E-04    3.68      29.8  T
   6    -21.7683869 -0.380349E-08  0.549E-04    3.68      52.6  T
     SCC iter.                  ...        0 min,  0.003 sec
     gradient                   ...        0 min,  0.092 sec
 * total energy  :   -21.5397531 Eh     change       -0.9627355E-05 Eh
   gradient norm :     0.0009546 Eh/α   predicted    -0.3972619E-05 ( -58.74%)
   displ. norm   :     0.2307383 α      lambda       -0.1706097E-04
   maximum displ.:     0.1364858 α      in ANC's #1, #2, #8, ...

........................................................................
.............................. CYCLE   52 ..............................
........................................................................
   1    -21.7681034 -0.217681E+02  0.290E-01    3.68       0.0  T
   2    -21.7681075 -0.407528E-05  0.176E-01    3.68       1.0  T
   3    -21.7681106 -0.313014E-05  0.120E-02    3.68       2.4  T
   4    -21.7681108 -0.142189E-06  0.624E-03    3.68       4.6  T
   5    -21.7681109 -0.124294E-06  0.215E-03    3.68      13.4  T
   6    -21.7681109 -0.191801E-07  0.129E-03    3.68      22.4  T
   7    -21.7681109 -0.520567E-08  0.820E-04    3.68      35.2  T
   8    -21.7681109 -0.379381E-08  0.259E-04    3.68     111.3  T
     SCC iter.                  ...        0 min,  0.005 sec
     gradient                   ...        0 min,  0.001 sec
 * total energy  :   -21.5397718 Eh     change       -0.1870840E-04 Eh
   gradient norm :     0.0016372 Eh/α   predicted    -0.8732325E-05 ( -53.32%)
   displ. norm   :     0.2204635 α      lambda       -0.2135334E-04
   maximum displ.:     0.1250590 α      in ANC's #1, #5, #2, ...

........................................................................
.............................. CYCLE   53 ..............................
........................................................................
   1    -21.7688956 -0.217689E+02  0.303E-01    3.69       0.0  T
   2    -21.7689021 -0.645402E-05  0.186E-01    3.68       1.0  T
   3    -21.7689061 -0.403606E-05  0.173E-02    3.69       1.7  T
   4    -21.7689070 -0.887368E-06  0.112E-02    3.68       2.6  T
   5    -21.7689074 -0.429623E-06  0.300E-03    3.68       9.6  T
   6    -21.7689075 -0.344550E-07  0.154E-03    3.68      18.8  T
   7    -21.7689075 -0.874279E-08  0.831E-04    3.68      34.7  T
   8    -21.7689075 -0.318767E-08  0.249E-04    3.68     116.1  T
     SCC iter.                  ...        0 min,  0.004 sec
     gradient                   ...        0 min,  0.001 sec
 * total energy  :   -21.5397870 Eh     change       -0.1521313E-04 Eh
   gradient norm :     0.0023735 Eh/α   predicted    -0.1090772E-04 ( -28.30%)
   displ. norm   :     0.1023257 α      lambda       -0.9971896E-05
   maximum displ.:     0.0606683 α      in ANC's #1, #8, #2, ...

........................................................................
.............................. CYCLE   54 ..............................
........................................................................
   1    -21.7680794 -0.217681E+02  0.128E-01    3.68       0.0  T
   2    -21.7680801 -0.792180E-06  0.776E-02    3.68       1.0  T
   3    -21.7680801  0.475705E-08  0.865E-03    3.68       3.3  T
   4    -21.7680807 -0.597317E-06  0.403E-03    3.68       7.2  T
   5    -21.7680808 -0.344183E-07  0.145E-03    3.68      19.9  T
   6    -21.7680808 -0.660170E-08  0.582E-04    3.68      49.6  T
   7    -21.7680808 -0.124054E-08  0.352E-04    3.68      82.1  T
     SCC iter.                  ...        0 min,  0.094 sec
     gradient                   ...        0 min,  0.001 sec
 * total energy  :   -21.5397927 Eh     change       -0.5663696E-05 Eh
   gradient norm :     0.0020444 Eh/α   predicted    -0.5036535E-05 ( -11.07%)
   displ. norm   :     0.0409293 α      lambda       -0.1902600E-04
   maximum displ.:     0.0208927 α      in ANC's #4, #5, #1, ...

........................................................................
.............................. CYCLE   55 ..............................
........................................................................
   1    -21.7690527 -0.217691E+02  0.548E-02    3.69       0.0  T
   2    -21.7690530 -0.354768E-06  0.328E-02    3.68       1.0  T
   3    -21.7690517  0.138042E-05  0.129E-02    3.69       2.2  T
   4    -21.7690533 -0.167497E-05  0.145E-03    3.68      19.9  T
   5    -21.7690533 -0.258644E-08  0.829E-04    3.68      34.8  T
   6    -21.7690533 -0.154662E-08  0.257E-04    3.68     112.4  T
     SCC iter.                  ...        0 min,  0.003 sec
     gradient                   ...        0 min,  0.093 sec
 * total energy  :   -21.5397981 Eh     change       -0.5376732E-05 Eh
   gradient norm :     0.0021561 Eh/α   predicted    -0.9529536E-05 (  77.24%)
   displ. norm   :     0.0825387 α      lambda       -0.1096291E-04
   maximum displ.:     0.0506976 α      in ANC's #1, #5, #4, ...

........................................................................
.............................. CYCLE   56 ..............................
........................................................................
   1    -21.7684553 -0.217685E+02  0.107E-01    3.68       0.0  T
   2    -21.7684559 -0.612070E-06  0.645E-02    3.68       1.0  T
   3    -21.7684557  0.237389E-06  0.892E-03    3.68       3.2  T
   4    -21.7684564 -0.724412E-06  0.357E-03    3.68       8.1  T
   5    -21.7684564 -0.212781E-07  0.110E-03    3.68      26.3  T
   6    -21.7684564 -0.460314E-08  0.518E-04    3.68      55.7  T
   7    -21.7684564 -0.957577E-09  0.335E-04    3.68      86.2  T
     SCC iter.                  ...        0 min,  0.004 sec
     gradient                   ...        0 min,  0.002 sec
 * total energy  :   -21.5398061 Eh     change       -0.8027966E-05 Eh
   gradient norm :     0.0013296 Eh/α   predicted    -0.5520243E-05 ( -31.24%)
   displ. norm   :     0.1907839 α      lambda       -0.9880740E-05
   maximum displ.:     0.1118855 α      in ANC's #1, #5, #4, ...

........................................................................
.............................. CYCLE   57 ..............................
........................................................................
   1    -21.7674834 -0.217675E+02  0.254E-01    3.67       0.0  T
   2    -21.7674863 -0.294995E-05  0.153E-01    3.67       1.0  T
   3    -21.7674883 -0.193818E-05  0.114E-02    3.67       2.5  T
   4    -21.7674885 -0.206930E-06  0.770E-03    3.68       3.8  T
   5    -21.7674887 -0.215255E-06  0.216E-03    3.67      13.4  T
   6    -21.7674887 -0.198698E-07  0.110E-03    3.67      26.2  T
   7    -21.7674887 -0.411891E-08  0.665E-04    3.67      43.4  T
   8    -21.7674887 -0.214528E-08  0.197E-04    3.67     146.4  T
     SCC iter.                  ...        0 min,  0.004 sec
     gradient                   ...        0 min,  0.001 sec
 * total energy  :   -21.5398080 Eh     change       -0.1856945E-05 Eh
   gradient norm :     0.0030875 Eh/α   predicted    -0.5020256E-05 ( 170.35%)
   displ. norm   :     0.0666681 α      lambda       -0.1220064E-04
   maximum displ.:     0.0400383 α      in ANC's #1, #5, #2, ...

........................................................................
.............................. CYCLE   58 ..............................
........................................................................
   1    -21.7686720 -0.217687E+02  0.864E-02    3.68       0.0  T
   2    -21.7686725 -0.500529E-06  0.523E-02    3.68       1.0  T
   3    -21.7686713  0.120868E-05  0.124E-02    3.69       2.3  T
   4    -21.7686729 -0.164174E-05  0.285E-03    3.68      10.1  T
   5    -21.7686729 -0.124234E-07  0.951E-04    3.68      30.4  T
   6    -21.7686729 -0.270391E-08  0.404E-04    3.68      71.4  T
     SCC iter.                  ...        0 min,  0.093 sec
     gradient                   ...        0 min,  0.001 sec
 * total energy  :   -21.5398146 Eh     change       -0.6666323E-05 Eh
   gradient norm :     0.0016074 Eh/α   predicted    -0.6127687E-05 (  -8.08%)
   displ. norm   :     0.0434144 α      lambda       -0.6406903E-05
   maximum displ.:     0.0231044 α      in ANC's #1, #4, #8, ...

........................................................................
.............................. CYCLE   59 ..............................
........................................................................
   1    -21.7686364 -0.217686E+02  0.586E-02    3.68       0.0  T
   2    -21.7686366 -0.137402E-06  0.351E-02    3.68       1.0  T
   3    -21.7686364  0.207569E-06  0.508E-03    3.68       5.7  T
   4    -21.7686366 -0.273165E-06  0.112E-03    3.68      25.7  T
   5    -21.7686366 -0.293435E-08  0.658E-04    3.68      43.9  T
   6    -21.7686366 -0.104350E-08  0.176E-04    3.68     164.3  T
     SCC iter.                  ...        0 min,  0.003 sec
     gradient                   ...        0 min,  0.091 sec
 * total energy  :   -21.5398181 Eh     change       -0.3441012E-05 Eh
   gradient norm :     0.0013295 Eh/α   predicted    -0.3204898E-05 (  -6.86%)
   displ. norm   :     0.0665762 α      lambda       -0.4039909E-05
   maximum displ.:     0.0349654 α      in ANC's #5, #1, #4, ...

........................................................................
.............................. CYCLE   60 ..............................
........................................................................
   1    -21.7688222 -0.217688E+02  0.881E-02    3.68       0.0  T
   2    -21.7688224 -0.239655E-06  0.527E-02    3.68       1.0  T
   3    -21.7688223  0.128599E-06  0.571E-03    3.69       5.1  T
   4    -21.7688226 -0.304031E-06  0.217E-03    3.68      13.3  T
   5    -21.7688226 -0.609120E-08  0.604E-04    3.68      47.8  T
   6    -21.7688226 -0.993033E-09  0.267E-04    3.68     108.3  T
     SCC iter.                  ...        0 min,  0.004 sec
     gradient                   ...        0 min,  0.293 sec
 * total energy  :   -21.5398226 Eh     change       -0.4486272E-05 Eh
   gradient norm :     0.0005005 Eh/α   predicted    -0.2024021E-05 ( -54.88%)
   displ. norm   :     0.1662219 α      lambda       -0.5314582E-05
   maximum displ.:     0.0977151 α      in ANC's #1, #5, #4, ...

   *** GEOMETRY OPTIMIZATION CONVERGED AFTER 60 ITERATIONS ***

------------------------------------------------------------------------
 total energy gain   :        -0.0185081 Eh      -11.6140 kcal/mol
 total RMSD          :         1.6763638 a0        0.8871 Å
 total power (kW/mol):        -0.8098856 (step)  -11.5985 (real)
------------------------------------------------------------------------

 ANCopt (total)                0 d,  0 h,  0 min,  4.190 sec
 optimizer setup                ...        0 min,  0.000 sec (  0.012%)
 model hessian                  ...        0 min,  0.181 sec (  4.315%)
 ANC generation                 ...        0 min,  0.002 sec (  0.043%)
 coordinate transformation      ...        0 min,  0.002 sec (  0.056%)
 single point calculation       ...        0 min,  3.704 sec ( 88.401%)
 optimization log               ...        0 min,  0.005 sec (  0.108%)
 hessian update                 ...        0 min,  0.188 sec (  4.490%)
 rational function              ...        0 min,  0.006 sec (  0.139%)

================
 final structure:
================
12
 xtb: 6.2.3 (830e466)
C         1.69685392805440    1.29540622206362   -3.18161919225653
C         0.18859063659124    0.36500356843413    0.44617503850609
C         1.17088493201234   -0.42729330432942    0.19837646850537
O         0.51192347045855    2.00330795954141   -2.91468654307493
O         0.65217839680631    2.78804338210329   -1.74111028900989
O         2.07242646249934   -1.12323576380109   -0.04856127044807
H         0.61181847682607    3.70185669950805   -2.05715978477042
H         1.95821577726201    0.62598462427673   -2.35888034898505
H         2.53232795023866    1.97264383531596   -3.38766220797632
H         1.45835649505190    0.71572207120334   -4.07141961839423
H        -0.56006231696540    0.13393002034553    1.17632301952010
H         0.09549579116448    1.28824068533863   -0.09557527161590
 
 Bond Distances (Angstroems)
 ---------------------------
C1-O4=1.4059         C1-H8=1.0924         C1-H9=1.0950         C1-H10=1.0884        C2-C3=1.2861         C2-H11=1.0710        
C2-H12=1.0745        C3-C2=1.2861         C3-O6=1.1654         O4-C1=1.4059         O4-O5=1.4187         O5-O4=1.4187         
O5-H7=0.9678         O6-C3=1.1654         H7-O5=0.9678         H8-C1=1.0924         H9-C1=1.0950         H10-C1=1.0884        
H11-C2=1.0710        H12-C2=1.0745        
 C  H  Rav=1.0843 sigma=0.0097  Rmin=1.0710  Rmax=1.0950     5
 C  C  Rav=1.2861 sigma=0.0000  Rmin=1.2861  Rmax=1.2861     1
 O  H  Rav=0.9678 sigma=0.0000  Rmin=0.9678  Rmax=0.9678     1
 O  C  Rav=1.2856 sigma=0.1202  Rmin=1.1654  Rmax=1.4059     2
 O  O  Rav=1.4187 sigma=0.0000  Rmin=1.4187  Rmax=1.4187     1
 
 selected bond angles (degree)
 --------------------
H8-C1-O4=111.54                H9-C1-O4=111.55                H9-C1-H8=109.76                H10-C1-O4=103.81               
H10-C1-H8=109.98               H10-C1-H9=110.04               H11-C2-C3=122.16               H12-C2-C3=119.89               
H12-C2-H11=117.94              O6-C3-C2=178.36                O5-O4-C1=110.63                H7-O5-O4=104.36                
 
 selected dihedral angles (degree)
 ---------------------------------
O6-C3-C2-H11=180.88           O6-C3-C2-H12=  1.55           O5-O4-C1-H8= 59.86            O5-O4-C1-H9=296.71            
O5-O4-C1-H10=178.25           H7-O5-O4-C1=113.48            
 
 CMA Distance (Angstroems)
 ---------------------------
R(CMA):  3.7354
           -------------------------------------------------
          |                Final Singlepoint                |
           -------------------------------------------------

          ...................................................
          :                      SETUP                      :
          :.................................................:
          :  # basis functions                  30          :
          :  # atomic orbitals                  30          :
          :  # shells                           18          :
          :  # electrons                        36          :
          :  max. iterations                   100          :
          :  Hamiltonian                  GFN2-xTB          :
          :  restarted?                      false          :
          :  GBSA solvation                  false          :
          :  PC potential                    false          :
          :  electronic temp.          300.0000000     K    :
          :  accuracy                    1.0000000          :
          :  -> integral cutoff          0.2500000E+02      :
          :  -> integral neglect         0.1000000E-07      :
          :  -> SCF convergence          0.1000000E-05 Eh   :
          :  -> wf. convergence          0.1000000E-03 e    :
          :  Broyden damping             0.4000000          :
          ...................................................

 iter      E             dE          RMSdq      gap      omega  full diag
   1    -21.7688226 -0.217688E+02  0.131E-04    3.68       0.0  T
   2    -21.7688226 -0.530136E-10  0.864E-05    3.68     334.2  T
   3    -21.7688226 -0.182396E-10  0.584E-05    3.68     494.2  T

   *** convergence criteria satisfied after 3 iterations ***

         #    Occupation            Energy/Eh            Energy/eV
      -------------------------------------------------------------
         1        2.0000           -0.7358697             -20.0240
       ...           ...                  ...                  ...
        12        2.0000           -0.5269959             -14.3403
        13        2.0000           -0.4988603             -13.5747
        14        2.0000           -0.4888977             -13.3036
        15        2.0000           -0.4726709             -12.8620
        16        2.0000           -0.4697604             -12.7828
        17        2.0000           -0.4289240             -11.6716
        18        2.0000           -0.3784895             -10.2992 (HOMO)
        19                         -0.2431398              -6.6162 (LUMO)
        20                         -0.1534107              -4.1745
        21                         -0.1517707              -4.1299
        22                          0.0743641               2.0235
        23                          0.1075986               2.9279
       ...                                ...                  ...
        30                          1.1848341              32.2410
      -------------------------------------------------------------
                  HL-Gap            0.1353497 Eh            3.6831 eV
             Fermi-level           -0.3108147 Eh           -8.4577 eV

 SCC (total)                   0 d,  0 h,  0 min,  0.006 sec
 SCC setup                      ...        0 min,  0.000 sec (  1.625%)
 Dispersion                     ...        0 min,  0.000 sec (  0.730%)
 integral evaluation            ...        0 min,  0.001 sec (  8.609%)
 zeroth order Hamiltonian       ...        0 min,  0.000 sec (  0.968%)
 iterations                     ...        0 min,  0.002 sec ( 33.536%)
 molecular gradient             ...        0 min,  0.003 sec ( 50.149%)
 printout                       ...        0 min,  0.000 sec (  1.085%)

         :::::::::::::::::::::::::::::::::::::::::::::::::::::
         ::                     SUMMARY                     ::
         :::::::::::::::::::::::::::::::::::::::::::::::::::::
         :: total energy             -21.539822553153 Eh    ::
         :: gradient norm              0.000500568691 Eh/a0 ::
         :: HOMO-LUMO gap              3.683053045289 eV    ::
         ::.................................................::
         :: SCC energy               -21.768822608940 Eh    ::
         :: -> isotropic ES            0.043784030946 Eh    ::
         :: -> anisotropic ES         -0.004197039705 Eh    ::
         :: -> anisotropic XC         -0.000683063554 Eh    ::
         :: -> dispersion             -0.005038895710 Eh    ::
         :: repulsion energy           0.228982502962 Eh    ::
         :: add. restraining           0.000000000000 Eh    ::
         :::::::::::::::::::::::::::::::::::::::::::::::::::::

           -------------------------------------------------
          |                Property Printout                |
           -------------------------------------------------

    * Orbital Energies and Occupations

         #    Occupation            Energy/Eh            Energy/eV
      -------------------------------------------------------------
         1        2.0000           -0.7358697             -20.0240
       ...           ...                  ...                  ...
         6        2.0000           -0.6181549             -16.8208
         7        2.0000           -0.5883079             -16.0087
         8        2.0000           -0.5704931             -15.5239
         9        2.0000           -0.5648302             -15.3698
        10        2.0000           -0.5607820             -15.2597
        11        2.0000           -0.5586873             -15.2027
        12        2.0000           -0.5269959             -14.3403
        13        2.0000           -0.4988603             -13.5747
        14        2.0000           -0.4888977             -13.3036
        15        2.0000           -0.4726709             -12.8620
        16        2.0000           -0.4697604             -12.7828
        17        2.0000           -0.4289240             -11.6716
        18        2.0000           -0.3784895             -10.2992 (HOMO)
        19                         -0.2431398              -6.6162 (LUMO)
        20                         -0.1534107              -4.1745
        21                         -0.1517707              -4.1299
        22                          0.0743641               2.0235
        23                          0.1075986               2.9279
        24                          0.1393744               3.7926
        25                          0.1622166               4.4141
        26                          0.1969481               5.3592
        27                          0.2102681               5.7217
        28                          0.3483692               9.4796
        29                          0.3699848              10.0678
        30                          1.1848341              32.2410
      -------------------------------------------------------------
                  HL-Gap            0.1353497 Eh            3.6831 eV
             Fermi-level           -0.3108147 Eh           -8.4577 eV

     #   Z        covCN         q      C6AA      α(0)
     1   6 C      3.626     0.034    20.418     6.510
     2   6 C      2.834    -0.207    33.481     9.482
     3   6 C      1.836     0.249    25.394     8.141
     4   8 O      1.783    -0.204    17.378     5.629
     5   8 O      1.739    -0.325    19.419     5.950
     6   8 O      0.856    -0.261    19.100     5.859
     7   1 H      0.805     0.315     0.676     1.292
     8   1 H      0.924     0.059     2.211     2.325
     9   1 H      0.924     0.047     2.359     2.402
    10   1 H      0.925     0.076     2.026     2.226
    11   1 H      0.926     0.091     1.866     2.136
    12   1 H      0.926     0.125     1.571     1.960

 Mol. C6AA /au·bohr⁶  :       1299.307351
 Mol. C8AA /au·bohr⁸  :      28060.069651
 Mol. α(0) /au        :         53.913417


Wiberg/Mayer (AO) data.
largest (>0.10) Wiberg bond orders for each atom
          total WBO             WBO to atom ...
     1  C   3.937        O    4 0.998    H    9 0.978    H    8 0.977    H   10 0.964
     2  C   3.913        C    3 1.827    H   11 0.920    H   12 0.896    O    6 0.265
     3  C   3.880        O    6 1.982    C    2 1.827
     4  O   2.011        C    1 0.998    O    5 0.974
     5  O   1.923        O    4 0.974    H    7 0.893
     6  O   2.331        C    3 1.982    C    2 0.265
     7  H   0.900        O    5 0.893
     8  H   0.997        C    1 0.977
     9  H   0.998        C    1 0.978
    10  H   0.994        C    1 0.964
    11  H   0.992        C    2 0.920
    12  H   0.984        C    2 0.896

molecular dipole:
                 x           y           z       tot (Debye)
 q only:       -0.092       0.695      -0.264
   full:       -0.069       0.897      -0.331       2.437
molecular quadrupole (traceless):
                xx          xy          yy          xz          yz          zz
 q only:       -4.382       4.578       2.187      -5.509      -2.513       2.194
  q+dip:       -5.660       5.943       4.153      -6.982      -5.658       1.507
   full:       -6.393       6.572       4.088      -6.733      -5.354       2.305

           -------------------------------------------------
          |                Geometry Summary                 |
           -------------------------------------------------

      molecular mass/u    :       90.0780670
   center of mass at/Å    :        1.0505982       0.9103624      -1.2946445
  moments of inertia/u·Å² :        0.9792078E+02   0.3346172E+03   0.4090895E+03
rotational constants/cm⁻¹ :        0.1721558E+00   0.5037885E-01   0.4120769E-01

 * 10 selected distances

     #   Z        #   Z                                     value/Å
     2   6 C      3   6 C                                 1.2860951
     1   6 C      4   8 O                                 1.4058585
     4   8 O      5   8 O                                 1.4187186 (max)
     3   6 C      6   8 O                                 1.1653717
     5   8 O      7   1 H                                 0.9677660 (min)
     1   6 C      8   1 H                                 1.0923985
     1   6 C      9   1 H                                 1.0950440
     1   6 C     10   1 H                                 1.0884207
     2   6 C     11   1 H                                 1.0709773
     2   6 C     12   1 H                                 1.0744891

 * 5 distinct bonds (by element types)

   Z      Z             #   av. dist./Å        max./Å        min./Å
   1 H    6 C           5     1.0842659     1.0950440     1.0709773
   6 C    6 C           1     1.2860951     1.2860951     1.2860951
   1 H    8 O           1     0.9677660     0.9677660     0.9677660
   6 C    8 O           2     1.2856151     1.4058585     1.1653717
   8 O    8 O           1     1.4187186     1.4187186     1.4187186


optimized geometry written to: xtbopt.xyz


           -------------------------------------------------
          | TOTAL ENERGY              -21.539822553153 Eh   |
          | GRADIENT NORM               0.000500568691 Eh/α |
          | HOMO-LUMO GAP               3.683053045289 eV   |
           -------------------------------------------------

------------------------------------------------------------------------
 * finished run on 2020/12/23 at 21:42:58.365     
------------------------------------------------------------------------
 total:
 * wall-time:     0 d,  0 h,  0 min,  4.768 sec
 *  cpu-time:     0 d,  0 h,  0 min, 19.409 sec
 * ratio c/w:     4.071 speedup
 SCF:
 * wall-time:     0 d,  0 h,  0 min,  0.104 sec
 *  cpu-time:     0 d,  0 h,  0 min,  0.497 sec
 * ratio c/w:     4.773 speedup
 ANC optimizer:
 * wall-time:     0 d,  0 h,  0 min,  4.198 sec
 *  cpu-time:     0 d,  0 h,  0 min, 16.806 sec
 * ratio c/w:     4.003 speedup

