12
 energy: -21.619190069323 gnorm: 0.085256312267 xtb: 6.2.3 (830e466)
C         0.87152000000000    1.39240000000000   -2.48617000000000
C         1.04489000000000    1.02378000000000   -1.00757000000000
C         1.77374000000000   -0.28661000000000   -0.88823000000000
O         0.17743000000000    2.60350000000000   -2.61663000000000
O         1.76120000000000    2.03279000000000   -0.34104000000000
O         2.83611000000000   -0.36721000000000   -0.29135000000000
H         1.10731000000000    2.73860000000000   -0.09583000000000
H         1.86806000000000    1.50568000000000   -2.96503000000000
H         0.33323000000000    0.58593000000000   -3.03568000000000
H         1.34833000000000   -1.17853000000000   -1.33756000000000
H         0.04575000000000    0.88540000000000   -0.53288000000000
H        -0.77858000000000    2.40387000000000   -2.43784000000000
12
 energy: -21.624460707694 gnorm: 0.034714877324 xtb: 6.2.3 (830e466)
C         0.85903192890499    1.38792898514192   -2.48561907524638
C         1.04596688896127    1.01832014502733   -0.99951056495618
C         1.79403741514911   -0.28640247304062   -0.86893122992985
O         0.15414963536878    2.59337881264181   -2.63133325566345
O         1.75299014645696    2.02191116656017   -0.31739536533031
O         2.83908424121186   -0.39928386604396   -0.28558851893282
H         1.14192599636091    2.76089054028583   -0.14094398254431
H         1.84955081612106    1.54251750469491   -2.93410652366647
H         0.35709324003809    0.56631373602650   -3.02671750810961
H         1.33536372323957   -1.15665879448849   -1.35600540375075
H         0.04367423162857    0.86954444677839   -0.54975323191051
H        -0.78387826344116    2.42113979641621   -2.43990533995935
12
 energy: -21.626411163431 gnorm: 0.014586060050 xtb: 6.2.3 (830e466)
C         0.86598238865877    1.38859769011985   -2.48322108537808
C         1.04696939813867    1.01608390952712   -0.98815065981299
C         1.81195849385064   -0.28572308780729   -0.86854458430966
O         0.12785374480698    2.57462990584618   -2.63115805860543
O         1.74125344848146    2.01532849788441   -0.29235481618439
O         2.83391299079492   -0.44063647641877   -0.27766605568837
H         1.17291721887821    2.79999883773826   -0.20924133057961
H         1.84763204369662    1.59226054885078   -2.91636723895637
H         0.39478121359407    0.55336401683359   -3.01540543263941
H         1.29513706779612   -1.13144125187075   -1.37470325301567
H         0.04550149702184    0.84823962188939   -0.55081366901881
H        -0.79490950571829    2.40889778740723   -2.42818381581122
12
 energy: -21.626913704422 gnorm: 0.026540702845 xtb: 6.2.3 (830e466)
C         0.87381360523309    1.38941298187733   -2.47269820013546
C         1.04815170341171    1.01653867404591   -0.97420452025060
C         1.80116995609479   -0.29407327959602   -0.85076332083952
O         0.10920921013848    2.55900988645722   -2.62598180752119
O         1.73236493269357    2.01441945361316   -0.27160107197888
O         2.82976941304383   -0.47407680886848   -0.28344491670777
H         1.19768834601732    2.84014717277215   -0.28323498796162
H         1.85362586863794    1.62355013761268   -2.89204832861329
H         0.43010558055340    0.54403404160109   -3.01028616576580
H         1.27795346236974   -1.10989998290830   -1.41528062661498
H         0.04443207758638    0.84301130304033   -0.54591959537039
H        -0.80929415578023    2.38752642035293   -2.41034645824051
12
 energy: -21.627541943348 gnorm: 0.016068251650 xtb: 6.2.3 (830e466)
C         0.88091646678049    1.39566066814389   -2.46955260180355
C         1.05485877767522    1.02038294217318   -0.97295485612671
C         1.80169149417781   -0.29523321871051   -0.86075864737794
O         0.09268314692510    2.54994132777398   -2.62176867499079
O         1.72721204069111    2.02109816866802   -0.26722930262631
O         2.82057070013513   -0.49791984986647   -0.28103538990598
H         1.21407468817212    2.84915248471434   -0.32095012200350
H         1.85947505007018    1.65349092320611   -2.87924637547665
H         0.46163231561362    0.54264197291539   -3.01721716548233
H         1.24925381216698   -1.10251827960085   -1.40653396428912
H         0.05044767169475    0.83817335933699   -0.54672217626148
H        -0.82382616410249    2.36472950124596   -2.39184072365564
12
 energy: -21.628141789703 gnorm: 0.009623143730 xtb: 6.2.3 (830e466)
C         0.89014698380151    1.40580524427722   -2.46144034170853
C         1.05728674991166    1.02136453167174   -0.97036813956748
C         1.78975448971885   -0.30161596307958   -0.86235468664532
O         0.07407126950356    2.53986988843885   -2.60746896505411
O         1.71958099545545    2.02266262635331   -0.26052921675052
O         2.80583383363385   -0.51747877857476   -0.28276474409834
H         1.24536317186029    2.86039454917246   -0.38696672065575
H         1.86574805818776    1.69196627967476   -2.86066138447696
H         0.49996488156008    0.55126684857539   -3.02973726818791
H         1.23031939299143   -1.09947134436025   -1.39949665543808
H         0.04932495029740    0.83706298334426   -0.54659561585740
H        -0.83840477692181    2.32777313450659   -2.36742626155962
12
 energy: -21.628425389982 gnorm: 0.019088466297 xtb: 6.2.3 (830e466)
C         0.89657850214190    1.41770063550097   -2.45011851821702
C         1.05606747224247    1.01850023548425   -0.96622306975330
C         1.77843001394397   -0.30934853869433   -0.86230511426297
O         0.05333129382712    2.53199000969314   -2.58503529294612
O         1.70999218066613    2.01649104265545   -0.24495710942185
O         2.79403787202367   -0.53370074009600   -0.28267583781538
H         1.28991102558722    2.87500995434143   -0.47228772173046
H         1.86952950722337    1.73416496814020   -2.83477179394944
H         0.53576752468564    0.56480209407528   -3.04121904054804
H         1.21696753106335   -1.10069475776347   -1.39453026799918
H         0.04155734675377    0.83619786302575   -0.55020075937003
H        -0.85318027015856    2.28848723363735   -2.35148547398621
12
 energy: -21.628503602270 gnorm: 0.020395189616 xtb: 6.2.3 (830e466)
C         0.89666049781978    1.42757914284058   -2.44218189659648
C         1.04923334816348    1.01680961462634   -0.96663527269009
C         1.76033878682793   -0.31372434046918   -0.85339649072754
O         0.04272830083441    2.53011661322073   -2.56819184744620
O         1.70312752469445    2.01493617815004   -0.24314157897196
O         2.78896282260168   -0.52409521497914   -0.28818076309248
H         1.33671444404958    2.85480786520149   -0.50851590439338
H         1.86742794101971    1.75574883556386   -2.81611082986094
H         0.55205010741007    0.58304185062010   -3.05168911456825
H         1.22163520786229   -1.10844199090327   -1.38615218767423
H         0.02950118481259    0.84614304396924   -0.55164447441627
H        -0.85939016609593    2.25667840215922   -2.35996963956221
12
 energy: -21.628839717507 gnorm: 0.008083779044 xtb: 6.2.3 (830e466)
C         0.89722027768718    1.42835329816050   -2.44098983262660
C         1.04619239638608    1.01358349000873   -0.96303151437504
C         1.76572014056857   -0.31376884646657   -0.85621493966397
O         0.03897860460424    2.52999165901639   -2.56653699126775
O         1.69683543415162    2.01034360440663   -0.23294115613697
O         2.79051848633809   -0.52611643887784   -0.28674297803716
H         1.34797162520422    2.86580360863793   -0.52969686229234
H         1.86849043642600    1.76336260472450   -2.81057850550037
H         0.55679326249009    0.58163076128996   -3.04919543305328
H         1.21612865048817   -1.11040894844921   -1.38809324451242
H         0.02688805375033    0.83763504919581   -0.55244642267627
H        -0.86274736809455    2.25919015835316   -2.35934211985784
12
 energy: -21.628931870434 gnorm: 0.004252099137 xtb: 6.2.3 (830e466)
C         0.89387780890162    1.42485183888955   -2.44406218683590
C         1.04237919182008    1.01145493150848   -0.96225305870979
C         1.77421175122221   -0.31035487267348   -0.85932966561354
O         0.04576559475779    2.53512913659447   -2.57324264135390
O         1.69309857080548    2.00780991968972   -0.22887791678908
O         2.79832241543122   -0.51624868851010   -0.28741261248787
H         1.34345605549726    2.86490257097470   -0.51356786263315
H         1.86724894289292    1.75054751450991   -2.81531303774081
H         0.54386608855644    0.57756350243880   -3.04426118364748
H         1.22019171018855   -1.11520894854054   -1.38682817447613
H         0.02546341202975    0.83129404182267   -0.55344075598711
H        -0.85889154210329    2.27785905329582   -2.36722090372525
12
 energy: -21.629027073664 gnorm: 0.005705136290 xtb: 6.2.3 (830e466)
C         0.89140459521124    1.42482313118813   -2.44246195270428
C         1.03405126039865    1.00644326819824   -0.96001937880915
C         1.77673613387341   -0.30963236722328   -0.85910353167630
O         0.05086804765777    2.54123465076460   -2.57067890350898
O         1.67980835527373    2.00247252973385   -0.21904838540397
O         2.80692060762634   -0.50271150433360   -0.29365213591511
H         1.35728372893467    2.86321434180286   -0.52803778109827
H         1.86721535894472    1.74585737367280   -2.81008450218510
H         0.53783990456763    0.58015054845467   -3.04347817052230
H         1.22651022212367   -1.12449683311738   -1.38126580306147
H         0.01726051942611    0.82324467697262   -0.55620110323659
H        -0.85690873403791    2.28900018388651   -2.37177835187850
12
 energy: -21.629166079270 gnorm: 0.007690766530 xtb: 6.2.3 (830e466)
C         0.88688045214251    1.42253578364320   -2.43872418163445
C         1.01746660023076    0.99631108168453   -0.95639564626001
C         1.78161339253627   -0.30780186571772   -0.85810882821455
O         0.06799400276639    2.55559951744205   -2.56424783225590
O         1.64824650514658    1.99463789604926   -0.20248142541944
O         2.82868994238509   -0.47285463200756   -0.31254941499740
H         1.37430885563211    2.85699647186443   -0.55522663047416
H         1.86931588081468    1.72791017634158   -2.80199753789833
H         0.51986020877108    0.58520640083383   -3.04186520154320
H         1.24163611765708   -1.14229483180515   -1.36554073539970
H         0.00025119504426    0.80452323163757   -0.56263085955785
H        -0.84727315312677    2.31883077003397   -2.37604170634502
12
 energy: -21.629290032297 gnorm: 0.006749215658 xtb: 6.2.3 (830e466)
C         0.88395841853806    1.41808448544360   -2.43623360256081
C         1.00534383039900    0.98833167046659   -0.95450259674563
C         1.78744825002339   -0.30526157335258   -0.85782894352422
O         0.08876149632015    2.56893350217639   -2.55916150942599
O         1.61852247010487    1.99194051617509   -0.19262363516568
O         2.84968161636825   -0.44689806658725   -0.33299645189665
H         1.37438202503675    2.84989020333030   -0.57167356519435
H         1.87268269324727    1.70375985419989   -2.80019387537309
H         0.49903211418911    0.58848025322651   -3.03991955548217
H         1.25442638020932   -1.15443749176244   -1.34827536732932
H        -0.01237673889198    0.78560972511439   -0.56891166442107
H        -0.83287255554415    2.35116692156952   -2.37348923288104
12
 energy: -21.629443745654 gnorm: 0.005871031389 xtb: 6.2.3 (830e466)
C         0.88335412779651    1.41284767122644   -2.43193155366169
C         0.99381103989829    0.97989071168398   -0.95235202790381
C         1.79423234566176   -0.30226400647899   -0.85786012677414
O         0.11369892106354    2.58192439071505   -2.54966001601457
O         1.57816928309032    1.99332698112929   -0.18259253825786
O         2.87222346728566   -0.42223150496134   -0.35981412823154
H         1.37063717839316    2.84300320963156   -0.60222097705891
H         1.87816209366258    1.67698033921263   -2.79822948084913
H         0.47854381417087    0.59435352065751   -3.03922021396419
H         1.26391149656054   -1.16228748158640   -1.32507436990436
H        -0.02567918175078    0.75936218361062   -0.57768305316211
H        -0.81207458583242    2.38469398515965   -2.35917151421771
12
 energy: -21.629539702167 gnorm: 0.007568958391 xtb: 6.2.3 (830e466)
C         0.88259339915552    1.40426028931480   -2.43092867681508
C         0.98480243222136    0.97279271405523   -0.95179007909389
C         1.80509549543745   -0.29728296483106   -0.85879042878570
O         0.14489037517219    2.59528009343450   -2.54526850960982
O         1.53787403319651    1.99898661923522   -0.17946961309125
O         2.89575522616402   -0.39915366217912   -0.38703509859214
H         1.34844954669898    2.83594371694786   -0.61458873586397
H         1.88373233947735    1.63966084115516   -2.80446713883655
H         0.45077178293914    0.59697743027518   -3.03699633299710
H         1.27327011591160   -1.16512712297675   -1.30143793737541
H        -0.03450836394288    0.73137559157081   -0.58658995572960
H        -0.78373638243122    2.42588645399817   -2.33844749320951
12
 energy: -21.629554379878 gnorm: 0.010446362335 xtb: 6.2.3 (830e466)
C         0.88049961835658    1.39722360389726   -2.42644681222650
C         0.96739789802546    0.96066592716342   -0.94786852792804
C         1.81728747691788   -0.29230708219962   -0.85931697211654
O         0.17870361812414    2.61148765093294   -2.53584852369826
O         1.47980876298348    1.99988372699088   -0.16403627449017
O         2.92606611354690   -0.36708397438749   -0.42124809253369
H         1.34627364484543    2.82960324132527   -0.65792987915670
H         1.88841596017655    1.60403667745571   -2.80094808028970
H         0.42385578129309    0.60558378630817   -3.03563131808565
H         1.28528955622410   -1.17423585661640   -1.27219772248412
H        -0.05228513936739    0.69370336487056   -0.59844057834204
H        -0.75232329112621    2.47103893425930   -2.31589721864860
12
 energy: -21.629618928367 gnorm: 0.002338951334 xtb: 6.2.3 (830e466)
C         0.87994431754683    1.39987833548370   -2.43006492517261
C         0.97463974333703    0.96567391988490   -0.95021884046254
C         1.81302602507177   -0.29377272985321   -0.85911423035644
O         0.16536281525267    2.60368821212641   -2.54211327376425
O         1.50575821815877    1.99802239379413   -0.17181676278200
O         2.91002013510135   -0.37981051665317   -0.40205439589444
H         1.34575744040573    2.83265464296876   -0.63507421485299
H         1.88315073407825    1.61728817025839   -2.80478120569822
H         0.43304895831861    0.60301138532773   -3.03627233725353
H         1.28408573849101   -1.16993937282868   -1.28746319793410
H        -0.04319462797276    0.71052571572073   -0.59294571295704
H        -0.76260949778925    2.45237984377033   -2.32389090287186
12
 energy: -21.629634836117 gnorm: 0.001840526285 xtb: 6.2.3 (830e466)
C         0.87830900593705    1.39747865186595   -2.43073256535236
C         0.96990864762323    0.96302166746986   -0.94985424688680
C         1.81556117318541   -0.29197048648419   -0.85889510683410
O         0.17413766222018    2.60760776331385   -2.54254400664056
O         1.49444801499336    1.99712298300583   -0.16926680540955
O         2.91795220369429   -0.36945714050993   -0.41044405700272
H         1.34321791923327    2.83084177999231   -0.63633692008199
H         1.88408686726811    1.60657863385254   -2.80493533803727
H         0.42454547765538    0.60333377783415   -3.03590237366441
H         1.28831397178980   -1.17336255475800   -1.28115402873847
H        -0.04718685777524    0.70325715972801   -0.59565025869111
H        -0.75430408582483    2.46514776468962   -2.32009429266069
12
 energy: -21.629652593684 gnorm: 0.002659564325 xtb: 6.2.3 (830e466)
C         0.87465185979376    1.39313957250772   -2.43228493564224
C         0.95943316217140    0.95640945600286   -0.94992416797131
C         1.82126927043136   -0.28770946939386   -0.85861273655963
O         0.19377143516094    2.61569733554313   -2.54226895867575
O         1.46633741959215    1.99441591235911   -0.16253776829346
O         2.93106211218013   -0.34515566515709   -0.42485407616297
H         1.34169273880639    2.82618710681208   -0.64567495474684
H         1.88398562578952    1.58308193249420   -2.80670166265743
H         0.40560850704480    0.60677542606675   -3.03542949526178
H         1.30146239289794   -1.18108344175816   -1.26722621337108
H        -0.05655571562158    0.68524568755936   -0.60415589768161
H        -0.73372880824679    2.49259614696390   -2.30613913297593
12
 energy: -21.629657071241 gnorm: 0.001131229933 xtb: 6.2.3 (830e466)
C         0.87412409348364    1.39265361199341   -2.43262443905900
C         0.95846464676458    0.95554708694035   -0.95037495142913
C         1.82188156848709   -0.28707671951360   -0.85844221010639
O         0.19625389396132    2.61637356397945   -2.54269697626771
O         1.46360941965719    1.99387077053121   -0.16254999790542
O         2.93158840252862   -0.34201120100865   -0.42523431188285
H         1.34095781134468    2.82498622299785   -0.64530495930148
H         1.88325700269718    1.57986897804253   -2.80818880611042
H         0.40295410632305    0.60738416280006   -3.03549661649939
H         1.30427154750655   -1.18172781667022   -1.26583288484782
H        -0.05754584457358    0.68347420743022   -0.60522302226929
H        -0.73082664818030    2.49625713247738   -2.30384082432111
12
 energy: -21.629659380359 gnorm: 0.000471616677 xtb: 6.2.3 (830e466)
C         0.87309650147999    1.39161448669456   -2.43267629551257
C         0.95550603644613    0.95334518499757   -0.95093964020258
C         1.82316446174676   -0.28584622708548   -0.85826230612759
O         0.20145800222770    2.61823366742704   -2.54251445190526
O         1.45587915854676    1.99259946340268   -0.16145703860535
O         2.93422447544318   -0.33453877959331   -0.42833294307633
H         1.34176839527182    2.82213493267153   -0.64761585978992
H         1.88262701843980    1.57401165809830   -2.80941580480759
H         0.39794322000769    0.60891731010094   -3.03608181621296
H         1.30910026418469   -1.18385432809116   -1.26111010902522
H        -0.06049970772017    0.67878460151435   -0.60721881356491
H        -0.72527782607434    2.50419802986298   -2.30018492116973
