12
 energy: -21.490318149101 gnorm: 0.164931393360 xtb: 6.2.3 (830e466)
C         1.66568000000000    1.43392000000000   -1.23686000000000
C         1.13524000000000    0.21006000000000   -1.35345000000000
C         1.83997000000000   -1.00926000000000   -0.90985000000000
O         0.96957000000000    2.50951000000000   -1.65986000000000
O         1.46559000000000    3.70002000000000   -1.55754000000000
O         2.95278000000000   -0.95512000000000   -0.40942000000000
H         1.60807000000000    3.99332000000000   -2.49317000000000
H         2.65319000000000    1.57087000000000   -0.80327000000000
H        -1.61731000000000    1.82948000000000   -2.73542000000000
H         1.35747000000000   -1.97330000000000   -1.03084000000000
H         0.14741000000000    0.09783000000000   -1.78997000000000
H        -1.78866000000000    1.93227000000000   -2.05615000000000
12
 energy: -21.504011323793 gnorm: 0.060288274482 xtb: 6.2.3 (830e466)
C         1.65663216290407    1.41938337325220   -1.24326614946302
C         1.13216091462791    0.19255262130436   -1.35124572882420
C         1.85628240925318   -0.99157099767892   -0.90049257450791
O         0.94104081711009    2.47978879521659   -1.66375007932704
O         1.50705756869963    3.71123569604141   -1.55846938169781
O         2.96432918575940   -0.95464775624649   -0.40771100247572
H         1.62538787999550    4.02113449144606   -2.48062278494278
H         2.64084339340937    1.57823498566129   -0.81104111260687
H        -1.62652420304438    1.82606842248843   -2.76694664431863
H         1.34775539558209   -1.95185179678229   -1.03732691866812
H         0.14836570405776    0.07147681773029   -1.78164556850840
H        -1.80433122835462    1.93779534756708   -2.03328205465950
12
 energy: -21.507160439093 gnorm: 0.012147262480 xtb: 6.2.3 (830e466)
C         1.64179468447242    1.41470377259453   -1.24436849386169
C         1.12644210496978    0.18165292867232   -1.34908842633473
C         1.87693779503759   -0.97726478147047   -0.90203662717614
O         0.92512011100990    2.46819712159955   -1.66304528279002
O         1.57272361000689    3.70739180230143   -1.55083223079919
O         2.97786396599635   -0.94883447310963   -0.40527097661913
H         1.64112077859158    4.03483875146051   -2.46432367621936
H         2.62559766785141    1.59018013799508   -0.82299096464966
H        -1.66507270521173    1.81976926451249   -2.78932886681338
H         1.34335486138895   -1.93464750701528   -1.03725468447135
H         0.14494682470443    0.04567064263416   -1.77282895713531
H        -1.82182969881754    1.93794233982530   -2.03443081313004
12
 energy: -21.507606245543 gnorm: 0.011241977126 xtb: 6.2.3 (830e466)
C         1.63733663312812    1.41211563593978   -1.25325047141464
C         1.12249864551128    0.17655953515229   -1.34445099655518
C         1.87855769200317   -0.97129409764238   -0.87954720859177
O         0.93061813617233    2.46793164815552   -1.67017334416183
O         1.62407862813010    3.70076131785318   -1.54103132539828
O         2.99084423410041   -0.94345381778775   -0.41150964951803
H         1.64909718149331    4.05354729635030   -2.44771435799868
H         2.61785793989479    1.59372848573659   -0.83001516412222
H        -1.71161012120666    1.81548744108317   -2.80793641004476
H         1.35450958165123   -1.93330359731326   -1.04385852430641
H         0.13978602762150    0.02852718984385   -1.76007317512158
H        -1.84457457849957    1.93899296262869   -2.04623937276660
12
 energy: -21.507872601377 gnorm: 0.015570584946 xtb: 6.2.3 (830e466)
C         1.63269832059494    1.41003201861268   -1.25556343322184
C         1.12330022871972    0.17186116199160   -1.34603226288051
C         1.89586664686170   -0.97203213041093   -0.89494463233872
O         0.94276144060638    2.46930399389248   -1.68234700653303
O         1.66574149416685    3.69348224585531   -1.53104086718243
O         2.99869992728985   -0.93621862253904   -0.40834907174917
H         1.65945125251985    4.07393412846766   -2.42751929331755
H         2.61288102553177    1.59351490942564   -0.83365010808075
H        -1.76336669569428    1.81414135430566   -2.82277542936010
H         1.35668005723470   -1.93297013163743   -1.01940954183878
H         0.13953817393401    0.01226837296192   -1.75520806498231
H        -1.87525187176546    1.94228269907443   -2.05896028851479
12
 energy: -21.508151928413 gnorm: 0.008809462485 xtb: 6.2.3 (830e466)
C         1.63556378586493    1.40777033651269   -1.25945051075158
C         1.12500959023048    0.17043658169571   -1.34450457532263
C         1.89644146486655   -0.97322602727404   -0.88777171688925
O         0.95742514868048    2.46977080100686   -1.69890073300686
O         1.67334582111615    3.68901540018818   -1.52719393735081
O         3.00331084449673   -0.93226464875663   -0.40889254178171
H         1.66852663385380    4.08749809534132   -2.41245209185155
H         2.61574767813218    1.58797989975414   -0.83445822098100
H        -1.79487827245580    1.81689172386651   -2.82779432345958
H         1.36432153670008   -1.93657045382188   -1.01195623931705
H         0.14253181254045    0.00621608010754   -1.75544762853839
H        -1.89834604402600    1.94608221137956   -2.06697748074958
12
 energy: -21.508503730942 gnorm: 0.010613590400 xtb: 6.2.3 (830e466)
C         1.64863252969705    1.39829293193050   -1.27598127192003
C         1.12974624626521    0.16493114017905   -1.34366920685392
C         1.89925953517266   -0.97435139454067   -0.86923829199363
O         0.99952116551212    2.47132002542748   -1.73475625021569
O         1.71552043904666    3.67328129098320   -1.51079650901513
O         3.01332321839445   -0.92151291373186   -0.40471315383233
H         1.66541748685953    4.13681572675623   -2.36986834287288
H         2.62852093744915    1.56705701099322   -0.84191239674661
H        -1.89771081234370    1.81793308171891   -2.85344590259068
H         1.37811302096170   -1.94240417344479   -0.98396463312774
H         0.15072788532766   -0.00923061538974   -1.75910227332263
H        -1.94207165234245    1.95746788911843   -2.08835176750869
12
 energy: -21.508650466571 gnorm: 0.006356361039 xtb: 6.2.3 (830e466)
C         1.65584507120641    1.39378843117493   -1.28534073623187
C         1.13447867861642    0.16153270915657   -1.34813107073002
C         1.90548888145187   -0.97213253193420   -0.86283971125448
O         1.02274420779166    2.47013941859738   -1.76106381435820
O         1.73506146915181    3.66478603734035   -1.50231630116756
O         3.01921592369676   -0.91302748646535   -0.39844132396611
H         1.68249693179729    4.15664249544596   -2.33780720537506
H         2.63425473644176    1.55709201612632   -0.84407483965495
H        -1.97157349876024    1.81795239274565   -2.86600761942640
H         1.38497905869948   -1.94189024378629   -0.96390993431750
H         0.15870997934415   -0.01773231499053   -1.76879760661729
H        -1.97270143943732    1.96244907658914   -2.09706983690050
12
 energy: -21.508735189361 gnorm: 0.007600092291 xtb: 6.2.3 (830e466)
C         1.67082134381369    1.38735989064237   -1.30064753718456
C         1.14286837527785    0.15743877231341   -1.35809692085232
C         1.91149956932595   -0.96949138556780   -0.85503771017785
O         1.05191093821090    2.46841563968399   -1.78363671474794
O         1.76675267438558    3.65470117143002   -1.49177230043285
O         3.02278562356782   -0.90641389036878   -0.38683739290653
H         1.68285690212222    4.18423434177422   -2.30269924552883
H         2.64699847630800    1.54360174535234   -0.85162030218638
H        -2.02833958029665    1.82279626722812   -2.87189633037407
H         1.38607898946842   -1.93941238486223   -0.93657625763747
H         0.16962257532673   -0.02341520928511   -1.78294758160762
H        -2.03485588751041    1.95978504165935   -2.11403170636353
12
 energy: -21.508827457741 gnorm: 0.008750497456 xtb: 6.2.3 (830e466)
C         1.68645425558574    1.38331605870732   -1.31079048941190
C         1.15290754808366    0.15533931157887   -1.36892600278635
C         1.91391281945402   -0.96796592206231   -0.84756603006403
O         1.07494025536355    2.46694769215794   -1.79392832738383
O         1.79140967463391    3.64904991240150   -1.48469604789229
O         3.02198384537647   -0.90537179425333   -0.37298813603815
H         1.67448662872349    4.20317576307086   -2.27798094911935
H         2.65982142468075    1.53476337792238   -0.85515420249734
H        -2.10085971162085    1.81936953076418   -2.88593162917442
H         1.38287380613588   -1.93662105016423   -0.91833176248404
H         0.18221690407893   -0.02300418902541   -1.79957812364624
H        -2.05114745049545    1.96060130890209   -2.11992829950199
12
 energy: -21.508894288607 gnorm: 0.006617163638 xtb: 6.2.3 (830e466)
C         1.70141974397307    1.38427834050779   -1.31038138072340
C         1.16502457332528    0.15730199438868   -1.38015487180209
C         1.91235404195079   -0.96744770287961   -0.84515410350997
O         1.08541838554636    2.46577058708140   -1.78788125113922
O         1.79635205797799    3.65210684214205   -1.48865284373597
O         3.01566087701302   -0.91268713361062   -0.35917306860621
H         1.66570856860796    4.19840339867378   -2.27376213222847
H         2.67189141221009    1.53446367879302   -0.85063250449601
H        -2.13216613875031    1.81625195687105   -2.88579056825708
H         1.37268730667351   -1.93176299518341   -0.91563795713195
H         0.19729684765804   -0.01163139548350   -1.82053107749887
H        -2.06264767618565    1.95455242869922   -2.11804824087068
12
 energy: -21.508997222376 gnorm: 0.004680362609 xtb: 6.2.3 (830e466)
C         1.71801994815116    1.38247825797568   -1.31223112324970
C         1.17806137229872    0.15699510959496   -1.38891476778265
C         1.91207563007528   -0.96938152558985   -0.83945470712802
O         1.10893352223664    2.46520986329102   -1.79585449305982
O         1.82072362631391    3.65092031874394   -1.49127636406548
O         3.01248855158217   -0.91949124594852   -0.34540473209204
H         1.65058359285740    4.21690840879771   -2.25990781433352
H         2.68522067695091    1.52956900511719   -0.84478816578785
H        -2.17695863784345    1.81335163733231   -2.88773790611929
H         1.36524997470723   -1.93006233983241   -0.90630733476449
H         0.21382923593245   -0.00694320157545   -1.83926546363427
H        -2.09922749326224    1.95004571209327   -2.12465712798280
12
 energy: -21.509073702564 gnorm: 0.011546905454 xtb: 6.2.3 (830e466)
C         1.75016899734963    1.38146265712557   -1.31105378235428
C         1.20568155974866    0.15829107848485   -1.40324538042045
C         1.91020053303396   -0.97556283221731   -0.83080785171743
O         1.15429064276483    2.46380931130200   -1.81445680090615
O         1.86546431909537    3.65253126746955   -1.50512517944704
O         3.00351049791306   -0.93871732952101   -0.31769913536193
H         1.62474649768154    4.25053624998456   -2.24011779201827
H         2.70604477269848    1.52692691119665   -0.81875834849260
H        -2.26852741972001    1.80502563461855   -2.88784264558905
H         1.34880031343101   -1.92735660037593   -0.89863074062087
H         0.25007202940824    0.00435319409643   -1.87751070511237
H        -2.16145274340451    1.93830045783584   -2.13055163795950
12
 energy: -21.509135743620 gnorm: 0.005415905080 xtb: 6.2.3 (830e466)
C         1.74745199150864    1.38541716490240   -1.30189772885362
C         1.20684565969929    0.16128426371383   -1.39836223391730
C         1.90709226819490   -0.97891558249647   -0.83467567702909
O         1.14891637113026    2.46402486343580   -1.81255513548548
O         1.85781135297042    3.65883309470234   -1.51699096524231
O         2.99904083901523   -0.94701002934742   -0.31803422037898
H         1.62710202601839    4.24382408974168   -2.25593564328657
H         2.69960121878632    1.53656214388649   -0.80383597227517
H        -2.24835635261578    1.80203250703553   -2.87744486287104
H         1.34581174941213   -1.92858322987736   -0.91576826252839
H         0.25334052965075    0.00843238628260   -1.87782432297026
H        -2.15565765377028    1.93369832802034   -2.12247497516172
12
 energy: -21.509188113842 gnorm: 0.003423668563 xtb: 6.2.3 (830e466)
C         1.75676162936319    1.38676098671940   -1.29937053180743
C         1.21517638293398    0.16382314198724   -1.39971315176176
C         1.90567973449398   -0.98097124511718   -0.83274917245569
O         1.16248358082075    2.46350310150630   -1.81819757307143
O         1.86968550139799    3.66002443990077   -1.52529631103917
O         2.99232008415237   -0.95463899506783   -0.30498612641674
H         1.62270509090591    4.24971561744257   -2.25336395226209
H         2.70317218220033    1.53959559174247   -0.79161453993876
H        -2.28748801572759    1.79936396390827   -2.87727045767202
H         1.34187159230787   -1.92784447823429   -0.92246825864640
H         0.26767769123176    0.01356054314550   -1.89237620304417
H        -2.16104545408025    1.92670733206652   -2.11839372188426
12
 energy: -21.509229265844 gnorm: 0.004844769763 xtb: 6.2.3 (830e466)
C         1.77415019359678    1.38801194906079   -1.29813548785241
C         1.22955405195237    0.16722566173110   -1.40475617626620
C         1.90386873199423   -0.98341310419027   -0.82866581499944
O         1.18774685784686    2.46276587965650   -1.82801664737061
O         1.89517144080759    3.66028909599389   -1.53779102498102
O         2.98137870448288   -0.96579260283992   -0.28201725325926
H         1.61137661536957    4.26204782900518   -2.24510973876293
H         2.71153450674377    1.54224166148560   -0.77474037986217
H        -2.34012166222341    1.79347437437593   -2.87294855026098
H         1.33529499173804   -1.92601775379656   -0.93079022898974
H         0.29071102748675    0.02175551513671   -1.91587967340223
H        -2.19166545979509    1.91701149438075   -2.11694902399294
12
 energy: -21.509273960946 gnorm: 0.004635860878 xtb: 6.2.3 (830e466)
C         1.78719595870828    1.38931552258127   -1.29909863959518
C         1.23989302441548    0.17047594729746   -1.40917189834858
C         1.90254833533917   -0.98337862399024   -0.82486045921281
O         1.21096596670365    2.46273410180571   -1.84019336461445
O         1.92135031822748    3.65824434144753   -1.54933070567362
O         2.96813165254795   -0.97073105546755   -0.25622130256032
H         1.60777072016189    4.27150478231699   -2.23442072519501
H         2.71600104748354    1.54482851633329   -0.76248109817475
H        -2.38693610500589    1.78668101303332   -2.86582641875394
H         1.33459987542118   -1.92465635153347   -0.94445215434180
H         0.30992095548065    0.02694203164637   -1.93524277783781
H        -2.22244174948297    1.90763977452897   -2.11450045569163
12
 energy: -21.509323694005 gnorm: 0.002768543453 xtb: 6.2.3 (830e466)
C         1.79613221716469    1.39041718035303   -1.30254021312981
C         1.24683175800767    0.17287861747317   -1.41548046821628
C         1.90101301986359   -0.98094619237001   -0.82098377173438
O         1.23383811256737    2.46396828047453   -1.85747187530385
O         1.94887346341319    3.65445556109328   -1.56076822379457
O         2.95095140423105   -0.96780522671584   -0.22444189492023
H         1.61331941028610    4.28065641624506   -2.22040062398491
H         2.71672012362850    1.54617748632818   -0.75278791913209
H        -2.43423904911282    1.77951746049581   -2.85473330846314
H         1.34036107809396   -1.92442731932629   -0.96296988916030
H         0.32590786366905    0.02829091538847   -1.95494817197601
H        -2.25070940181187    1.89641682056021   -2.10827364018431
12
 energy: -21.509353317500 gnorm: 0.005156511785 xtb: 6.2.3 (830e466)
C         1.80911473222243    1.39097376438236   -1.30789618637580
C         1.25744081341808    0.17470013129238   -1.42832089359114
C         1.89750592440927   -0.97764142474054   -0.81520117447401
O         1.26568182792121    2.46645419825094   -1.87992172959472
O         1.98741002990815    3.65047855652265   -1.57514207521658
O         2.92682026912156   -0.96118875763564   -0.18188600281101
H         1.61830796089817    4.29636730131762   -2.19965187736760
H         2.72002087339861    1.54456077128154   -0.74053347250052
H        -2.50060962586462    1.76983473556240   -2.83979118710284
H         1.34697295821696   -1.92422944331565   -0.98121206800247
H         0.34760760245637    0.02951116242504   -1.98714331449845
H        -2.28727336610563    1.87977900465646   -2.09910001846473
12
 energy: -21.509380046297 gnorm: 0.003138969846 xtb: 6.2.3 (830e466)
C         1.80663101024786    1.39120953766316   -1.31505711780060
C         1.25492684265693    0.17470772326775   -1.43784143151588
C         1.89274847894427   -0.97144397507977   -0.81381243272540
O         1.27442009213928    2.47061375418271   -1.88982238897574
O         2.00517790093372    3.64702704414587   -1.58149642208899
O         2.90631742553450   -0.94275736229408   -0.15783891362937
H         1.63069354790429    4.29919205180537   -2.18780305649948
H         2.71470574695569    1.54103379943304   -0.74267528130437
H        -2.51357883600561    1.76249369445831   -2.82407786615809
H         1.35945700144855   -1.92556359462708   -0.99489110861850
H         0.34986094355542    0.02521086667359   -2.00235186956117
H        -2.29236015431432    1.86787646037066   -2.08813211112228
12
 energy: -21.509400714685 gnorm: 0.001820670694 xtb: 6.2.3 (830e466)
C         1.81333453082080    1.39138142264192   -1.31932526623526
C         1.26124708096486    0.17564475766760   -1.44722210745088
C         1.88937107895826   -0.97007454423186   -0.81190160298395
O         1.28709211422936    2.47155295462815   -1.89749360754097
O         2.02071013260019    3.64654527166647   -1.58800098233717
O         2.89390528641878   -0.94024807175226   -0.14180349315798
H         1.62979555987296    4.30765989133162   -2.17800707220268
H         2.71620371258818    1.53941069371919   -0.73673898416698
H        -2.53958569838309    1.75763335390080   -2.81638608890906
H         1.35845045774279   -1.92421618812118   -0.99631604987355
H         0.36078993282965    0.02743223423013   -2.02029706211304
H        -2.30231418864210    1.85687822431892   -2.08230768302834
12
 energy: -21.509420938335 gnorm: 0.001165267653 xtb: 6.2.3 (830e466)
C         1.81202027335539    1.39157389848645   -1.31903866908587
C         1.26200914508392    0.17569568334108   -1.44929184696355
C         1.88860224332297   -0.97016031908722   -0.81366267165462
O         1.28215535925225    2.47255725958637   -1.89229104105215
O         2.02448084358338    3.64610374589961   -1.59467287840137
O         2.89138625871331   -0.94055743846393   -0.14184598084011
H         1.62377962790512    4.31074735139290   -2.17324779317749
H         2.71641657407170    1.53778063075093   -0.73916406597772
H        -2.53988808796622    1.75705618463112   -2.81298733092345
H         1.35352454317852   -1.92220076738077   -0.99135380949062
H         0.36256468923989    0.02768899023912   -2.02387296510925
H        -2.28805146973966    1.85331478060382   -2.08437094732369
12
 energy: -21.509431881906 gnorm: 0.003295900419 xtb: 6.2.3 (830e466)
C         1.81102078840434    1.39192583743327   -1.32133371061242
C         1.26205812725670    0.17625149274196   -1.45262951606932
C         1.87992259335021   -0.96865925486052   -0.80777949417544
O         1.27323500099184    2.47472716149518   -1.88332690937221
O         2.03492359555853    3.64435863640905   -1.61168546644083
O         2.88760035852251   -0.94182628477529   -0.14393003908894
H         1.60704276704213    4.31829852072975   -2.16002941936579
H         2.71646602262173    1.53494813581955   -0.74337690588307
H        -2.54246061073707    1.75509183862851   -2.80520610653976
H         1.34655327748019   -1.91950527381782   -0.98807938832140
H         0.36309111073283    0.02924711538717   -2.02825470674272
H        -2.25045303122361    1.84474207480864   -2.09016833738813
12
 energy: -21.509452136010 gnorm: 0.002166434317 xtb: 6.2.3 (830e466)
C         1.81021389764483    1.39258154965862   -1.32136038506328
C         1.26121394451463    0.17653987108149   -1.45360118464801
C         1.88032458240233   -0.96901196159909   -0.81048921649511
O         1.27335202905665    2.47519949333711   -1.88409651984512
O         2.03653857692076    3.64385639521819   -1.61481534173016
O         2.88729720606963   -0.94207837682395   -0.14472773104392
H         1.60217338667460    4.31949226981429   -2.15634051081056
H         2.71543244368736    1.53562392781932   -0.74255229401922
H        -2.54334448709987    1.75405376917958   -2.80263278949776
H         1.34215942504121   -1.91892315363892   -0.98485456051731
H         0.36142066410527    0.02988372622597   -2.02826607021088
H        -2.23778166901718    1.84238248972685   -2.09206339611877
12
 energy: -21.509470550049 gnorm: 0.001194313545 xtb: 6.2.3 (830e466)
C         1.80840970764391    1.39350236944242   -1.32123324156773
C         1.25795244767721    0.17749372575604   -1.45311049350938
C         1.87932969580663   -0.96884884117584   -0.81305118081301
O         1.27556242491274    2.47538278950877   -1.88855515286462
O         2.03708058366444    3.64332602543945   -1.61830973212350
O         2.88646168405898   -0.94211528169843   -0.14679776686399
H         1.59481051066528    4.32078105643164   -2.15042177734056
H         2.71411440678628    1.53681689087070   -0.74243877411910
H        -2.53992809349626    1.75112131693871   -2.79768595579953
H         1.33669962988432   -1.91821000234917   -0.98247656244328
H         0.35747547535467    0.03111931055523   -2.02693235919821
H        -2.21896847295812    1.83923064027989   -2.09478700335728
12
 energy: -21.509487908691 gnorm: 0.002926561431 xtb: 6.2.3 (830e466)
C         1.80642571801707    1.39416589752813   -1.32344902594392
C         1.25249811978798    0.17915778945193   -1.45221566906396
C         1.87453955558531   -0.96779461130137   -0.81385332778263
O         1.27677953867872    2.47583196442688   -1.89395131560684
O         2.04020135442628    3.64224100844215   -1.62714698505981
O         2.88350934719163   -0.94229649021672   -0.15021390816157
H         1.57867865140576    4.32543908937390   -2.13625499278770
H         2.71301478462300    1.53725745037466   -0.74554244188605
H        -2.53768794675427    1.74556486781222   -2.78807795165013
H         1.32779255641619   -1.91624129659270   -0.97887296849976
H         0.35083882202995    0.03356953120859   -2.02434683155499
H        -2.17759050140787    1.83270479949162   -2.10187458200307
12
 energy: -21.509510173379 gnorm: 0.002836579528 xtb: 6.2.3 (830e466)
C         1.80403650837854    1.39461171570142   -1.32743526419008
C         1.24546660621470    0.18111128764372   -1.45086343406102
C         1.86769679059178   -0.96618140143505   -0.81327770662832
O         1.27749090612072    2.47612888098073   -1.90146137108317
O         2.04073346640716    3.64186801425909   -1.63457956496218
O         2.87926192667105   -0.94209402381291   -0.15359638189306
H         1.56283451937787    4.33019667989439   -2.12176056292637
H         2.71187301619829    1.53770545575079   -0.75129181361899
H        -2.52318443217279    1.73802091182417   -2.77756735293561
H         1.31938371721574   -1.91425599712579   -0.97713293984576
H         0.34206159338238    0.03635414221893   -2.02034784479688
H        -2.13865461838596    1.82613433409962   -2.10648576305913
12
 energy: -21.509533185385 gnorm: 0.004923053595 xtb: 6.2.3 (830e466)
C         1.79825710750724    1.39565380470981   -1.33544176452949
C         1.23269953556844    0.18468074692153   -1.44983909494336
C         1.85331958909281   -0.96291997031135   -0.81131738371606
O         1.27402952609915    2.47733137030364   -1.91225548466876
O         2.03986910721169    3.64212421910792   -1.64794316710392
O         2.86921272783859   -0.94133202227746   -0.15852473033167
H         1.53482859534796    4.33927689957447   -2.09513581124420
H         2.71014181868599    1.53775341075550   -0.76563264529623
H        -2.49781054974919    1.72294545964746   -2.75527855505797
H         1.30343379114332   -1.91010322260439   -0.97393508765506
H         0.32595735801786    0.04146480598836   -2.01429354532628
H        -2.05493860676499    1.81272449818332   -2.11620273012793
12
 energy: -21.509564276505 gnorm: 0.001612755995 xtb: 6.2.3 (830e466)
C         1.79338793765242    1.39629841940481   -1.34183419641409
C         1.22390077336323    0.18694625897910   -1.44980029032765
C         1.84359782620849   -0.96051017685575   -0.81024770605676
O         1.26908399077064    2.47815264045519   -1.91925186071173
O         2.03329547313372    3.64383410309059   -1.65115182679267
O         2.86137353701010   -0.93981298741655   -0.16089745625569
H         1.52327959319648    4.34271143734486   -2.08409921482876
H         2.70806625259107    1.53808932648706   -0.77683240507664
H        -2.46230784631807    1.71299472446011   -2.74262633433580
H         1.29491990367525   -1.90766044187528   -0.97417158140437
H         0.31458204527245    0.04444783030085   -2.01018285586559
H        -2.01417948655702    1.80410886562360   -2.11470427193111
12
 energy: -21.509580268037 gnorm: 0.006823122928 xtb: 6.2.3 (830e466)
C         1.78170485209036    1.39866101402091   -1.35547620119737
C         1.20554023140494    0.19187858638485   -1.45315902757207
C         1.82199492905474   -0.95598691713345   -0.81092833841605
O         1.25158185395578    2.48237235584637   -1.92472618876571
O         2.03037290473548    3.64462419377357   -1.67301942277413
O         2.84373659737574   -0.93761556942373   -0.16776560785771
H         1.48192574154104    4.35558745064261   -2.04826839351049
H         2.70390749135546    1.53745250576563   -0.80238453459956
H        -2.39623996477239    1.68796183232283   -2.70889718426967
H         1.26705459304901   -1.90052275444855   -0.96619663929013
H         0.28934458198671    0.05192931681294   -2.00338441665446
H        -1.89192381177879    1.78325798543405   -2.12159404509379
12
 energy: -21.509617097245 gnorm: 0.004047226723 xtb: 6.2.3 (830e466)
C         1.77645822220497    1.39990213298611   -1.35658904654546
C         1.20245039275836    0.19246579587821   -1.45575743239238
C         1.81904381146565   -0.95542897403100   -0.81355941864755
O         1.24232709208998    2.48414934436136   -1.92082045319443
O         2.02292961860623    3.64647477122484   -1.67203166887304
O         2.83993229719852   -0.93642200762920   -0.16903598594613
H         1.48251223053100    4.35445671735370   -2.05084764270076
H         2.70035352367665    1.53774711423441   -0.80638855638241
H        -2.38107557718948    1.68205003716826   -2.69968906240185
H         1.26215123240320   -1.89923087329268   -0.96529743316956
H         0.28501693083182    0.05262212509786   -2.00403801253535
H        -1.86309977457903    1.78081381664600   -2.12174528721236
12
 energy: -21.509614864564 gnorm: 0.005296688610 xtb: 6.2.3 (830e466)
C         1.77097513709852    1.40111953774779   -1.35334811652834
C         1.20254089855283    0.19150659085349   -1.45865194832863
C         1.82099542398287   -0.95637458128092   -0.81823044328712
O         1.23002119685686    2.48650334992284   -1.90772823713995
O         2.01928821906502    3.64670506913111   -1.67355782129494
O         2.84017557214096   -0.93570100720912   -0.17073611140932
H         1.48644659019712    4.35210801441014   -2.06157101161383
H         2.69679809878113    1.53737231170019   -0.80615463973086
H        -2.35919421100471    1.68292610495879   -2.70022607198944
H         1.26085211998077   -1.89921094628192   -0.96399476994597
H         0.28501547113857    0.05114522332379   -2.00658893291932
H        -1.86491451679188    1.78150033272169   -2.11501189581331
12
 energy: -21.509653907423 gnorm: 0.002384724706 xtb: 6.2.3 (830e466)
C         1.76397647563197    1.40224165379074   -1.35767536554306
C         1.19146005598543    0.19386584798693   -1.45741078267939
C         1.81102140965598   -0.95416970623893   -0.81855430726714
O         1.22509563153826    2.48752935494035   -1.91437962499064
O         2.01351052648780    3.64738274564223   -1.68129571580612
O         2.83340447893590   -0.93466283791022   -0.17622906110571
H         1.46935918206681    4.35692996522960   -2.04816275400605
H         2.69251852617980    1.53818079182241   -0.81480272601395
H        -2.33064597393083    1.67062145795864   -2.68253006869170
H         1.25014169299410   -1.89665965105836   -0.96333984174205
H         0.27155025755619    0.05410508285626   -2.00148541022192
H        -1.80239226310379    1.77423529497790   -2.11993434193358
12
 energy: -21.509663321501 gnorm: 0.003616259721 xtb: 6.2.3 (830e466)
C         1.75231971615366    1.40399632211085   -1.36192722330778
C         1.17718707424998    0.19626048326316   -1.45676497426347
C         1.79948256729523   -0.95185943327282   -0.82096675050222
O         1.21156558900163    2.48979568975892   -1.91571394994513
O         2.00438266767533    3.64782862205286   -1.69272370384675
O         2.82582573498533   -0.93307062702073   -0.18490854415392
H         1.44873697520012    4.36159274318506   -2.03669249094181
H         2.68443659793118    1.53920898062809   -0.82493451532100
H        -2.28197710101875    1.65650195117206   -2.66059662022127
H         1.23688011709736   -1.89379302202114   -0.96233164078322
H         0.25372732914393    0.05689107292367   -1.99495572116911
H        -1.72356726771784    1.76624721721717   -2.12328386554583
12
 energy: -21.509677775666 gnorm: 0.001676066392 xtb: 6.2.3 (830e466)
C         1.74979510304583    1.40385006980463   -1.35944910807051
C         1.17573139213191    0.19550981929067   -1.45484300021270