12
 energy: -21.489818147811 gnorm: 0.146079095633 xtb: 6.2.3 (830e466)
C         1.34913000000000    1.58920000000000   -2.16714000000000
C         1.05111000000000    0.88578000000000   -0.87792000000000
C         1.84718000000000   -0.09224000000000   -0.52712000000000
O         0.45115000000000    2.64383000000000   -2.40831000000000
O         0.69031000000000    3.55920000000000   -1.48503000000000
O         2.58708000000000   -0.97249000000000   -0.19725000000000
H         1.31166000000000    4.20447000000000   -1.90967000000000
H         2.39328000000000    1.96537000000000   -2.11901000000000
H         1.29394000000000    0.87637000000000   -3.02335000000000
H        -0.23980000000000   -1.57306000000000   -1.49054000000000
H        -0.58027000000000   -0.96269000000000   -1.60125000000000
H         0.23422000000000    1.21586000000000   -0.22922000000000
12
 energy: -21.503557520117 gnorm: 0.043456674254 xtb: 6.2.3 (830e466)
C         1.36914594477079    1.57596614817121   -2.16635885277790
C         1.09649890978030    0.88732440296759   -0.84818010354203
C         1.84743459001824   -0.09416740954451   -0.46505350610339
O         0.46437826800352    2.62210467963560   -2.41498185413575
O         0.67241315187798    3.61359637562903   -1.48608776382812
O         2.58776786152070   -0.95947589257799   -0.20802677842213
H         1.30622771188051    4.23731263824803   -1.89687699173271
H         2.39968197611426    1.97625554902958   -2.15703426247369
H         1.27943219411576    0.88169886650237   -3.01712105240716
H        -0.27090444906610   -1.64156783146195   -1.50559272907491
H        -0.62333090757144   -0.97561260764144   -1.62314083853911
H         0.26024474855547    1.21616508104252   -0.24735526696310
12
 energy: -21.506262771929 gnorm: 0.020441669653 xtb: 6.2.3 (830e466)
C         1.38897303804409    1.58928148497867   -2.17060425364941
C         1.15783095836088    0.88698091226944   -0.84376957102204
C         1.91418098387659   -0.09241964318845   -0.48890144167188
O         0.46633910611156    2.61840199883669   -2.40777967478453
O         0.65135923569923    3.66360885058674   -1.48137266884706
O         2.54996202194841   -0.97924577585498   -0.09044953715188
H         1.27750889690014    4.27618714477578   -1.89701222751584
H         2.41582401538367    1.99197321538663   -2.20447771949135
H         1.24867281167555    0.90820405013406   -3.01623837467737
H        -0.34260183293880   -1.72153131476748   -1.53789400193032
H        -0.66638513639446   -1.01468099549994   -1.64971431528744
H         0.32732590133315    1.21284007234290   -0.24759621397088
12
 energy: -21.507592997780 gnorm: 0.023610223103 xtb: 6.2.3 (830e466)
C         1.41025575248634    1.59520980385256   -2.16377003590932
C         1.18521863622613    0.89773633995272   -0.83036860758915
C         1.91202150335546   -0.09138239475343   -0.42610197378478
O         0.48253631987038    2.61679509508821   -2.40531324594081
O         0.64351154742281    3.68536061897654   -1.48006898108675
O         2.58905396699893   -0.97253524547872   -0.10261526039935
H         1.25418911456245    4.30239358217051   -1.90318242306120
H         2.43852003411352    1.98830590234789   -2.22396123137801
H         1.23476652366194    0.91566048871363   -3.00376977856753
H        -0.40469231507850   -1.78448315627145   -1.56749361818391
H        -0.71115508363119   -1.06768377201466   -1.67604019266757
H         0.35476400001174    1.25422273741627   -0.25312465143164
12
 energy: -21.508205854649 gnorm: 0.007420557630 xtb: 6.2.3 (830e466)
C         1.41611861935220    1.60246679395366   -2.16863521972434
C         1.20371511939838    0.90773416309601   -0.83303780119226
C         1.92558471322282   -0.08093493149069   -0.41788788947513
O         0.48836529438483    2.62601106948905   -2.39663530946730
O         0.65201053209813    3.68547217953571   -1.46819709347505
O         2.59263262321441   -0.97014444604878   -0.06849456128115
H         1.23803935940384    4.32016678982424   -1.90599066895833
H         2.44623718067921    1.98713639879340   -2.24156467823814
H         1.22739138948593    0.92209344259648   -3.00752290326091
H        -0.43183394959925   -1.82011360839566   -1.58561765267125
H        -0.75159728603772   -1.11858386013181   -1.69497094388369
H         0.38232640439723    1.27829600877847   -0.24725527837248
12
 energy: -21.508593664090 gnorm: 0.011535976946 xtb: 6.2.3 (830e466)
C         1.42215886442251    1.60785463532860   -2.17581957012155
C         1.22313699711906    0.91303906541448   -0.84092327352221
C         1.94377575273048   -0.06770833809360   -0.41146128891150
O         0.49798332421232    2.63715730945666   -2.38635130156518
O         0.66685065806618    3.68231509707226   -1.45049251184226
O         2.59540439620770   -0.95535392576499   -0.02255635040674
H         1.21188745470031    4.34512576254671   -1.90850122365710
H         2.45421186980812    1.98172340395201   -2.26188752935844
H         1.21923340490043    0.92945426591438   -3.01339750468914
H        -0.47934539717553   -1.87112771664857   -1.60976227759027
H        -0.78695038463468   -1.16765284482340   -1.71698589795316
H         0.42064305964311    1.30477328564558   -0.23767127038248
12
 energy: -21.508794512853 gnorm: 0.009872461592 xtb: 6.2.3 (830e466)
C         1.42776943899727    1.61036548565090   -2.17958240617999
C         1.24030668745830    0.92144248335700   -0.84148844689699
C         1.95619771659195   -0.05671274973706   -0.40004010177093
O         0.50722049381163    2.64432903923715   -2.38172494735962
O         0.67857278706231    3.68159961022154   -1.43930248027337
O         2.59903328673621   -0.94264334884386    0.00292936940356
H         1.18980814761230    4.36427696273712   -1.90957363579088
H         2.46101391938535    1.97808505968875   -2.27823296657669
H         1.21239539038665    0.93199110677435   -3.01363877335625
H        -0.52347288256011   -1.91617215968624   -1.63142048797950
H        -0.80755528339216   -1.20071880206996   -1.73348535226737
H         0.44770029791031    1.32375731267045   -0.23024977095200
12
 energy: -21.508948609622 gnorm: 0.005200632322 xtb: 6.2.3 (830e466)
C         1.43353902560341    1.61289915586070   -2.18287845768940
C         1.25843049614997    0.93315518008297   -0.83985078088558
C         1.96956612951748   -0.04424404845319   -0.38924901629341
O         0.51633712492418    2.65149502712145   -2.38066189118909
O         0.68994107860837    3.68301805973546   -1.43056446455103
O         2.60078635640651   -0.92974318745604    0.02660274179962
H         1.16921814463692    4.38073353895543   -1.90698198210740
H         2.46739403071931    1.97638588458313   -2.29589399387480
H         1.20470727738498    0.93264160411186   -3.01095115088826
H        -0.57119943438941   -1.96485678016427   -1.65524746439369
H        -0.82382488361183   -1.23267150530864   -1.74791249492135
H         0.47409465405011    1.34078707093130   -0.22222104500563
12
 energy: -21.509026913661 gnorm: 0.004439966340 xtb: 6.2.3 (830e466)
C         1.43947295519473    1.61484150426141   -2.18528834655268
C         1.27342691080377    0.94414727088882   -0.83813113637969
C         1.98080482727913   -0.03322563385150   -0.38024942025933
O         0.52439099794155    2.65774339638943   -2.37814121174511
O         0.70513056475065    3.68429374095896   -1.42177418420423
O         2.60190762533316   -0.91888954890088    0.04700378819704
H         1.14860841269126    4.39859424224597   -1.90740110857663
H         2.47351557654778    1.97451584260188   -2.31120691933560
H         1.19771261752907    0.93230222702445   -3.00751443907879
H        -0.60381689990863   -2.00187887665401   -1.67683633945756
H        -0.84949640966091   -1.27033956017138   -1.76222106297770
H         0.49733282149846    1.35749539520701   -0.21404961962975
12
 energy: -21.509066932635 gnorm: 0.004259966964 xtb: 6.2.3 (830e466)
C         1.44387452256086    1.61690963139335   -2.18647673006377
C         1.28487576943461    0.95345175688666   -0.83605446794184
C         1.99037005356273   -0.02355369258324   -0.37382953505508
O         0.53046930066692    2.66330482364128   -2.37560511685761
O         0.72015354759032    3.68721828703392   -1.41540197108397
O         2.60369152980425   -0.91008321081448    0.06402855873283
H         1.13066929551898    4.41426866526266   -1.90989306177017
H         2.47745986172193    1.97300473282980   -2.32235307927180
H         1.19206181696016    0.93248470599830   -3.00376321775211
H        -0.64170489080966   -2.04336900671609   -1.69962854982979
H        -0.85949952853364   -1.29710320210837   -1.77064985111653
H         0.51656872152256    1.37306650917634   -0.20618297799019
12
 energy: -21.509101974797 gnorm: 0.003585793076 xtb: 6.2.3 (830e466)
C         1.44579632404456    1.61824167556047   -2.18479073991060
C         1.29008594842185    0.96034478464810   -0.83187317326207
C         1.99538149392343   -0.01605392364791   -0.36851814328388
O         0.53516971902918    2.66788998229587   -2.37302828858122
O         0.73541709521063    3.69193717426844   -1.41309095463891
O         2.60840021993075   -0.90196250863406    0.06930485882807
H         1.11988821049240    4.42531156328618   -1.91527113959398
H         2.47899517794108    1.97075403211916   -2.32643072851190
H         1.18836186806468    0.93201624729813   -2.99837773606098
H        -0.66114884007562   -2.06975649399371   -1.71621593252046
H        -0.87519854926822   -1.32499284589985   -1.77912118950772
H         0.52784133228529    1.38587031269932   -0.19839683295640
12
 energy: -21.509138023233 gnorm: 0.006373555253 xtb: 6.2.3 (830e466)
C         1.44860849896912    1.62024307152288   -2.17985949644498
C         1.29806287549656    0.97088135857957   -0.82219374581829
C         2.00242303593644   -0.00626007456221   -0.35906629684509
O         0.54254542544488    2.67473767048882   -2.36446621023591
O         0.76504770812424    3.70110464651099   -1.40953960617485
O         2.61584253046440   -0.89310828485762    0.07622745544826
H         1.09744531789542    4.44929966414644   -1.93325989363175
H         2.48221192088735    1.96642972816986   -2.33142931188359
H         1.18078897030981    0.93119363431185   -2.98838147364057
H        -0.69575785969222   -2.11536391223866   -1.74711916006978
H        -0.89144256792384   -1.36466662020038   -1.79076647101930
H         0.54321414408782    1.40510911812855   -0.18595578968424
12
 energy: -21.509200438270 gnorm: 0.004081421909 xtb: 6.2.3 (830e466)
C         1.44715783133275    1.62322846273721   -2.17009488492073
C         1.29928744464379    0.98045352431528   -0.80747252642299
C         2.00607586370192    0.00181063710256   -0.35157015437109
O         0.54794982278295    2.68219888212297   -2.35570878124041
O         0.79609890965775    3.71800999714936   -1.41449292502059
O         2.62700979541026   -0.88657684395584    0.07182775303129
H         1.08473813478528    4.46790914747649   -1.95674724581105
H         2.48189277435795    1.96231310266520   -2.32797776023018
H         1.17245488563261    0.93086993006277   -2.97424169989758
H        -0.72511765208853   -2.16131703267688   -1.78133672771020
H        -0.89817929688098   -1.40153181483082   -1.79615794406640
H         0.54962148666422    1.42223200783171   -0.17183710334022
12
 energy: -21.509236703311 gnorm: 0.003470329090 xtb: 6.2.3 (830e466)
C         1.44359922358119    1.62532766208224   -2.15974528551451
C         1.29462658316894    0.98354843817374   -0.79490759998351
C         2.00528410328984    0.00293781186822   -0.34884175250041
O         0.55142343287784    2.68759601652326   -2.34712810305261
O         0.82002721990338    3.73461792887235   -1.42340580441239
O         2.63571869930763   -0.88710251456266    0.06040877659890
H         1.07824150236879    4.48208409128587   -1.98113468436915
H         2.48058424492054    1.95772423943166   -2.31789909617204
H         1.16573739165804    0.93212969089643   -2.96227157476631
H        -0.73178607197511   -2.18253048843739   -1.79829267700674
H        -0.90149491183166   -1.42605466311940   -1.80179996500308
H         0.54702858273053    1.42932178698567   -0.16079223381831
12
 energy: -21.509244814726 gnorm: 0.005938830220 xtb: 6.2.3 (830e466)
C         1.44162487854291    1.62748762271894   -2.14974222536585
C         1.29258959994274    0.98862154820748   -0.78247442860826
C         2.00663446889666    0.00733719544258   -0.34302882045988
O         0.55798068907941    2.69514424426499   -2.33755326681732
O         0.84965143483553    3.75157290538614   -1.43062418488542
O         2.64522547564207   -0.88250267525318    0.05372520210317
H         1.06410766754493    4.50242956741390   -2.00788626417446
H         2.48108719619718    1.95091703903525   -2.31037940201743
H         1.15701618297014    0.93358649588175   -2.94904711850693
H        -0.75539137559485   -2.22055079091572   -1.83010071801206
H        -0.90184770344386   -1.45455755374489   -1.80270387555988
H         0.55031148538707    1.44011440156263   -0.14599489769586
12
 energy: -21.509256786169 gnorm: 0.003415174535 xtb: 6.2.3 (830e466)
C         1.43985495124408    1.62696004562424   -2.15063807345270
C         1.28812982147596    0.98386820420686   -0.78556681082606
C         2.00312275343752    0.00303669116314   -0.34680446539279
O         0.55586265529273    2.69375472047338   -2.33980016405766
O         0.84033407727203    3.75015554830683   -1.43434152290256
O         2.64174765808475   -0.88595555576314    0.04967081315904
H         1.07281346533505    4.49430320120360   -2.00386742282200
H         2.48002356788624    1.95117681780144   -2.30687407032501
H         1.15763713193787    0.93517996982128   -2.95219515604260
H        -0.74209127386207   -2.20403511725279   -1.81962443292525
H        -0.89079418129191   -1.43836180406799   -1.79658840208730
H         0.54234937318771    1.42951727848303   -0.14918029232528
12
 energy: -21.509271894752 gnorm: 0.001944459010 xtb: 6.2.3 (830e466)
C         1.44045321551059    1.62755576811293   -2.15132578732567
C         1.29166884814488    0.98454016744542   -0.78577251916541
C         2.00522919931045    0.00307234216963   -0.34626665732028
O         0.55629438153269    2.69531997920526   -2.33755248039477
O         0.84404504823269    3.75153564546401   -1.43274324584610
O         2.63802868288046   -0.88749687554670    0.05616139113971
H         1.06903164126407    4.49808652975035   -2.00570394594198
H         2.48074491052187    1.95103638606807   -2.31099482875959
H         1.15379575974749    0.93694345959543   -2.95281858249465
H        -0.74109413892499   -2.20395665508962   -1.81608908885404
H        -0.89403775825338   -1.44371564064964   -1.80384052767508
H         0.54483021003314    1.42667889347481   -0.14886372736231
12
 energy: -21.509289566832 gnorm: 0.002733836295 xtb: 6.2.3 (830e466)
C         1.43879290457377    1.62888352927950   -2.14745729871009
C         1.29118823226492    0.98515845482386   -0.78203163814698
C         2.00562577118412    0.00357967653674   -0.34344189105576
O         0.55905294157631    2.70061098617581   -2.33106009470201
O         0.86122059078847    3.76187782794670   -1.43625482313807
O         2.63834486125557   -0.88748407848683    0.05799969004554
H         1.06171977382968    4.50939828458724   -2.01956176066009
H         2.47999381216449    1.94712378230725   -2.30981079378614
H         1.14574926048456    0.94034955669389   -2.94805418449460
H        -0.74932454903345   -2.22030272067449   -1.82983350059062
H        -0.88840721441661   -1.45565283420829   -1.80315267669222
H         0.54503361532810    1.42605753501855   -0.14315102806912
12
 energy: -21.509309084926 gnorm: 0.003416330540 xtb: 6.2.3 (830e466)
C         1.43521451452238    1.63029953404135   -2.14341257949812
C         1.28887215624276    0.98411067216477   -0.77920476186866
C         2.00439972986882    0.00321445640516   -0.34029727589320
O         0.56149495406296    2.70778866856748   -2.32246217390857
O         0.88343778254697    3.77495954673400   -1.44088638563361
O         2.63661352477646   -0.88801392073237    0.06117157157765
H         1.05591872114092    4.52146369831770   -2.03504713966179
H         2.47754301506873    1.94172302796752   -2.30947189337523
H         1.13328388298392    0.94545770438351   -2.94369125121542
H        -0.75336272018173   -2.23520449797136   -1.84259897332080
H        -0.87587040924572   -1.46688918987250   -1.80167813561323
H         0.54144484821349    1.42069029999462   -0.13823100158920
12
 energy: -21.509331911280 gnorm: 0.004158946276 xtb: 6.2.3 (830e466)
C         1.42909303164177    1.63146461579900   -2.14015718210968
C         1.28444682419741    0.98118921318248   -0.77843430639197
C         2.00145582070023    0.00236780253833   -0.33675428461443
O         0.56381506772552    2.71739629241291   -2.31166103150652
O         0.91282644224819    3.78976257673829   -1.44549094753259
O         2.63235818499682   -0.88831765450583    0.06750644308431
H         1.05128282723402    4.53490364810281   -2.05035744027989
H         2.47254540194312    1.93395115036853   -2.31144835521076
H         1.11548407939106    0.95239121903516   -2.94069758239161
H        -0.75313614073563   -2.24861252055235   -1.85368540685498
H        -0.85420880306192   -1.47679302707334   -1.79884187515486
H         0.53302726371933    1.40989668395391   -0.13578803103721
12
 energy: -21.509362816980 gnorm: 0.003673059063 xtb: 6.2.3 (830e466)
C         1.42136805462426    1.63162816830772   -2.13921687179687
C         1.27784310791604    0.97697064265047   -0.78046901020098
C         1.99707554307513    0.00186484683955   -0.33393327510084
O         0.56573862145167    2.72696658895299   -2.30217106185878
O         0.94209452056804    3.80094212424435   -1.44836203901249
O         2.62735989921004   -0.88686532513999    0.07523942342051
H         1.05042172473274    4.54536722605727   -2.05841673930738
H         2.46602836077121    1.92470124118004   -2.31606726517791
H         1.09596818103517    0.95877729985236   -2.94057227940279
H        -0.74684321453527   -2.25516240321926   -1.85808954334476
H        -0.82798756382616   -1.48182184249359   -1.79563367161570
H         0.51992276497706    1.39623143276802   -0.13811766660216
12
 energy: -21.509398327356 gnorm: 0.001382967378 xtb: 6.2.3 (830e466)
C         1.41950250960691    1.63004191002567   -2.14159420173936
C         1.27588334406560    0.97697877210342   -0.78189330683648
C         1.99551557593828    0.00241572250972   -0.33579768055853
O         0.56628857755090    2.72671677119599   -2.30345922815345
O         0.94852762989511    3.79637095216729   -1.44692925667327
O         2.62739145098671   -0.88223120367378    0.08044845779060
H         1.04799382995239    4.54557703615603   -2.05090133182104
H         2.46468638901035    1.92138626542167   -2.31936057904513
H         1.09304705658777    0.95716658762344   -2.94277858140566
H        -0.75171167768706   -2.25162033029206   -1.86209108852607
H        -0.81538674310039   -1.48008655080191   -1.78971423201296
H         0.51725205719332    1.39688406756436   -0.14173897101871
12
 energy: -21.509444758174 gnorm: 0.005591991060 xtb: 6.2.3 (830e466)
C         1.41071088854131    1.61787315883795   -2.15229923646869
C         1.26310074429153    0.98161513631971   -0.78344682838905
C         1.98938597644384    0.02175270905647   -0.31939931155370
O         0.57359536595685    2.72398966888003   -2.31323211466760
O         0.98293466431215    3.77124366531144   -1.44022496371036
O         2.62585200236255   -0.87080483930583    0.07447450801266
H         1.03100334232789    4.54733435486305   -2.01268066474574
H         2.45909615916986    1.89795050613079   -2.33443788813525
H         1.07843602463165    0.94225617337290   -2.95010742890941
H        -0.78061659671496   -2.23375218001539   -1.88740417415700
H        -0.73784038376232   -1.46639936096597   -1.75317288343056
H         0.49333181243937    1.40654100751407   -0.16387901384490
12
 energy: -21.509505256464 gnorm: 0.008753910895 xtb: 6.2.3 (830e466)
C         1.40581853655832    1.61221009956541   -2.15911615913916
C         1.25431545508059    0.97644820558823   -0.79018419354127
C         1.98417461354861    0.01908706050158   -0.32607577416244
O         0.58061683544294    2.72756597215960   -2.31592601110879
O         1.00164415412655    3.76455198042488   -1.43467962332540
O         2.62701509906840   -0.85747345120194    0.09163847549076
H         1.01903259475733    4.55313268778196   -1.99552199551537
H         2.45679638179201    1.88141677832322   -2.34356481029656
H         1.06540510689880    0.93861672914795   -2.95520097323139
H        -0.79190129956254   -2.22387459216468   -1.89849359337974
H        -0.69879737206083   -1.45774610423683   -1.73571810382844
H         0.48486989434947    1.40566463410957   -0.17296723796161
12
 energy: -21.509508333349 gnorm: 0.008818957032 xtb: 6.2.3 (830e466)
C         1.40248360117440    1.60774653328698   -2.16368979413466
C         1.24460839140902    0.96471316698783   -0.79931962071739
C         1.97863926839612    0.00742880133215   -0.33876282760345
O         0.59189765976213    2.73638790726515   -2.31514695574638
O         1.01674690331104    3.76887215962968   -1.42912652540919
O         2.62864819029234   -0.84769161084256    0.11117468660132
H         1.00732192732943    4.56231498091843   -1.98831901994713
H         2.45667437290540    1.86115325780787   -2.34989080342795
H         1.04840337821113    0.94051961015380   -2.95830448900931
H        -0.75948198524341   -2.20717571739323   -1.88148694632141
H        -0.70535540740642   -1.45145097192038   -1.74588782226398
H         0.47840369985857    1.39678188277361   -0.17704988202006
12
 energy: -21.509646979053 gnorm: 0.003087338674 xtb: 6.2.3 (830e466)
C         1.40186610645391    1.60687986504469   -2.16231173276418
C         1.24393334583294    0.96737418514729   -0.79617564739408
C         1.97914151870741    0.01429524775782   -0.32956006674718
O         0.59260487775581    2.73590289104132   -2.31630452909000
O         1.01785519321352    3.76888208347370   -1.43124776651301
O         2.62747173903358   -0.85150250721120    0.09963049502991
H         1.00841427613945    4.55993528109634   -1.98925728101865
H         2.45612785032642    1.85841350282589   -2.34946069776068
H         1.04592799168809    0.94072287301112   -2.95702177432888
H        -0.77188967584641   -2.20603031391291   -1.89006921229274
H        -0.68349258582424   -1.44918491885136   -1.73518856967743
H         0.47102936251920    1.39391181057642   -0.17884321744254
12
 energy: -21.509712189526 gnorm: 0.009294738405 xtb: 6.2.3 (830e466)
C         1.39439322850253    1.59810526597629   -2.16770706951587
C         1.23032733377301    0.96272843241400   -0.80015168735470
C         1.97315123999287    0.02084558806839   -0.32258493766624
O         0.60456242199328    2.74155460099593   -2.31947104936223
O         1.04692739183509    3.76412600229816   -1.42825996216916
O         2.62761201598350   -0.84348231930997    0.10082037280135
H         0.99489335183748    4.56533338818813   -1.97245468507117
H         2.45248131899145    1.82979768826347   -2.35949254423932
H         1.02141095235943    0.93932098020518   -2.96123456271601
H        -0.77947216975724   -2.18446881869613   -1.90146703741292
H        -0.62161929667790   -1.43522237120215   -1.71039138723359
H         0.44432221116609    1.38096156279751   -0.19341545005934
12
 energy: -21.509827203296 gnorm: 0.005507597358 xtb: 6.2.3 (830e466)
C         1.38897163895202    1.59449070146777   -2.16878686328911
C         1.22123723453267    0.95715693584129   -0.80314680652081
C         1.96987258150918    0.02189384866807   -0.32124598414028
O         0.61139864546103    2.74705929368372   -2.31943785005824
O         1.06018129025738    3.76727609458222   -1.42788708175635
O         2.62883908666870   -0.83921658619528    0.10137760401839
H         0.99650687169332    4.56660933218841   -1.96852665454822
H         2.44909435664583    1.81251207883196   -2.36321015502865
H         1.00336583516954    0.94365224264453   -2.96301781944345
H        -0.76423839415139   -2.16889433300131   -1.89692292643627
H        -0.60114759624614   -1.42592933075069   -1.70446674136220
H         0.42490844950745    1.36298972203821   -0.20053872143398
12
 energy: -21.510120570485 gnorm: 0.011898307321 xtb: 6.2.3 (830e466)
C         1.36003875472561    1.57161733942661   -2.18200843552542
C         1.17206405266392    0.92877896009237   -0.82339953137162
C         1.95136142466674    0.02945663727722   -0.31699236744029
O         0.64698400135247    2.77108393894488   -2.32003649982050
O         1.14930768024707    3.76711982803008   -1.42121831277068
O         2.63671679940843   -0.80484975912401    0.11909208039292
H         0.98493967980813    4.58127995703471   -1.92768858473417
H         2.43073104060989    1.72244610800536   -2.38986125077995
H         0.91489327225437    0.95611962065745   -2.97799165345681
H        -0.70767783956250   -2.08973087351085   -1.88417613436309
H        -0.47865437969803   -1.37763548306592   -1.66490403587048
H         0.32828551352352    1.28391372623109   -0.24662527425885
12
 energy: -21.510360932295 gnorm: 0.013495306679 xtb: 6.2.3 (830e466)
C         1.33437285148226    1.55847116724239   -2.19138156178260
C         1.13216010919285    0.90402006485616   -0.84265882609181
C         1.93898513277685    0.03534607342216   -0.32069716768969
O         0.66424720896927    2.78528778958048   -2.32049561338242
O         1.19599493053394    3.76488432648542   -1.41660489004316
O         2.64899382200041   -0.76956860072425    0.13673546539823
H         1.01054084726303    4.58076114729124   -1.89590167476703
H         2.40865172509455    1.66848376439586   -2.40523227138461
H         0.85682065469621    0.96997732156486   -2.99125518907253
H        -0.66969093786815   -2.03339629449794   -1.87094404309382
H        -0.38991219753565   -1.34197561362266   -1.63494039128704
H         0.25782585339404    1.21730885400537   -0.28243383680236
12
 energy: -21.510651555596 gnorm: 0.013324688945 xtb: 6.2.3 (830e466)
C         1.31490880163354    1.54959553585524   -2.20097181618511
C         1.10286149487877    0.88534034759252   -0.86087529552294
C         1.92813738606208    0.04357823341820   -0.32620954272170
O         0.67025934436851    2.78546255949494   -2.31669266843828
O         1.23228942871882    3.74871906811823   -1.41390740622509
O         2.65288770285775   -0.73487485803604    0.15204677685497
H         1.03508662516232    4.57615209242883   -1.86172661837208
H         2.38480335459632    1.64224739673417   -2.41737467205958
H         0.82853448782207    0.98003539198035   -3.00382837549938
H        -0.63448859043092   -1.99141583965037   -1.84983808251415
H        -0.34241682591284   -1.31648600481680   -1.62118362153239
H         0.21612679024324    1.17124607688010   -0.31524867778321
12
 energy: -21.510850770008 gnorm: 0.021071237769 xtb: 6.2.3 (830e466)
C         1.27633291993936    1.52740303701076   -2.22268048555518
C         1.04556848544093    0.85583182854343   -0.89126191524029
C         1.90571455598059    0.07026918475548   -0.32184902558888
O         0.69252752685000    2.79227287515178   -2.31273115766336
O         1.32504795195948    3.71519201310636   -1.40747258151528
O         2.65525716777198   -0.66953197921291    0.17242920913663
H         1.05672532765822    4.57447294279656   -1.78509532768975
H         2.34418038171294    1.57040709100741   -2.44996679327205
H         0.75760850354075    0.99214712892505   -3.02576725169900
H        -0.60515057696043   -1.90823965344586   -1.83008410359012
H        -0.18840610685956   -1.27121612385599   -1.57656797279213
H         0.12358386296522    1.09059165521731   -0.38476259452955
12
 energy: -21.511206220027 gnorm: 0.008303737881 xtb: 6.2.3 (830e466)
C         1.27706487547510    1.53547718396413   -2.22089196256500
C         1.05798798045740    0.86550835527583   -0.88493176415180
C         1.91110352019403    0.07538839228296   -0.31925517237932
O         0.68114577355586    2.79376913094379   -2.30588798619613
O         1.31268502025740    3.71734285169406   -1.40763491469433
O         2.65452141483573   -0.66928254391350    0.17150398121978
H         1.07915785219180    4.56905273480298   -1.79507784524630
H         2.34722232146242    1.58605784316201   -2.44970505549201
H         0.76161818417591    0.99243804585509   -3.02220523896856
H        -0.59997870077451   -1.93363648359830   -1.83734868849159
H        -0.22868626454001   -1.29213549443250   -1.58554488660006
H         0.13514802270836    1.09961998396266   -0.37883046643358
12
 energy: -21.510988817254 gnorm: 0.024546988003 xtb: 6.2.3 (830e466)
C         1.24340326564087    1.52364049917402   -2.23714781061871
C         1.01650977445019    0.84075705356093   -0.90741871437144
C         1.90248706151335    0.09608574433596   -0.31497195120488
O         0.69496880685539    2.81419103451454   -2.29737602150944
O         1.38511454405797    3.70392412647767   -1.39889818031409
O         2.67782945773126   -0.60717697613034    0.20711508385610
H         1.11894009561560    4.56879016202008   -1.74854386956969
H         2.32005858126800    1.53124228337743   -2.47523053643321
H         0.68988745571695    1.00827993222853   -3.04145735812344
H        -0.54730872577324   -1.89590828141340   -1.82634488946362
H        -0.17738756522892   -1.27830885726328   -1.57091634303841
H         0.06448724815205    1.03408327911711   -0.42461940920800
12
 energy: -21.511590097569 gnorm: 0.009359882425 xtb: 6.2.3 (830e466)
C         1.24102121971729    1.53003892023217   -2.23841733677168
C         1.02149770696584    0.84684542165456   -0.90617643502662