      -----------------------------------------------------------      
     |                   =====================                   |     
     |                           x T B                           |     
     |                   =====================                   |     
     |                         S. Grimme                         |     
     |          Mulliken Center for Theoretical Chemistry        |     
     |                    University of Bonn                     |     
      -----------------------------------------------------------      

   * xtb version 6.2.3 (830e466) compiled by 'ehlert@majestix' on 2020-03-16

   xtb is free software: you can redistribute it and/or modify it under
   the terms of the GNU Lesser General Public License as published by
   the Free Software Foundation, either version 3 of the License, or
   (at your option) any later version.
   
   xtb is distributed in the hope that it will be useful,
   but WITHOUT ANY WARRANTY; without even the implied warranty of
   MERCHANTABILITY or FITNESS FOR A PARTICULAR PURPOSE.  See the
   GNU Lesser General Public License for more details.
   
   Cite this work as:
   * S. Grimme, C. Bannwarth, P. Shushkov, J. Chem. Theory Comput., 2017,
     13, 1989-2009. DOI: 10.1021/acs.jctc.7b00118
   * C. Bannwarth, S. Ehlert and S. Grimme., J. Chem. Theory Comput., 2019,
     15, 1652-1671. DOI: 10.1021/acs.jctc.8b01176
   * P. Pracht, E. Caldeweyher, S. Ehlert, S. Grimme, ChemRxiv, 2019, preprint.
     DOI: 10.26434/chemrxiv.8326202.v1
   
   for DFT-D4:
   * E. Caldeweyher, C. Bannwarth and S. Grimme, J. Chem. Phys., 2017,
     147, 034112. DOI: 10.1063/1.4993215
   * E. Caldeweyher, S. Ehlert, A. Hansen, H. Neugebauer, S. Spicher,
     C. Bannwarth and S. Grimme, J. Chem. Phys., 2019, 150, 154122.
     DOI: 10.1063/1.5090222
   
   for sTDA-xTB:
   * S. Grimme and C. Bannwarth, J. Chem. Phys., 2016, 145, 054103.
     DOI: 10.1063/1.4959605
   
   in the mass-spec context:
   * V. Asgeirsson, C. Bauer and S. Grimme, Chem. Sci., 2017, 8, 4879.
     DOI: 10.1039/c7sc00601b
   
   for metadynamics refer to:
   * S. Grimme, J. Chem. Theory Comput., 2019, 155, 2847-2862
     DOI: 10.1021/acs.jctc.9b00143
   
   with help from (in alphabetical order)
   C. Bannwarth, F. Bohle, G. Brandenburg, E. Caldeweyher, M. Checinski,
   S. Dohm, S. Ehlert, S. Ehrlich, F. März, H. Neugebauer, J. Pisarek,
   P. Pracht, P. Shushkov, and S. Spicher.
   
 * started run on 2020/12/23 at 21:42:23.658     

           -------------------------------------------------
          |                Calculation Setup                |
           -------------------------------------------------

          program call               : xtb -c 0 -u 0 -a 1.0 --iterations 100 --opt normal --namespace product_22 /scratch/bell/zhao922/YARP/paper-example/potential_product/test/reaction_channel/pp_0/pp_22_0.xyz
          hostname                   : bell-fe05.rcac.purdue.edu
          calculation namespace      : product_22
          coordinate file            : /scratch/bell/zhao922/YARP/paper-example/potential_product/test/reaction_channel/pp_0/pp_22_0.xyz
          omp threads                :                    32
          number of atoms            :                    12
          number of electrons        :                    36
          charge                     :                     0
          spin                       :                   0.0
          first test random number   :      0.19980793212712

           ------------------------------------------------- 
          |                 G F N 2 - x T B                 |
          | Geometry, Frequencies, Noncovalent interactions |
          |            JCTC 2019 parametrisation            |
           ------------------------------------------------- 
             k(s)              :                1.8500
             k(p)              :                2.2300
             k(d)              :                2.2300
             k(f)              :                2.0000
             kEN (H0ij)        :               -2.0000
             D4 a1             :                0.5200
             D4 a2             :                5.0000
             D4 s6             :                1.0000
             D4 s8             :                2.7000
             D4 s9             :                5.0000
             alphaj            :                2.0000

  Z AO/shell   Hii/eV     exponent
  1     Wed Apr 25 08:07:45 CEST 2018   EN: 2.200 GM2: 0.406  GM3: 0.0800  RAES: 1.40
     1s    -10.707211    1.230000
  6     Wed Apr 25 08:07:45 CEST 2018   EN: 2.550 GM2: 0.538  GM3: 0.1500  RAES: 3.00
     2s    -13.970922    2.096432
     2p    -10.063292    1.800000
  8     Wed Apr 25 08:07:45 CEST 2018   EN: 3.440 GM2: 0.452  GM3:-0.0517  RAES: 1.80
     2s    -20.229985    2.439742
     2p    -15.503117    2.137023

           ------------------------------------------------- 
          |        Self-Consistent Charge Iterations        |
           ------------------------------------------------- 

          ...................................................
          :                      SETUP                      :
          :.................................................:
          :  # basis functions                  30          :
          :  # atomic orbitals                  30          :
          :  # shells                           18          :
          :  # electrons                        36          :
          :  max. iterations                   100          :
          :  Hamiltonian                  GFN2-xTB          :
          :  restarted?                      false          :
          :  GBSA solvation                  false          :
          :  PC potential                    false          :
          :  electronic temp.          300.0000000     K    :
          :  accuracy                    1.0000000          :
          :  -> integral cutoff          0.2500000E+02      :
          :  -> integral neglect         0.1000000E-07      :
          :  -> SCF convergence          0.1000000E-05 Eh   :
          :  -> wf. convergence          0.1000000E-03 e    :
          :  Broyden damping             0.4000000          :
          ...................................................

 iter      E             dE          RMSdq      gap      omega  full diag
   1    -21.6995057 -0.216995E+02  0.475E+00    8.55       0.0  T
   2    -21.7247922 -0.252865E-01  0.264E+00    8.49       1.0  T
   3    -21.7250652 -0.273009E-03  0.867E-01    8.54       1.0  T
   4    -21.7257450 -0.679787E-03  0.117E-01    8.55       1.0  T
   5    -21.7257811 -0.361066E-04  0.570E-02    8.56       1.0  T
   6    -21.7257829 -0.184014E-05  0.171E-02    8.56       1.7  T
   7    -21.7257832 -0.279652E-06  0.376E-03    8.56       7.7  T
   8    -21.7257833 -0.387411E-07  0.148E-03    8.56      19.5  T
   9    -21.7257833 -0.695758E-08  0.421E-04    8.56      68.6  T
  10    -21.7257833 -0.495440E-09  0.237E-04    8.56     121.7  T

   *** convergence criteria satisfied after 10 iterations ***

         #    Occupation            Energy/Eh            Energy/eV
      -------------------------------------------------------------
         1        2.0000           -0.7475727             -20.3425
       ...           ...                  ...                  ...
        12        2.0000           -0.5274200             -14.3518
        13        2.0000           -0.5100369             -13.8788
        14        2.0000           -0.5059422             -13.7674
        15        2.0000           -0.4966907             -13.5156
        16        2.0000           -0.4676623             -12.7257
        17        2.0000           -0.4408131             -11.9951
        18        2.0000           -0.3957528             -10.7690 (HOMO)
        19                         -0.0811552              -2.2083 (LUMO)
        20                         -0.0080939              -0.2202
        21                          0.0252217               0.6863
        22                          0.0810444               2.2053
        23                          0.0993819               2.7043
       ...                                ...                  ...
        30                          0.2725943               7.4177
      -------------------------------------------------------------
                  HL-Gap            0.3145977 Eh            8.5606 eV
             Fermi-level           -0.2384540 Eh           -6.4887 eV

 SCC (total)                   0 d,  0 h,  0 min,  0.007 sec
 SCC setup                      ...        0 min,  0.000 sec (  4.286%)
 Dispersion                     ...        0 min,  0.000 sec (  0.916%)
 integral evaluation            ...        0 min,  0.001 sec (  9.836%)
 zeroth order Hamiltonian       ...        0 min,  0.000 sec (  1.265%)
 iterations                     ...        0 min,  0.004 sec ( 54.231%)
 molecular gradient             ...        0 min,  0.002 sec ( 23.064%)
 printout                       ...        0 min,  0.000 sec (  3.199%)

         :::::::::::::::::::::::::::::::::::::::::::::::::::::
         ::                     SUMMARY                     ::
         :::::::::::::::::::::::::::::::::::::::::::::::::::::
         :: total energy             -21.582897070059 Eh    ::
         :: gradient norm              0.124031110926 Eh/a0 ::
         :: HOMO-LUMO gap              8.560638371288 eV    ::
         ::.................................................::
         :: SCC energy               -21.725783265297 Eh    ::
         :: -> isotropic ES            0.049273713359 Eh    ::
         :: -> anisotropic ES          0.001069811513 Eh    ::
         :: -> anisotropic XC         -0.010968693739 Eh    ::
         :: -> dispersion             -0.006332142421 Eh    ::
         :: repulsion energy           0.142882172624 Eh    ::
         :: add. restraining           0.000000000000 Eh    ::
         :::::::::::::::::::::::::::::::::::::::::::::::::::::

      ----------------------------------------------------------- 
     |                   =====================                   |
     |                        A N C O P T                        |
     |                   =====================                   |
     |               Approximate Normal Coordinate               |
     |                Rational Function Optimizer                |
      ----------------------------------------------------------- 

          ...................................................
          :                      SETUP                      :
          :.................................................:
          :   optimization level            normal          :
          :   max. optcycles                   200          :
          :   ANC micro-cycles                  20          :
          :   degrees of freedom                30          :
          :.................................................:
          :   RF solver                   davidson          :
          :   write xtbopt.log                true          :
          :   linear?                        false          :
          :   energy convergence         0.5000000E-05 Eh   :
          :   grad. convergence          0.1000000E-02 Eh/α :
          :   maximium RF displ.         1.0000000          :
          :   Hlow (freq-cutoff)         0.1000000E-01      :
          :   Hmax (freq-cutoff)         5.0000000          :
          :   S6 in model hess.         20.0000000          :
          ...................................................

generating ANC from model Hessian ...
Using Lindh-Hessian (1995)
 Shifting diagonal of input Hessian by   0.000000000000000E+000
 Lowest  eigenvalues of input Hessian
   -0.000000   -0.000000   -0.000000    0.000000    0.000000    0.000000
    0.011620    0.022491    0.032668    0.046198    0.052879    0.055591
    0.067315    0.074434    0.084021    0.099521    0.108974    0.134555
 Highest eigenvalues
    1.210995    1.297543    1.372141    1.421622    1.519586    1.658144
 

........................................................................
.............................. CYCLE    1 ..............................
........................................................................
   1    -21.7257833 -0.217258E+02  0.128E-04    8.56       0.0  T
   2    -21.7257833 -0.738787E-10  0.645E-05    8.56     447.4  T
   3    -21.7257833 -0.833467E-11  0.420E-05    8.56     687.5  T
     SCC iter.                  ...        0 min,  0.002 sec
     gradient                   ...        0 min,  0.001 sec
 * total energy  :   -21.5828971 Eh     change        0.1445958E-07 Eh
   gradient norm :     0.1240322 Eh/α   predicted     0.0000000E+00 (-100.00%)
   displ. norm   :     0.2533184 α      lambda       -0.1557522E-01
   maximum displ.:     0.1317553 α      in ANC's #7, #1, #9, ...

........................................................................
.............................. CYCLE    2 ..............................
........................................................................
   1    -21.7398888 -0.217399E+02  0.278E-01    7.45       0.0  T
   2    -21.7399857 -0.969086E-04  0.167E-01    7.45       1.0  T
   3    -21.7399984 -0.127390E-04  0.487E-02    7.46       1.0  T
   4    -21.7400001 -0.166380E-05  0.130E-02    7.45       2.2  T
   5    -21.7400005 -0.389129E-06  0.401E-03    7.46       7.2  T
   6    -21.7400005 -0.102056E-07  0.182E-03    7.46      15.8  T
     SCC iter.                  ...        0 min,  0.002 sec
     gradient                   ...        0 min,  0.088 sec
 * total energy  :   -21.5932510 Eh     change       -0.1035391E-01 Eh
   gradient norm :     0.0500700 Eh/α   predicted    -0.8287340E-02 ( -19.96%)
   displ. norm   :     0.1877893 α      lambda       -0.3902240E-02
   maximum displ.:     0.1246389 α      in ANC's #1, #4, #2, ...

........................................................................
.............................. CYCLE    3 ..............................
........................................................................
   1    -21.7454290 -0.217454E+02  0.207E-01    6.80       0.0  T
   2    -21.7454573 -0.283157E-04  0.125E-01    6.81       1.0  T
   3    -21.7454599 -0.259814E-05  0.277E-02    6.81       1.0  T
   4    -21.7454616 -0.168952E-05  0.953E-03    6.81       3.0  T
   5    -21.7454619 -0.259096E-06  0.264E-03    6.81      11.0  T
   6    -21.7454619 -0.325940E-08  0.131E-03    6.81      22.0  T
     SCC iter.                  ...        0 min,  0.002 sec
     gradient                   ...        0 min,  0.001 sec
 * total energy  :   -21.5955491 Eh     change       -0.2298121E-02 Eh
   gradient norm :     0.0112028 Eh/α   predicted    -0.2019927E-02 ( -12.11%)
   displ. norm   :     0.1389521 α      lambda       -0.4271640E-03
   maximum displ.:     0.1241299 α      in ANC's #1, #4, #2, ...

........................................................................
.............................. CYCLE    4 ..............................
........................................................................
   1    -21.7451252 -0.217451E+02  0.137E-01    6.61       0.0  T
   2    -21.7451278 -0.257312E-05  0.837E-02    6.61       1.0  T
   3    -21.7451285 -0.658074E-06  0.787E-03    6.61       3.7  T
   4    -21.7451287 -0.217998E-06  0.378E-03    6.61       7.6  T
   5    -21.7451287 -0.115173E-07  0.139E-03    6.61      20.7  T
   6    -21.7451287 -0.218702E-08  0.478E-04    6.61      60.4  T
     SCC iter.                  ...        0 min,  0.002 sec
     gradient                   ...        0 min,  0.091 sec
 * total energy  :   -21.5958454 Eh     change       -0.2963029E-03 Eh
   gradient norm :     0.0041522 Eh/α   predicted    -0.2177077E-03 ( -26.53%)
   displ. norm   :     0.1367071 α      lambda       -0.1927747E-03
   maximum displ.:     0.1273112 α      in ANC's #1, #4, #2, ...

........................................................................
.............................. CYCLE    5 ..............................
........................................................................
   1    -21.7446617 -0.217447E+02  0.146E-01    6.52       0.0  T
   2    -21.7446634 -0.179114E-05  0.893E-02    6.52       1.0  T
   3    -21.7446643 -0.817353E-06  0.657E-03    6.52       4.4  T
   4    -21.7446644 -0.126508E-06  0.365E-03    6.52       7.9  T
   5    -21.7446644 -0.113142E-07  0.112E-03    6.52      25.8  T
   6    -21.7446644 -0.196499E-08  0.404E-04    6.52      71.4  T
     SCC iter.                  ...        0 min,  0.004 sec
     gradient                   ...        0 min,  0.001 sec
 * total energy  :   -21.5959800 Eh     change       -0.1345913E-03 Eh
   gradient norm :     0.0049271 Eh/α   predicted    -0.9819018E-04 ( -27.05%)
   displ. norm   :     0.0908530 α      lambda       -0.8542469E-04
   maximum displ.:     0.0854666 α      in ANC's #1, #4, #7, ...

........................................................................
.............................. CYCLE    6 ..............................
........................................................................
   1    -21.7447670 -0.217448E+02  0.105E-01    6.52       0.0  T
   2    -21.7447678 -0.823474E-06  0.644E-02    6.52       1.0  T
   3    -21.7447682 -0.407890E-06  0.413E-03    6.52       7.0  T
   4    -21.7447683 -0.353679E-07  0.231E-03    6.52      12.5  T
   5    -21.7447683 -0.667029E-08  0.831E-04    6.52      34.8  T
     SCC iter.                  ...        0 min,  0.092 sec
     gradient                   ...        0 min,  0.001 sec
 * total energy  :   -21.5960467 Eh     change       -0.6670240E-04 Eh
   gradient norm :     0.0052854 Eh/α   predicted    -0.4306562E-04 ( -35.44%)
   displ. norm   :     0.0996697 α      lambda       -0.8132834E-04
   maximum displ.:     0.0939207 α      in ANC's #1, #4, #7, ...

........................................................................
.............................. CYCLE    7 ..............................
........................................................................
   1    -21.7450797 -0.217451E+02  0.123E-01    6.56       0.0  T
   2    -21.7450808 -0.107593E-05  0.753E-02    6.56       1.0  T
   3    -21.7450813 -0.564131E-06  0.462E-03    6.56       6.3  T
   4    -21.7450814 -0.303235E-07  0.243E-03    6.56      11.9  T
   5    -21.7450814 -0.760972E-08  0.939E-04    6.56      30.7  T
     SCC iter.                  ...        0 min,  0.002 sec
     gradient                   ...        0 min,  0.001 sec
 * total energy  :   -21.5961086 Eh     change       -0.6191847E-04 Eh
   gradient norm :     0.0047086 Eh/α   predicted    -0.4106630E-04 ( -33.68%)
   displ. norm   :     0.1191528 α      lambda       -0.7430898E-04
   maximum displ.:     0.1105024 α      in ANC's #1, #3, #4, ...

........................................................................
.............................. CYCLE    8 ..............................
........................................................................
   1    -21.7451944 -0.217452E+02  0.156E-01    6.60       0.0  T
   2    -21.7451961 -0.175829E-05  0.960E-02    6.60       1.0  T
   3    -21.7451971 -0.961320E-06  0.634E-03    6.60       4.6  T
   4    -21.7451972 -0.890322E-07  0.374E-03    6.60       7.7  T
   5    -21.7451972 -0.159572E-07  0.109E-03    6.60      26.5  T
   6    -21.7451972 -0.295961E-08  0.449E-04    6.60      64.2  T
     SCC iter.                  ...        0 min,  0.092 sec
     gradient                   ...        0 min,  0.001 sec
 * total energy  :   -21.5961628 Eh     change       -0.5420806E-04 Eh
   gradient norm :     0.0050477 Eh/α   predicted    -0.3768211E-04 ( -30.49%)
   displ. norm   :     0.1104649 α      lambda       -0.6780109E-04
   maximum displ.:     0.0983833 α      in ANC's #1, #3, #2, ...

........................................................................
.............................. CYCLE    9 ..............................
........................................................................
   1    -21.7454713 -0.217455E+02  0.157E-01    6.64       0.0  T
   2    -21.7454734 -0.208450E-05  0.965E-02    6.64       1.0  T
   3    -21.7454744 -0.980344E-06  0.726E-03    6.64       4.0  T
   4    -21.7454746 -0.178807E-06  0.402E-03    6.64       7.2  T
   5    -21.7454746 -0.146959E-07  0.117E-03    6.64      24.7  T
   6    -21.7454746 -0.293354E-08  0.448E-04    6.64      64.5  T
     SCC iter.                  ...        0 min,  0.002 sec
     gradient                   ...        0 min,  0.001 sec
 * total energy  :   -21.5962133 Eh     change       -0.5045318E-04 Eh
   gradient norm :     0.0040539 Eh/α   predicted    -0.3431553E-04 ( -31.99%)
   displ. norm   :     0.1075111 α      lambda       -0.6787234E-04
   maximum displ.:     0.0836732 α      in ANC's #1, #3, #2, ...

........................................................................
.............................. CYCLE   10 ..............................
........................................................................
   1    -21.7456143 -0.217456E+02  0.175E-01    6.66       0.0  T
   2    -21.7456174 -0.318398E-05  0.108E-01    6.66       1.0  T
   3    -21.7456188 -0.137581E-05  0.873E-03    6.66       3.3  T
   4    -21.7456191 -0.282045E-06  0.459E-03    6.66       6.3  T
   5    -21.7456191 -0.182841E-07  0.149E-03    6.66      19.3  T
   6    -21.7456191 -0.393502E-08  0.531E-04    6.66      54.4  T
     SCC iter.                  ...        0 min,  0.092 sec
     gradient                   ...        0 min,  0.001 sec
 * total energy  :   -21.5962659 Eh     change       -0.5261936E-04 Eh
   gradient norm :     0.0037634 Eh/α   predicted    -0.3432859E-04 ( -34.76%)
   displ. norm   :     0.1225775 α      lambda       -0.9655748E-04
   maximum displ.:     0.0678597 α      in ANC's #1, #3, #2, ...

........................................................................
.............................. CYCLE   11 ..............................
........................................................................
   1    -21.7460565 -0.217461E+02  0.227E-01    6.67       0.0  T
   2    -21.7460630 -0.649477E-05  0.140E-01    6.67       1.0  T
   3    -21.7460655 -0.247950E-05  0.121E-02    6.68       2.4  T
   4    -21.7460661 -0.531282E-06  0.592E-03    6.67       4.9  T
   5    -21.7460661 -0.345786E-07  0.223E-03    6.67      13.0  T
   6    -21.7460661 -0.651479E-08  0.762E-04    6.67      37.9  T
   7    -21.7460661 -0.171082E-08  0.373E-04    6.67      77.4  T
     SCC iter.                  ...        0 min,  0.002 sec
     gradient                   ...        0 min,  0.001 sec
 * total energy  :   -21.5963368 Eh     change       -0.7091903E-04 Eh
   gradient norm :     0.0034749 Eh/α   predicted    -0.4900313E-04 ( -30.90%)
   displ. norm   :     0.3103531 α      lambda       -0.1488946E-03
   maximum displ.:     0.1845851 α      in ANC's #1, #3, #2, ...

........................................................................
.............................. CYCLE   12 ..............................
........................................................................
   1    -21.7412614 -0.217413E+02  0.562E-01    6.66       0.0  T
   2    -21.7413108 -0.493910E-04  0.348E-01    6.66       1.0  T
   3    -21.7413289 -0.180772E-04  0.334E-02    6.67       1.0  T
   4    -21.7413333 -0.443412E-05  0.158E-02    6.67       1.8  T
   5    -21.7413336 -0.350214E-06  0.675E-03    6.67       4.3  T
   6    -21.7413337 -0.681442E-07  0.201E-03    6.67      14.4  T
   7    -21.7413337 -0.122157E-07  0.109E-03    6.67      26.4  T
   8    -21.7413337 -0.443064E-08  0.449E-04    6.67      64.2  T
   9    -21.7413337 -0.932634E-09  0.129E-04    6.67     224.2  T
     SCC iter.                  ...        0 min,  0.093 sec
     gradient                   ...        0 min,  0.002 sec
 * total energy  :   -21.5957963 Eh     change        0.5405297E-03 Eh
   gradient norm :     0.0336106 Eh/α   predicted    -0.8161784E-04 (-115.10%)
   displ. norm   :     0.2169553 α      lambda       -0.1707770E-02
   maximum displ.:     0.1630694 α      in ANC's #1, #3, #2, ...

........................................................................
.............................. CYCLE   13 ..............................
........................................................................
   1    -21.7464885 -0.217465E+02  0.368E-01    6.68       0.0  T
   2    -21.7465312 -0.427171E-04  0.226E-01    6.67       1.0  T
   3    -21.7465433 -0.120326E-04  0.331E-02    6.67       1.0  T
   4    -21.7465461 -0.279727E-05  0.144E-02    6.67       2.0  T
   5    -21.7465465 -0.452372E-06  0.636E-03    6.67       4.5  T
   6    -21.7465466 -0.482695E-07  0.146E-03    6.67      19.7  T
   7    -21.7465466 -0.656662E-08  0.812E-04    6.67      35.5  T
     SCC iter.                  ...        0 min,  0.002 sec
     gradient                   ...        0 min,  0.091 sec
 * total energy  :   -21.5964063 Eh     change       -0.6100251E-03 Eh
   gradient norm :     0.0054664 Eh/α   predicted    -0.8940792E-03 (  46.56%)
   displ. norm   :     0.0425090 α      lambda       -0.5209920E-04
   maximum displ.:     0.0267238 α      in ANC's #2, #3, #11, ...

........................................................................
.............................. CYCLE   14 ..............................
........................................................................
   1    -21.7462455 -0.217462E+02  0.822E-02    6.67       0.0  T
   2    -21.7462462 -0.690452E-06  0.510E-02    6.67       1.0  T
   3    -21.7462465 -0.326623E-06  0.331E-03    6.67       8.7  T
   4    -21.7462465 -0.225513E-07  0.173E-03    6.67      16.7  T
   5    -21.7462465 -0.268012E-08  0.656E-04    6.67      44.0  T
     SCC iter.                  ...        0 min,  0.002 sec
     gradient                   ...        0 min,  0.001 sec
 * total energy  :   -21.5964535 Eh     change       -0.4716518E-04 Eh
   gradient norm :     0.0030049 Eh/α   predicted    -0.2609719E-04 ( -44.67%)
   displ. norm   :     0.3805004 α      lambda       -0.3288742E-03
   maximum displ.:     0.2443514 α      in ANC's #2, #3, #24, ...

........................................................................
.............................. CYCLE   15 ..............................
........................................................................
   1    -21.7397534 -0.217398E+02  0.702E-01    6.66       0.0  T
   2    -21.7398227 -0.692312E-04  0.435E-01    6.67       1.0  T
   3    -21.7398472 -0.245560E-04  0.381E-02    6.67       1.0  T
   4    -21.7398529 -0.572411E-05  0.173E-02    6.67       1.7  T
   5    -21.7398534 -0.405032E-06  0.733E-03    6.67       3.9  T
   6    -21.7398534 -0.778795E-07  0.243E-03    6.67      11.9  T
   7    -21.7398534 -0.179491E-07  0.130E-03    6.67      22.1  T
   8    -21.7398535 -0.632158E-08  0.549E-04    6.67      52.6  T
   9    -21.7398535 -0.135395E-08  0.156E-04    6.67     184.9  T
     SCC iter.                  ...        0 min,  0.003 sec
     gradient                   ...        0 min,  0.091 sec
 * total energy  :   -21.5955976 Eh     change        0.8558152E-03 Eh
   gradient norm :     0.0428013 Eh/α   predicted    -0.1882445E-03 (-122.00%)
   displ. norm   :     0.2891673 α      lambda       -0.2862719E-02
   maximum displ.:     0.1742171 α      in ANC's #2, #3, #24, ...

........................................................................
.............................. CYCLE   16 ..............................
........................................................................
   1    -21.7461930 -0.217462E+02  0.563E-01    6.68       0.0  T
   2    -21.7462637 -0.706739E-04  0.347E-01    6.68       1.0  T
   3    -21.7462836 -0.199402E-04  0.406E-02    6.67       1.0  T
   4    -21.7462886 -0.499549E-05  0.176E-02    6.67       1.6  T
   5    -21.7462893 -0.627351E-06  0.755E-03    6.67       3.8  T
   6    -21.7462893 -0.679033E-07  0.235E-03    6.67      12.3  T
   7    -21.7462894 -0.153361E-07  0.110E-03    6.67      26.3  T
     SCC iter.                  ...        0 min,  0.002 sec
     gradient                   ...        0 min,  0.002 sec
 * total energy  :   -21.5965223 Eh     change       -0.9246811E-03 Eh
   gradient norm :     0.0020115 Eh/α   predicted    -0.1551056E-02 (  67.74%)
   displ. norm   :     0.0251195 α      lambda       -0.2877110E-04
   maximum displ.:     0.0116583 α      in ANC's #2, #11, #24, ...

........................................................................
.............................. CYCLE   17 ..............................
........................................................................
   1    -21.7460792 -0.217461E+02  0.577E-02    6.67       0.0  T
   2    -21.7460795 -0.355770E-06  0.359E-02    6.67       1.0  T
   3    -21.7460797 -0.152242E-06  0.221E-03    6.67      13.1  T
   4    -21.7460797 -0.163163E-07  0.109E-03    6.67      26.5  T
   5    -21.7460797 -0.783743E-09  0.431E-04    6.67      66.9  T
   6    -21.7460797 -0.267651E-09  0.123E-04    6.67     234.5  T
     SCC iter.                  ...        0 min,  0.002 sec
     gradient                   ...        0 min,  0.093 sec
 * total energy  :   -21.5965491 Eh     change       -0.2677972E-04 Eh
   gradient norm :     0.0021101 Eh/α   predicted    -0.1439306E-04 ( -46.25%)
   displ. norm   :     0.2720608 α      lambda       -0.2545561E-03
   maximum displ.:     0.1586798 α      in ANC's #2, #24, #3, ...

........................................................................
.............................. CYCLE   18 ..............................
........................................................................
   1    -21.7418312 -0.217418E+02  0.556E-01    6.64       0.0  T
   2    -21.7418682 -0.369845E-04  0.345E-01    6.64       1.0  T
   3    -21.7418825 -0.143223E-04  0.269E-02    6.64       1.1  T
   4    -21.7418858 -0.327358E-05  0.125E-02    6.64       2.3  T
   5    -21.7418859 -0.154746E-06  0.492E-03    6.64       5.9  T
   6    -21.7418860 -0.425292E-07  0.176E-03    6.64      16.4  T
   7    -21.7418860 -0.961532E-08  0.101E-03    6.64      28.6  T
   8    -21.7418860 -0.413366E-08  0.343E-04    6.64      84.2  T
   9    -21.7418860 -0.507445E-09  0.113E-04    6.64     254.4  T
     SCC iter.                  ...        0 min,  0.003 sec
     gradient                   ...        0 min,  0.001 sec
 * total energy  :   -21.5962832 Eh     change        0.2659341E-03 Eh
   gradient norm :     0.0310565 Eh/α   predicted    -0.1366962E-03 (-151.40%)
   displ. norm   :     0.2050707 α      lambda       -0.1151111E-02
   maximum displ.:     0.1168050 α      in ANC's #2, #3, #24, ...

........................................................................
.............................. CYCLE   19 ..............................
........................................................................
   1    -21.7459003 -0.217459E+02  0.426E-01    6.66       0.0  T
   2    -21.7459307 -0.304621E-04  0.264E-01    6.66       1.0  T
   3    -21.7459404 -0.972519E-05  0.259E-02    6.66       1.1  T
   4    -21.7459429 -0.244973E-05  0.117E-02    6.66       2.5  T
   5    -21.7459431 -0.221604E-06  0.476E-03    6.66       6.1  T
   6    -21.7459431 -0.306462E-07  0.173E-03    6.66      16.7  T
     SCC iter.                  ...        0 min,  0.092 sec
     gradient                   ...        0 min,  0.002 sec
 * total energy  :   -21.5966160 Eh     change       -0.3328293E-03 Eh
   gradient norm :     0.0031043 Eh/α   predicted    -0.5997573E-03 (  80.20%)
   displ. norm   :     0.0394514 α      lambda       -0.4056744E-04
   maximum displ.:     0.0245688 α      in ANC's #2, #24, #11, ...

........................................................................
.............................. CYCLE   20 ..............................
........................................................................
   1    -21.7458414 -0.217458E+02  0.797E-02    6.66       0.0  T
   2    -21.7458420 -0.660130E-06  0.494E-02    6.66       1.0  T
   3    -21.7458423 -0.259388E-06  0.343E-03    6.66       8.4  T
   4    -21.7458423 -0.403068E-07  0.169E-03    6.66      17.1  T
   5    -21.7458423 -0.205431E-08  0.680E-04    6.66      42.5  T
   6    -21.7458423 -0.746759E-09  0.201E-04    6.66     143.3  T
     SCC iter.                  ...        0 min,  0.002 sec
     gradient                   ...        0 min,  0.001 sec
 * total energy  :   -21.5966560 Eh     change       -0.4001773E-04 Eh
   gradient norm :     0.0044275 Eh/α   predicted    -0.2031572E-04 ( -49.23%)
   displ. norm   :     0.7604545 α      lambda       -0.7849174E-03
   maximum displ.:     0.4808709 α      in ANC's #2, #24, #1, ...
 * RMSD in coord.:     0.5460126 α      energy gain  -0.1375895E-01 Eh

generating ANC from model Hessian ...
Using Lindh-Hessian (1995)
 Shifting diagonal of input Hessian by   0.000000000000000E+000
 Lowest  eigenvalues of input Hessian
   -0.000000   -0.000000   -0.000000    0.000000    0.000000    0.000000
    0.010465    0.013445    0.035828    0.041527    0.047188    0.050983
    0.060525    0.065028    0.070117    0.076499    0.103527    0.128783
 Highest eigenvalues
    1.174243    1.234642    1.289353    1.329704    1.442965    1.560176
 

........................................................................
.............................. CYCLE   21 ..............................
........................................................................
   1    -21.7220025 -0.217220E+02  0.127E+00    6.59       0.0  T
   2    -21.7224099 -0.407386E-03  0.772E-01    6.60       1.0  T
   3    -21.7224986 -0.887065E-04  0.112E-01    6.60       1.0  T
   4    -21.7225437 -0.451204E-04  0.403E-02    6.60       1.0  T
   5    -21.7225467 -0.297216E-05  0.187E-02    6.60       1.5  T
   6    -21.7225472 -0.517665E-06  0.497E-03    6.60       5.8  T
   7    -21.7225473 -0.722806E-07  0.290E-03    6.60      10.0  T
   8    -21.7225473 -0.315757E-07  0.105E-03    6.60      27.4  T
   9    -21.7225473 -0.485306E-08  0.348E-04    6.60      82.8  T
  10    -21.7225473 -0.292310E-09  0.154E-04    6.60     186.9  T
     SCC iter.                  ...        0 min,  0.004 sec
     gradient                   ...        0 min,  0.001 sec
 * total energy  :   -21.5859423 Eh     change        0.1071373E-01 Eh
   gradient norm :     0.1094417 Eh/α   predicted     0.0000000E+00 (-100.00%)
   displ. norm   :     0.1890300 α      lambda       -0.1453730E-01
   maximum displ.:     0.1054617 α      in ANC's #2, #22, #21, ...

........................................................................
.............................. CYCLE   22 ..............................
........................................................................
   1    -21.7400719 -0.217401E+02  0.348E-01    6.61       0.0  T
   2    -21.7402894 -0.217487E-03  0.192E-01    6.61       1.0  T
   3    -21.7403290 -0.396163E-04  0.755E-02    6.61       1.0  T
   4    -21.7403348 -0.579783E-05  0.271E-02    6.61       1.1  T
   5    -21.7403361 -0.123851E-05  0.123E-02    6.61       2.4  T
   6    -21.7403362 -0.819894E-07  0.316E-03    6.61       9.1  T
   7    -21.7403362 -0.162448E-07  0.921E-04    6.61      31.3  T
     SCC iter.                  ...        0 min,  0.093 sec
     gradient                   ...        0 min,  0.001 sec
 * total energy  :   -21.5969379 Eh     change       -0.1099559E-01 Eh
   gradient norm :     0.0536500 Eh/α   predicted    -0.7528379E-02 ( -31.53%)
   displ. norm   :     0.1690535 α      lambda       -0.7162250E-02
   maximum displ.:     0.1052627 α      in ANC's #22, #8, #21, ...

........................................................................
.............................. CYCLE   23 ..............................
........................................................................
   1    -21.7559946 -0.217560E+02  0.284E-01    6.63       0.0  T
   2    -21.7561279 -0.133294E-03  0.155E-01    6.62       1.0  T
   3    -21.7561589 -0.309640E-04  0.570E-02    6.62       1.0  T
   4    -21.7561623 -0.343415E-05  0.226E-02    6.62       1.3  T
   5    -21.7561632 -0.873093E-06  0.943E-03    6.62       3.1  T
   6    -21.7561632 -0.436375E-07  0.221E-03    6.62      13.1  T
   7    -21.7561632 -0.846807E-08  0.712E-04    6.62      40.5  T
     SCC iter.                  ...        0 min,  0.002 sec
     gradient                   ...        0 min,  0.001 sec
 * total energy  :   -21.5976136 Eh     change       -0.6757230E-03 Eh
   gradient norm :     0.0622579 Eh/α   predicted    -0.3683471E-02 ( 445.12%)
   displ. norm   :     0.2368250 α      lambda       -0.5218840E-02
   maximum displ.:     0.2082208 α      in ANC's #2, #1, #4, ...

........................................................................
.............................. CYCLE   24 ..............................
........................................................................
   1    -21.7476054 -0.217476E+02  0.370E-01    6.63       0.0  T
   2    -21.7476865 -0.811189E-04  0.221E-01    6.63       1.0  T
   3    -21.7477028 -0.163576E-04  0.479E-02    6.64       1.0  T
   4    -21.7477068 -0.398535E-05  0.177E-02    6.63       1.6  T
   5    -21.7477076 -0.811375E-06  0.808E-03    6.63       3.6  T
   6    -21.7477077 -0.709433E-07  0.197E-03    6.63      14.7  T
   7    -21.7477077 -0.986607E-08  0.893E-04    6.63      32.3  T
     SCC iter.                  ...        0 min,  0.003 sec
     gradient                   ...        0 min,  0.001 sec
 * total energy  :   -21.6000954 Eh     change       -0.2481804E-02 Eh
   gradient norm :     0.0211116 Eh/α   predicted    -0.2755769E-02 (  11.04%)
   displ. norm   :     0.1540831 α      lambda       -0.7404279E-03
   maximum displ.:     0.1323569 α      in ANC's #2, #1, #4, ...

........................................................................
.............................. CYCLE   25 ..............................
........................................................................
   1    -21.7472637 -0.217473E+02  0.239E-01    6.64       0.0  T
   2    -21.7472728 -0.905335E-05  0.147E-01    6.64       1.0  T
   3    -21.7472757 -0.295320E-05  0.135E-02    6.64       2.1  T
   4    -21.7472764 -0.684868E-06  0.619E-03    6.64       4.7  T
   5    -21.7472765 -0.534922E-07  0.283E-03    6.64      10.2  T
   6    -21.7472765 -0.133380E-07  0.962E-04    6.64      30.0  T
     SCC iter.                  ...        0 min,  0.002 sec
     gradient                   ...        0 min,  0.001 sec
 * total energy  :   -21.6006757 Eh     change       -0.5802938E-03 Eh
   gradient norm :     0.0274000 Eh/α   predicted    -0.3790044E-03 ( -34.69%)
   displ. norm   :     0.2685592 α      lambda       -0.2084683E-02
   maximum displ.:     0.1929998 α      in ANC's #2, #22, #1, ...

........................................................................
.............................. CYCLE   26 ..............................
........................................................................
   1    -21.7491767 -0.217492E+02  0.463E-01    6.65       0.0  T
   2    -21.7492023 -0.255623E-04  0.286E-01    6.65       1.0  T
   3    -21.7492129 -0.106825E-04  0.211E-02    6.65       1.4  T
   4    -21.7492143 -0.134954E-05  0.110E-02    6.64       2.6  T
   5    -21.7492144 -0.948597E-07  0.322E-03    6.64       9.0  T
   6    -21.7492144 -0.176718E-07  0.132E-03    6.64      21.9  T
     SCC iter.                  ...        0 min,  0.002 sec
     gradient                   ...        0 min,  0.002 sec
 * total energy  :   -21.6020792 Eh     change       -0.1403510E-02 Eh
   gradient norm :     0.0241798 Eh/α   predicted    -0.1117521E-02 ( -20.38%)
   displ. norm   :     0.1322575 α      lambda       -0.1427719E-02
   maximum displ.:     0.0688546 α      in ANC's #22, #2, #4, ...

........................................................................
.............................. CYCLE   27 ..............................
........................................................................
   1    -21.7536893 -0.217537E+02  0.255E-01    6.65       0.0  T
   2    -21.7537035 -0.141970E-04  0.156E-01    6.64       1.0  T
   3    -21.7537085 -0.499393E-05  0.173E-02    6.64       1.7  T
   4    -21.7537091 -0.569678E-06  0.794E-03    6.64       3.6  T
   5    -21.7537091 -0.824643E-07  0.288E-03    6.64      10.0  T
   6    -21.7537091 -0.658127E-08  0.698E-04    6.64      41.3  T
     SCC iter.                  ...        0 min,  0.002 sec
     gradient                   ...        0 min,  0.092 sec
 * total energy  :   -21.6029129 Eh     change       -0.8336454E-03 Eh
   gradient norm :     0.0096468 Eh/α   predicted    -0.7263470E-03 ( -12.87%)
   displ. norm   :     0.4437267 α      lambda       -0.2015963E-02
   maximum displ.:     0.3115433 α      in ANC's #2, #4, #22, ...

........................................................................
.............................. CYCLE   28 ..............................
........................................................................
   1    -21.7437058 -0.217437E+02  0.856E-01    6.63       0.0  T
   2    -21.7438441 -0.138218E-03  0.524E-01    6.64       1.0  T
   3    -21.7438831 -0.390658E-04  0.525E-02    6.64       1.0  T
   4    -21.7438901 -0.702303E-05  0.231E-02    6.63       1.2  T
   5    -21.7438912 -0.105326E-05  0.116E-02    6.63       2.5  T
   6    -21.7438913 -0.144309E-06  0.254E-03    6.63      11.4  T
   7    -21.7438914 -0.174641E-07  0.134E-03    6.63      21.5  T
     SCC iter.                  ...        0 min,  0.002 sec
     gradient                   ...        0 min,  0.001 sec
 * total energy  :   -21.6013222 Eh     change        0.1590639E-02 Eh
   gradient norm :     0.0618062 Eh/α   predicted    -0.1206456E-02 (-175.85%)
   displ. norm   :     0.2680692 α      lambda       -0.6155645E-02
   maximum displ.:     0.1854072 α      in ANC's #2, #4, #22, ...

........................................................................
.............................. CYCLE   29 ..............................
........................................................................
   1    -21.7532801 -0.217533E+02  0.546E-01    6.64       0.0  T
   2    -21.7534186 -0.138509E-03  0.330E-01    6.63       1.0  T
   3    -21.7534473 -0.286336E-04  0.586E-02    6.63       1.0  T
   4    -21.7534533 -0.602175E-05  0.217E-02    6.63       1.3  T
   5    -21.7534545 -0.119947E-05  0.104E-02    6.63       2.8  T
   6    -21.7534546 -0.840958E-07  0.230E-03    6.63      12.5  T
   7    -21.7534546 -0.107441E-07  0.950E-04    6.63      30.4  T
     SCC iter.                  ...        0 min,  0.092 sec
     gradient                   ...        0 min,  0.001 sec
 * total energy  :   -21.6035677 Eh     change       -0.2245474E-02 Eh
   gradient norm :     0.0076881 Eh/α   predicted    -0.3298999E-02 (  46.92%)
   displ. norm   :     0.0659568 α      lambda       -0.2364271E-03
   maximum displ.:     0.0307079 α      in ANC's #4, #1, #22, ...

........................................................................
.............................. CYCLE   30 ..............................
........................................................................
   1    -21.7533906 -0.217534E+02  0.128E-01    6.63       0.0  T
   2    -21.7533918 -0.124260E-05  0.789E-02    6.63       1.0  T
   3    -21.7533924 -0.564205E-06  0.485E-03    6.63       6.0  T
   4    -21.7533925 -0.101373E-06  0.250E-03    6.63      11.5  T
   5    -21.7533925 -0.250394E-08  0.444E-04    6.63      65.1  T
     SCC iter.                  ...        0 min,  0.002 sec
     gradient                   ...        0 min,  0.001 sec
 * total energy  :   -21.6037763 Eh     change       -0.2086353E-03 Eh
   gradient norm :     0.0063414 Eh/α   predicted    -0.1187296E-03 ( -43.09%)
   displ. norm   :     0.2890397 α      lambda       -0.7534716E-03
   maximum displ.:     0.1465823 α      in ANC's #1, #2, #22, ...

........................................................................
.............................. CYCLE   31 ..............................
........................................................................
   1    -21.7501445 -0.217501E+02  0.532E-01    6.61       0.0  T
   2    -21.7501626 -0.181308E-04  0.327E-01    6.61       1.0  T
   3    -21.7501728 -0.101536E-04  0.185E-02    6.61       1.6  T
   4    -21.7501733 -0.496837E-06  0.107E-02    6.61       2.7  T
   5    -21.7501733 -0.873431E-07  0.212E-03    6.61      13.6  T
   6    -21.7501734 -0.101076E-07  0.100E-03    6.61      28.8  T
     SCC iter.                  ...        0 min,  0.092 sec
     gradient                   ...        0 min,  0.001 sec
 * total energy  :   -21.6038053 Eh     change       -0.2901586E-04 Eh
   gradient norm :     0.0273951 Eh/α   predicted    -0.4082078E-03 (1306.84%)
   displ. norm   :     0.1348136 α      lambda       -0.8416320E-03
   maximum displ.:     0.0747080 α      in ANC's #2, #1, #22, ...

........................................................................
.............................. CYCLE   32 ..............................
........................................................................
   1    -21.7536837 -0.217537E+02  0.254E-01    6.62       0.0  T
   2    -21.7536958 -0.120813E-04  0.155E-01    6.62       1.0  T
   3    -21.7536998 -0.399540E-05  0.160E-02    6.62       1.8  T
   4    -21.7537002 -0.437860E-06  0.717E-03    6.62       4.0  T
   5    -21.7537003 -0.824727E-07  0.336E-03    6.62       8.6  T
   6    -21.7537003 -0.111556E-07  0.756E-04    6.62      38.2  T
     SCC iter.                  ...        0 min,  0.002 sec
     gradient                   ...        0 min,  0.001 sec
 * total energy  :   -21.6041130 Eh     change       -0.3076160E-03 Eh
   gradient norm :     0.0037104 Eh/α   predicted    -0.4284641E-03 (  39.29%)
   displ. norm   :     0.0608441 α      lambda       -0.9408779E-04
   maximum displ.:     0.0399627 α      in ANC's #1, #22, #2, ...

........................................................................
.............................. CYCLE   33 ..............................
........................................................................
   1    -21.7536288 -0.217536E+02  0.999E-02    6.61       0.0  T
   2    -21.7536294 -0.579949E-06  0.612E-02    6.61       1.0  T
   3    -21.7536296 -0.259563E-06  0.331E-03    6.61       8.7  T
   4    -21.7536297 -0.193245E-07  0.171E-03    6.61      16.9  T
   5    -21.7536297 -0.245516E-08  0.578E-04    6.61      49.9  T
   6    -21.7536297 -0.378758E-09  0.123E-04    6.61     235.3  T
     SCC iter.                  ...        0 min,  0.095 sec
     gradient                   ...        0 min,  0.001 sec
 * total energy  :   -21.6041944 Eh     change       -0.8148666E-04 Eh
   gradient norm :     0.0040406 Eh/α   predicted    -0.4721823E-04 ( -42.05%)
   displ. norm   :     0.1788003 α      lambda       -0.2236019E-03
   maximum displ.:     0.1138505 α      in ANC's #1, #22, #2, ...

........................................................................
.............................. CYCLE   34 ..............................
........................................................................
   1    -21.7528811 -0.217529E+02  0.297E-01    6.59       0.0  T
   2    -21.7528858 -0.468489E-05  0.182E-01    6.59       1.0  T
   3    -21.7528883 -0.251895E-05  0.926E-03    6.59       3.1  T
   4    -21.7528884 -0.697619E-07  0.483E-03    6.59       6.0  T
   5    -21.7528884 -0.120095E-07  0.121E-03    6.59      23.8  T
   6    -21.7528884 -0.257993E-08  0.345E-04    6.59      83.6  T
     SCC iter.                  ...        0 min,  0.001 sec
     gradient                   ...        0 min,  0.001 sec
 * total energy  :   -21.6042978 Eh     change       -0.1033264E-03 Eh
   gradient norm :     0.0094032 Eh/α   predicted    -0.1153742E-03 (  11.66%)
   displ. norm   :     0.0160818 α      lambda       -0.7375288E-04
   maximum displ.:     0.0099737 α      in ANC's #4, #1, #2, ...

........................................................................
.............................. CYCLE   35 ..............................
........................................................................
   1    -21.7537852 -0.217538E+02  0.265E-02    6.59       0.0  T
   2    -21.7537859 -0.719242E-06  0.151E-02    6.59       1.9  T
   3    -21.7537860 -0.137064E-06  0.461E-03    6.59       6.3  T
   4    -21.7537861 -0.240461E-07  0.173E-03    6.59      16.7  T
   5    -21.7537861 -0.601439E-08  0.700E-04    6.59      41.2  T
     SCC iter.                  ...        0 min,  0.001 sec
     gradient                   ...        0 min,  0.001 sec
 * total energy  :   -21.6043437 Eh     change       -0.4595384E-04 Eh
   gradient norm :     0.0030406 Eh/α   predicted    -0.3688486E-04 ( -19.73%)
   displ. norm   :     0.0554095 α      lambda       -0.3357134E-04
   maximum displ.:     0.0401044 α      in ANC's #1, #22, #21, ...

........................................................................
.............................. CYCLE   36 ..............................
........................................................................
   1    -21.7540594 -0.217541E+02  0.849E-02    6.59       0.0  T
   2    -21.7540599 -0.451593E-06  0.519E-02    6.58       1.0  T
   3    -21.7540600 -0.182154E-06  0.283E-03    6.58      10.2  T
   4    -21.7540601 -0.136877E-07  0.140E-03    6.58      20.6  T
   5    -21.7540601 -0.161207E-08  0.514E-04    6.58      56.1  T
   6    -21.7540601 -0.186020E-09  0.106E-04    6.58     271.1  T
     SCC iter.                  ...        0 min,  0.001 sec
     gradient                   ...        0 min,  0.002 sec
 * total energy  :   -21.6043673 Eh     change       -0.2360721E-04 Eh
   gradient norm :     0.0015885 Eh/α   predicted    -0.1683719E-04 ( -28.68%)
   displ. norm   :     0.0796628 α      lambda       -0.1560407E-04
   maximum displ.:     0.0566277 α      in ANC's #1, #22, #21, ...

........................................................................
.............................. CYCLE   37 ..............................
........................................................................
   1    -21.7539019 -0.217539E+02  0.126E-01    6.59       0.0  T
   2    -21.7539027 -0.785988E-06  0.771E-02    6.59       1.0  T
   3    -21.7539031 -0.442923E-06  0.371E-03    6.59       7.8  T
   4    -21.7539031 -0.965345E-08  0.212E-03    6.59      13.6  T
   5    -21.7539031 -0.171460E-08  0.340E-04    6.59      84.9  T
   6    -21.7539031 -0.308610E-09  0.156E-04    6.59     184.7  T
     SCC iter.                  ...        0 min,  0.002 sec
     gradient                   ...        0 min,  0.001 sec
 * total energy  :   -21.6043763 Eh     change       -0.8923822E-05 Eh
   gradient norm :     0.0015010 Eh/α   predicted    -0.7823565E-05 ( -12.33%)
   displ. norm   :     0.0177773 α      lambda       -0.3536359E-05
   maximum displ.:     0.0127406 α      in ANC's #1, #2, #22, ...

........................................................................
.............................. CYCLE   38 ..............................
........................................................................
   1    -21.7542233 -0.217542E+02  0.262E-02    6.59       0.0  T
   2    -21.7542234 -0.651927E-07  0.160E-02    6.59       1.8  T
   3    -21.7542234 -0.336592E-07  0.129E-03    6.59      22.4  T
   4    -21.7542234 -0.143037E-08  0.630E-04    6.59      45.8  T
   5    -21.7542234 -0.395499E-09  0.179E-04    6.59     161.6  T
     SCC iter.                  ...        0 min,  0.002 sec
     gradient                   ...        0 min,  0.002 sec
 * total energy  :   -21.6043774 Eh     change       -0.1185040E-05 Eh
   gradient norm :     0.0009983 Eh/α   predicted    -0.1766394E-05 (  49.06%)
   displ. norm   :     0.0030587 α      lambda       -0.9545574E-06
   maximum displ.:     0.0017641 α      in ANC's #2, #3, #8, ...

   *** GEOMETRY OPTIMIZATION CONVERGED AFTER 38 ITERATIONS ***

------------------------------------------------------------------------
 total energy gain   :        -0.0214804 Eh      -13.4791 kcal/mol
 total RMSD          :         0.7549384 a0        0.3995 Å
 total power (kW/mol):        -1.4841237 (step)  -26.8864 (real)
------------------------------------------------------------------------

 ANCopt (total)                0 d,  0 h,  0 min,  2.098 sec
 optimizer setup                ...        0 min,  0.000 sec (  0.015%)
 model hessian                  ...        0 min,  0.184 sec (  8.786%)
 ANC generation                 ...        0 min,  0.001 sec (  0.037%)
 coordinate transformation      ...        0 min,  0.001 sec (  0.068%)
 single point calculation       ...        0 min,  1.806 sec ( 86.108%)
 optimization log               ...        0 min,  0.003 sec (  0.142%)
 hessian update                 ...        0 min,  0.093 sec (  4.438%)
 rational function              ...        0 min,  0.003 sec (  0.126%)

================
 final structure:
================
12
 xtb: 6.2.3 (830e466)
C         1.19475140555837    1.14083084396030   -2.82771982040560
C         0.13302321422880    0.97994087185821   -1.74140827092032
C         1.06143510450635    0.93786094576906   -0.52558126189424
O         2.28036065920523    0.35536234176004   -2.39390193750243
O         1.30603207658199    2.24732648982473   -0.10673321881967
O         2.22152587178406    0.29214745031673   -0.95799139072987
H         2.09100745174742    2.25703983849444    0.45185250453190
H         1.49116857518961    2.19464655338387   -2.91743432549919
H         0.89762443527381    0.74678875025670   -3.79959538048021
H         0.67077445095500    0.33262062634879    0.30801103062622
H        -0.40364262826762    0.03857674297784   -1.84238995334279
H        -0.55506061676303    1.81647854504930   -1.68289797556382
 
 Bond Distances (Angstroems)
 ---------------------------
C1-C2=1.5275         C1-O4=1.4084         C1-H8=1.0984         C1-H9=1.0900         C2-C1=1.5275         C2-C3=1.5303         
C2-H11=1.0883        C2-H12=1.0847        C3-C2=1.5303         C3-O5=1.3964         C3-O6=1.3963         C3-H10=1.1017        
O4-C1=1.4084         O4-O6=1.4385         O5-C3=1.3964         O5-H7=0.9635         O6-C3=1.3963         O6-O4=1.4385         
H7-O5=0.9635         H8-C1=1.0984         H9-C1=1.0900         H10-C3=1.1017        H11-C2=1.0883        H12-C2=1.0847        
 C  H  Rav=1.0926 sigma=0.0064  Rmin=1.0847  Rmax=1.1017     5
 C  C  Rav=1.5289 sigma=0.0014  Rmin=1.5275  Rmax=1.5303     2
 O  H  Rav=0.9635 sigma=0.0000  Rmin=0.9635  Rmax=0.9635     1
 O  C  Rav=1.4004 sigma=0.0057  Rmin=1.3963  Rmax=1.4084     3
 O  O  Rav=1.4385 sigma=0.0000  Rmin=1.4385  Rmax=1.4385     1
 
 selected bond angles (degree)
 --------------------
O4-C1-C2=104.95                H8-C1-C2=110.29                H8-C1-O4=110.62                H9-C1-C2=113.99                
H9-C1-O4=106.45                H9-C1-H8=110.34                C3-C2-C1= 98.41                H11-C2-C1=111.59               
H11-C2-C3=110.43               H12-C2-C1=113.46               H12-C2-C3=111.30               H12-C2-H11=111.06              
O5-C3-C2=108.59                O6-C3-C2=105.71                O6-C3-O5=112.40                H10-C3-C2=113.65               
H10-C3-O5=110.51               H10-C3-O6=105.95               O6-O4-C1=107.48                H7-O5-C3=109.03                
O4-O6-C3=108.83                
 
 selected dihedral angles (degree)
 ---------------------------------
C3-C2-C1-O4= 36.79            C3-C2-C1-H8=277.63            C3-C2-C1-H9=152.87            H11-C2-C1-O4=280.82           
H11-C2-C1-H8=161.65           H11-C2-C1-H9= 36.89           H12-C2-C1-O4=154.46           H12-C2-C1-H8= 35.29           
H12-C2-C1-H9=270.54           O5-C3-C2-C1= 86.71            O5-C3-C2-H11=203.58           O5-C3-C2-H12=327.40           
O6-C3-C2-C1=325.90            O6-C3-C2-H11= 82.77           O6-C3-C2-H12=206.60           H10-C3-C2-C1=210.13           
H10-C3-C2-H11=326.99          H10-C3-C2-H12= 90.82          O6-O4-C1-C2=332.91            O6-O4-C1-H8= 91.86            
O6-O4-C1-H9=211.74            H7-O5-C3-C2=198.31            H7-O5-C3-O6=314.90            H7-O5-C3-H10= 73.03           
O4-O6-C3-C2= 19.88            O4-O6-C3-O5=261.59            O4-O6-C3-H10=140.80           C3-O6-O4-C1=  4.58            
           -------------------------------------------------
          |                Final Singlepoint                |
           -------------------------------------------------

          ...................................................
          :                      SETUP                      :
          :.................................................:
          :  # basis functions                  30          :
          :  # atomic orbitals                  30          :
          :  # shells                           18          :
          :  # electrons                        36          :
          :  max. iterations                   100          :
          :  Hamiltonian                  GFN2-xTB          :
          :  restarted?                      false          :
          :  GBSA solvation                  false          :
          :  PC potential                    false          :
          :  electronic temp.          300.0000000     K    :
          :  accuracy                    1.0000000          :
          :  -> integral cutoff          0.2500000E+02      :
          :  -> integral neglect         0.1000000E-07      :
          :  -> SCF convergence          0.1000000E-05 Eh   :
          :  -> wf. convergence          0.1000000E-03 e    :
          :  Broyden damping             0.4000000          :
          ...................................................

 iter      E             dE          RMSdq      gap      omega  full diag
   1    -21.7542234 -0.217542E+02  0.299E-05    6.59       0.0  T
   2    -21.7542234 -0.289191E-11  0.164E-05    6.59    1758.5  T
   3    -21.7542234 -0.483169E-12  0.978E-06    6.59    2951.3  T

   *** convergence criteria satisfied after 3 iterations ***

         #    Occupation            Energy/Eh            Energy/eV
      -------------------------------------------------------------
         1        2.0000           -0.7402157             -20.1423
       ...           ...                  ...                  ...
        12        2.0000           -0.5296637             -14.4129
        13        2.0000           -0.5102566             -13.8848
        14        2.0000           -0.4902699             -13.3409
        15        2.0000           -0.4853768             -13.2078
        16        2.0000           -0.4707352             -12.8094
        17        2.0000           -0.4451953             -12.1144
        18        2.0000           -0.4103891             -11.1673 (HOMO)
        19                         -0.1680594              -4.5731 (LUMO)
        20                          0.0159522               0.4341
        21                          0.0483141               1.3147
        22                          0.0667714               1.8169
        23                          0.0924335               2.5152
       ...                                ...                  ...
        30                          0.2870416               7.8108
      -------------------------------------------------------------
                  HL-Gap            0.2423297 Eh            6.5941 eV
             Fermi-level           -0.2892242 Eh           -7.8702 eV

 SCC (total)                   0 d,  0 h,  0 min,  0.093 sec
 SCC setup                      ...        0 min,  0.000 sec (  0.224%)
 Dispersion                     ...        0 min,  0.000 sec (  0.048%)
 integral evaluation            ...        0 min,  0.090 sec ( 96.507%)
 zeroth order Hamiltonian       ...        0 min,  0.000 sec (  0.079%)
 iterations                     ...        0 min,  0.001 sec (  1.019%)
 molecular gradient             ...        0 min,  0.002 sec (  1.676%)
 printout                       ...        0 min,  0.000 sec (  0.210%)

         :::::::::::::::::::::::::::::::::::::::::::::::::::::
         ::                     SUMMARY                     ::
         :::::::::::::::::::::::::::::::::::::::::::::::::::::
         :: total energy             -21.604377437714 Eh    ::
         :: gradient norm              0.001003724435 Eh/a0 ::
         :: HOMO-LUMO gap              6.594125467754 eV    ::
         ::.................................................::
         :: SCC energy               -21.754223412499 Eh    ::
         :: -> isotropic ES            0.050352044133 Eh    ::
         :: -> anisotropic ES         -0.002877159509 Eh    ::
         :: -> anisotropic XC         -0.007272571241 Eh    ::
         :: -> dispersion             -0.006232070723 Eh    ::
         :: repulsion energy           0.149841586692 Eh    ::
         :: add. restraining           0.000000000000 Eh    ::
         :::::::::::::::::::::::::::::::::::::::::::::::::::::

           -------------------------------------------------
          |                Property Printout                |
           -------------------------------------------------

    * Orbital Energies and Occupations

         #    Occupation            Energy/Eh            Energy/eV
      -------------------------------------------------------------
         1        2.0000           -0.7402157             -20.1423
       ...           ...                  ...                  ...
         6        2.0000           -0.6320137             -17.1980
         7        2.0000           -0.6080617             -16.5462
         8        2.0000           -0.5949964             -16.1907
         9        2.0000           -0.5668435             -15.4246
        10        2.0000           -0.5566179             -15.1463
        11        2.0000           -0.5499615             -14.9652
        12        2.0000           -0.5296637             -14.4129
        13        2.0000           -0.5102566             -13.8848
        14        2.0000           -0.4902699             -13.3409
        15        2.0000           -0.4853768             -13.2078
        16        2.0000           -0.4707352             -12.8094
        17        2.0000           -0.4451953             -12.1144
        18        2.0000           -0.4103891             -11.1673 (HOMO)
        19                         -0.1680594              -4.5731 (LUMO)
        20                          0.0159522               0.4341
        21                          0.0483141               1.3147
        22                          0.0667714               1.8169
        23                          0.0924335               2.5152
        24                          0.1252302               3.4077
        25                          0.1282486               3.4898
        26                          0.1443797               3.9288
        27                          0.1734383               4.7195
        28                          0.2167807               5.8989
        29                          0.2275182               6.1911
        30                          0.2870416               7.8108
      -------------------------------------------------------------
                  HL-Gap            0.2423297 Eh            6.5941 eV
             Fermi-level           -0.2892242 Eh           -7.8702 eV

     #   Z        covCN         q      C6AA      α(0)
     1   6 C      3.723     0.083    19.296     6.273
     2   6 C      3.804    -0.072    21.865     6.657
     3   6 C      3.650     0.260    16.887     5.903
     4   8 O      1.774    -0.194    17.229     5.605
     5   8 O      1.657    -0.445    21.741     6.294
     6   8 O      1.775    -0.229    17.787     5.695
     7   1 H      0.805     0.312     0.686     1.301
     8   1 H      0.923     0.053     2.280     2.361
     9   1 H      0.925     0.067     2.118     2.276
    10   1 H      0.923     0.033     2.545     2.495
    11   1 H      0.925     0.059     2.207     2.323
    12   1 H      0.925     0.072     2.064     2.247

 Mol. C6AA /au·bohr⁶  :       1185.286308
 Mol. C8AA /au·bohr⁸  :      24947.546511
 Mol. α(0) /au        :         49.430446


Wiberg/Mayer (AO) data.
largest (>0.10) Wiberg bond orders for each atom
          total WBO             WBO to atom ...
     1  C   3.944        C    2 0.996    O    4 0.991    H    8 0.968    H    9 0.960
     2  C   3.992        C    1 0.996    H   11 0.977    C    3 0.977    H   12 0.975
     3  C   3.929        O    5 0.996    O    6 0.986    C    2 0.977    H   10 0.940
     4  O   2.021        C    1 0.991    O    6 0.935
     5  O   1.972        C    3 0.996    H    7 0.884
     6  O   2.047        C    3 0.986    O    4 0.935
     7  H   0.903        O    5 0.884
     8  H   0.997        C    1 0.968
     9  H   0.996        C    1 0.960
    10  H   0.999        C    3 0.940
    11  H   0.996        C    2 0.977
    12  H   0.995        C    2 0.975

molecular dipole:
                 x           y           z       tot (Debye)
 q only:       -0.788       0.280      -0.010
   full:       -0.798       0.252       0.120       2.150
molecular quadrupole (traceless):
                xx          xy          yy          xz          yz          zz
 q only:       -5.359       2.017       0.040       6.173      -1.998       5.319
  q+dip:       -5.586       4.126       0.389       7.563      -2.067       5.197
   full:       -5.481       3.561      -0.230       7.686      -1.973       5.711

           -------------------------------------------------
          |                Geometry Summary                 |
           -------------------------------------------------

      molecular mass/u    :       90.0780670
   center of mass at/Å    :        1.3970611       1.0046496      -1.3997295
  moments of inertia/u·Å² :        0.8351253E+02   0.1335755E+03   0.1698365E+03
rotational constants/cm⁻¹ :        0.2018575E+00   0.1262030E+00   0.9925799E-01

 * 12 selected distances

     #   Z        #   Z                                     value/Å
     1   6 C      2   6 C                                 1.5274898
     2   6 C      3   6 C                                 1.5303446 (max)
     1   6 C      4   8 O                                 1.4084410
     3   6 C      5   8 O                                 1.3964102
     3   6 C      6   8 O                                 1.3963291
     4   8 O      6   8 O                                 1.4385050
     5   8 O      7   1 H                                 0.9634826 (min)
     1   6 C      8   1 H                                 1.0983803
     1   6 C      9   1 H                                 1.0899980
     3   6 C     10   1 H                                 1.1017294
     2   6 C     11   1 H                                 1.0882895
     2   6 C     12   1 H                                 1.0847479

 * 5 distinct bonds (by element types)

   Z      Z             #   av. dist./Å        max./Å        min./Å
   1 H    6 C           5     1.0926290     1.1017294     1.0847479
   6 C    6 C           2     1.5289172     1.5303446     1.5274898
   1 H    8 O           1     0.9634826     0.9634826     0.9634826
   6 C    8 O           3     1.4003934     1.4084410     1.3963291
   8 O    8 O           1     1.4385050     1.4385050     1.4385050


optimized geometry written to: xtbopt.xyz


           -------------------------------------------------
          | TOTAL ENERGY              -21.604377437714 Eh   |
          | GRADIENT NORM               0.001003724435 Eh/α |
          | HOMO-LUMO GAP               6.594125467754 eV   |
           -------------------------------------------------

------------------------------------------------------------------------
 * finished run on 2020/12/23 at 21:42:26.259     
------------------------------------------------------------------------
 total:
 * wall-time:     0 d,  0 h,  0 min,  2.600 sec
 *  cpu-time:     0 d,  0 h,  0 min, 10.444 sec
 * ratio c/w:     4.016 speedup
 SCF:
 * wall-time:     0 d,  0 h,  0 min,  0.007 sec
 *  cpu-time:     0 d,  0 h,  0 min,  0.206 sec
 * ratio c/w:    28.810 speedup
 ANC optimizer:
 * wall-time:     0 d,  0 h,  0 min,  2.194 sec
 *  cpu-time:     0 d,  0 h,  0 min,  8.647 sec
 * ratio c/w:     3.940 speedup

