12
 energy: -21.562373398140 gnorm: 0.128100603406 xtb: 6.2.3 (830e466)
C         1.59667000000000    1.38682000000000   -2.32448000000000
C         0.15816000000000   -0.18349000000000   -0.81231000000000
C         1.46150000000000    0.48632000000000   -1.12699000000000
O         0.67747000000000    2.44909000000000   -2.25388000000000
O         1.15399000000000    3.30192000000000   -1.36467000000000
O         2.42441000000000    0.29685000000000   -0.40016000000000
H         1.41242000000000    4.10037000000000   -1.89232000000000
H         2.63851000000000    1.76894000000000   -2.43385000000000
H         1.37975000000000    0.79623000000000   -3.23913000000000
H         0.29323000000000   -1.28520000000000   -0.81876000000000
H        -0.61660000000000    0.08525000000000   -1.56121000000000
H        -0.19050000000000    0.13649000000000    0.19195000000000
12
 energy: -21.572734753174 gnorm: 0.046130339069 xtb: 6.2.3 (830e466)
C         1.59336604037545    1.35876197604280   -2.33015372252937
C         0.15957543658170   -0.16761247972663   -0.82780847367529
C         1.49165990598055    0.46415595980458   -1.10916029830137
O         0.67412225819977    2.43009100130047   -2.28298338828299
O         1.11119910084307    3.34827693653447   -1.35349149450480
O         2.45086207143475    0.27385179342946   -0.39604694437184
H         1.41725210401665    4.12074161457875   -1.87328742398988
H         2.62340604300453    1.74619449565805   -2.41444147563579
H         1.36169688574639    0.78212723892858   -3.23844220259395
H         0.28620830196130   -1.25307530678375   -0.81510049859688
H        -0.60415633023537    0.10221404180086   -1.56205478510116
H        -0.17618181790880    0.13386272843235    0.16716070758332
12
 energy: -21.574874043162 gnorm: 0.006804766959 xtb: 6.2.3 (830e466)
C         1.61072952263607    1.34336363272915   -2.32986005991233
C         0.16127378879439   -0.15005101945840   -0.83006840141324
C         1.51568415714717    0.44697886713137   -1.09498877561466
O         0.67799693903671    2.40492140180844   -2.30897159459936
O         1.05790277917167    3.36312322607463   -1.34422588911262
O         2.47614164239722    0.23632501774405   -0.40352912267832
H         1.38351673211538    4.12115138576216   -1.85582517241008
H         2.63375007414049    1.73165100083615   -2.41645229895184
H         1.35275401800563    0.77432671242586   -3.22718583245302
H         0.26137702552711   -1.23339150319650   -0.82253340937437
H        -0.57601866646250    0.15383241041159   -1.56479819822450
H        -0.16609801250935    0.14735886773149    0.16262875474433
12
 energy: -21.575242032463 gnorm: 0.008225416428 xtb: 6.2.3 (830e466)
C         1.62509285618664    1.33727990036855   -2.33105544088529
C         0.16412892312285   -0.13231417094760   -0.82796489060791
C         1.53125086039770    0.43627154976824   -1.09427775043651
O         0.67907959014036    2.38606145491433   -2.32518364262165
O         1.01633449774740    3.35111142830460   -1.33644468143500
O         2.49601418741076    0.20912653344769   -0.41461766645814
H         1.34883846260527    4.11020114477492   -1.83767026601301
H         2.64599067741822    1.72886131985620   -2.41852310945981
H         1.36363811411316    0.76415554745694   -3.22365004743054
H         0.23703447316060   -1.21912758341631   -0.82915995595969
H        -0.56125351730724    0.19915655198997   -1.56363317605352
H        -0.15713912499571    0.16880632348247    0.16637062736108
12
 energy: -21.575512211036 gnorm: 0.010427725545 xtb: 6.2.3 (830e466)
C         1.63833754542961    1.33377714955066   -2.33118382155145
C         0.16723827236312   -0.11319815517117   -0.82472122330433
C         1.54270840063410    0.43054008200390   -1.09355211041467
O         0.68051642125268    2.36913780466376   -2.34019020670012
O         0.97789960382289    3.33242164844360   -1.33195191398122
O         2.51359771964019    0.17987577183123   -0.42948795829198
H         1.31255786080442    4.09684890686542   -1.82207096921615
H         2.65763440510168    1.72988760554313   -2.41829927180337
H         1.38225024883880    0.75133983467363   -3.21992927116771
H         0.21351057013840   -1.20247602489679   -0.84029173085164
H        -0.55008159429975    0.24530422344347   -1.55750110838060
H        -0.14715945372615    0.18613115304914    0.17336958566326
12
 energy: -21.575847649126 gnorm: 0.009972313725 xtb: 6.2.3 (830e466)
C         1.65465345726131    1.33086020233427   -2.33174357968218
C         0.16995290844673   -0.08798916186798   -0.81976211531874
C         1.55481113161112    0.42133951959034   -1.09792766984507
O         0.68306573564837    2.34912450951665   -2.35852072543450
O         0.93355783376545    3.30298045297131   -1.32960687570498
O         2.53074426219528    0.14183922882333   -0.45176724288354
H         1.26405461753902    4.07958615619924   -1.80302395703646
H         2.67149407491357    1.73599255124484   -2.41287818591459
H         1.41597886581368    0.73642893636884   -3.21893072874112
H         0.18429577296905   -1.17860715695299   -0.85310359091108
H        -0.54224088220054    0.30138030277928   -1.54324100880152
H        -0.13135777796305    0.20665445899284    0.18469568027379
12
 energy: -21.576261433291 gnorm: 0.009337682702 xtb: 6.2.3 (830e466)
C         1.67696273467841    1.32642609388685   -2.33540679931275
C         0.17135851996443   -0.05426910484684   -0.81225715882836
C         1.56696872340586    0.40957825965459   -1.10791310700856
O         0.68921332243706    2.32385566517461   -2.38625668426086
O         0.87726977174167    3.25855851968753   -1.32980292506611
O         2.54692112026448    0.08866592642128   -0.48566982427370
H         1.19556839721000    4.05825583023222   -1.77486737953078
H         2.68988427855570    1.74667339538888   -2.39826805232472
H         1.47251830943137    0.72050909127302   -3.22585307708762
H         0.14561742573476   -1.14426265723607   -0.86580791524844
H        -0.53970137758790    0.37249147991635   -1.51622442102528
H        -0.10357122583583    0.23310750044755    0.20251734396722
12
 energy: -21.576648441080 gnorm: 0.009005347864 xtb: 6.2.3 (830e466)
C         1.70342241604133    1.32030011966925   -2.34320332126293
C         0.17136951160671   -0.01716808429540   -0.80237387064695
C         1.57790263379931    0.39296848232338   -1.12617748906978
O         0.69966285381445    2.29700000145251   -2.42090157443715
O         0.81588746481929    3.20429634605636   -1.33153965435615
O         2.55674478460304    0.02782504892067   -0.52759976567768
H         1.11416163119965    4.03423872305369   -1.73874132076476
H         2.71079698576446    1.76004200324178   -2.37493477224602
H         1.54458253668091    0.71080778142256   -3.24279430245547
H         0.10091053942852   -1.10403490106522   -0.87027256669272
H        -0.54052831522878    0.44711286505979   -1.48067040737928
H        -0.06590304252891    0.26620161416062    0.22339904498891
12
 energy: -21.576927457673 gnorm: 0.008088861590 xtb: 6.2.3 (830e466)
C         1.72629564882470    1.31517394662915   -2.34996570724168
C         0.17120574761042    0.01323634277937   -0.79329321227407
C         1.58374648594405    0.37850936050350   -1.14389946715004
O         0.71142626537941    2.27709026379861   -2.45010538079813
O         0.76670364912489    3.15733071041682   -1.33638843524274
O         2.55925663893216   -0.03190251120224   -0.56818508584665
H         1.03930938387603    4.01106475726489   -1.71143282596904
H         2.72734726904578    1.77180341950167   -2.34658838293752
H         1.61037825615573    0.71260737574471   -3.26111003374481
H         0.06200683544180   -1.06828695305430   -0.86657706821685
H        -0.54035065493592    0.50708774514992   -1.44830776581742
H        -0.02831552539906    0.29587554246788    0.24004336523897
12
 energy: -21.577107057137 gnorm: 0.003627322070 xtb: 6.2.3 (830e466)
C         1.74365365834518    1.31250530873911   -2.35404176201005
C         0.17190328163489    0.03304604210595   -0.78607589147538
C         1.58702031762343    0.36257645367529   -1.16191412249763
O         0.72215089423063    2.26640559083712   -2.47219028661806
O         0.72845414941894    3.12532154541405   -1.34173958278806
O         2.55514948555951   -0.07929293792292   -0.60208265447598
H         0.98510551919037    3.99001450537217   -1.69544354758343
H         2.73787470451010    1.78164933935554   -2.31834564432340
H         1.66087602023345    0.72351740731365   -3.27547243493378
H         0.03093026010515   -1.04371892823306   -0.85600777226319
H        -0.53884501758389    0.54762526351157   -1.42325595227386
H         0.00473672673223    0.31994040983150    0.25075965124287
12
 energy: -21.577108343167 gnorm: 0.015844820741 xtb: 6.2.3 (830e466)
C         1.76904469127943    1.30970935640186   -2.35486710625284
C         0.17263898464482    0.06188663383853   -0.77606330197017
C         1.59263316947873    0.34368644544842   -1.17891407954359
O         0.73696083753195    2.25180539379341   -2.50409283567629
O         0.67058814668828    3.08910348092479   -1.35240683690767
O         2.55954499498987   -0.15997185592844   -0.65328937013685
H         0.90556280121604    3.96872349211848   -1.68015176870912
H         2.75463872305905    1.79278855204262   -2.27812537405404
H         1.72831111036364    0.73263182975652   -3.28616982878494
H        -0.01208079038627   -1.00980912757126   -0.84942985071182
H        -0.53625361389391    0.61048492496543   -1.39006759162056
H         0.04742094502836    0.34855087420962    0.26776794436794
12
 energy: -21.577213964445 gnorm: 0.007476091841 xtb: 6.2.3 (830e466)
C         1.76303759111980    1.31186114031967   -2.35224605247534
C         0.17306941128015    0.05236832736652   -0.77798942667413
C         1.58780171500832    0.34366593173308   -1.17885725958060
O         0.73704996083064    2.26031776066647   -2.49172724863491
O         0.68997338766648    3.10068162447386   -1.35403700470953
O         2.55202463390066   -0.15033193733672   -0.65013009289758
H         0.91909582798908    3.97542048362719   -1.69134093208347
H         2.74822376468442    1.79006248505677   -2.27751625659976
H         1.71400853108785    0.74077271828556   -3.28310941796867
H        -0.00181120545076   -1.01823914375131   -0.83966817219143
H        -0.53388885586503    0.58782813436568   -1.39963662574492
H         0.04042523774838    0.34518247519322    0.26044848956038
12
 energy: -21.577240176906 gnorm: 0.004863142388 xtb: 6.2.3 (830e466)
C         1.76911983180082    1.31063617542325   -2.35438524097596
C         0.17374199583763    0.05827005366880   -0.77551052577905
C         1.59027658792822    0.33501634960999   -1.18694142386084
O         0.74159636212245    2.25650767872586   -2.50042284514364
O         0.67475981999582    3.09097190552649   -1.35254426681356
O         2.55107796454864   -0.15964180526789   -0.66210970804762
H         0.90362837708413    3.97255494866254   -1.68110241741513
H         2.75301494549080    1.79143037864151   -2.27111376667237
H         1.72830609764053    0.74033616977673   -3.28752890992843
H        -0.01227794804360   -1.01261541179426   -0.83422237664691
H        -0.53358378179913    0.59936728937321   -1.39373216530040
H         0.04934974739369    0.35675626765373    0.26380364658396
12
 energy: -21.577283706009 gnorm: 0.002901945985 xtb: 6.2.3 (830e466)
C         1.77482557705761    1.31142550083638   -2.35214448076027
C         0.17403793973166    0.06455982562456   -0.77293957901312
C         1.59061820140064    0.32850605082117   -1.19148007348032
O         0.74549539804129    2.25456945926479   -2.50491458962954
O         0.66268190929383    3.08515306094044   -1.35663057276162
O         2.55153166594959   -0.18676112075814   -0.68000694168345
H         0.88256951464309    3.96927258281672   -1.68246060753967
H         2.75648461425291    1.79492179000852   -2.25718992801201
H         1.74529770325771    0.74546956718358   -3.28875803688699
H        -0.02131447055781   -1.00440559898391   -0.82814284166923
H        -0.53207268679270    0.61084470437830   -1.38767921893519
H         0.05885463372217    0.36603417786756    0.26653687037146
12
 energy: -21.577317747002 gnorm: 0.006153732777 xtb: 6.2.3 (830e466)
C         1.78135353868264    1.31334964208730   -2.34834714019436
C         0.17514174074427    0.07073374759787   -0.76985622375477
C         1.59020160620932    0.31861178872516   -1.19848021730604
O         0.75104069791696    2.25366529518527   -2.50982455650539
O         0.64745295853797    3.07999194315173   -1.36098565550961
O         2.54976914134538   -0.22156659904130   -0.70603221056713
H         0.85847095235129    3.96635450453577   -1.68482624837137
H         2.76017932922741    1.79879210807353   -2.23834596572210
H         1.76568566599507    0.75405280311429   -3.28958602880923
H        -0.03133191596884   -0.99616329991069   -0.81495485908705
H        -0.52963118824321    0.62063627671810   -1.38273822912975
H         0.07067747320174    0.38113178976295    0.26816733495686
12
 energy: -21.577359064629 gnorm: 0.007529635792 xtb: 6.2.3 (830e466)
C         1.78677114481275    1.31634266235941   -2.34330189187203
C         0.17651418812162    0.07489780908784   -0.76739494392325
C         1.58986013407490    0.30668065646284   -1.20674094149550
O         0.75577421994093    2.25347446104542   -2.51082419111485
O         0.63559742799748    3.07805412439913   -1.36398554003593
O         2.54703956928739   -0.25698340378239   -0.73487007234941
H         0.83727053328649    3.96610830389840   -1.68895957707105
H         2.76307324111045    1.80324205239815   -2.21922133241167
H         1.78345743775818    0.76463363254555   -3.28949508707563
H        -0.03897944209343   -0.99078729201414   -0.79482259703805
H        -0.52739681106831    0.62239636948758   -1.38292199719713
H         0.08002835677157    0.40153062411218    0.26672817158454
12
 energy: -21.577444687864 gnorm: 0.007837475839 xtb: 6.2.3 (830e466)
C         1.79272559649024    1.32262550405150   -2.33443310477029
C         0.17891791513852    0.07775494508920   -0.76448750409182
C         1.58790345019783    0.28711878188316   -1.22129314898357
O         0.76190796056669    2.25540476849761   -2.50922608168074
O         0.62056010779591    3.07965568319390   -1.36492567379761
O         2.53989405071373   -0.31244142506113   -0.78501226085789
H         0.81287859796428    3.96860235997461   -1.69448667466255
H         2.76573799344050    1.80988851465941   -2.18975909969642
H         1.80643926083719    0.78464506266690   -3.28884880857904
H        -0.04346438590076   -0.98665088936855   -0.74933739484087
H        -0.52518834238828    0.60931193007419   -1.39262374471258
H         0.09069779514414    0.44367476433916    0.25862349667345
12
 energy: -21.577557549007 gnorm: 0.010829112675 xtb: 6.2.3 (830e466)
C         1.80020976944143    1.33075599990419   -2.32330329410783
C         0.18232071699871    0.08087927946724   -0.76130550940157
C         1.58683110659012    0.25815766820346   -1.24502994348128
O         0.76685248060681    2.25574245698992   -2.50182315942020
O         0.60485061409463    3.08041543885263   -1.36144751649282
O         2.52952096844125   -0.38806179617694   -0.85758935395473
H         0.78106795796132    3.97239100731291   -1.69708506472037
H         2.76817040766890    1.82131319624055   -2.15053619965901
H         1.83731256828172    0.81385966421247   -3.29027808496899
H        -0.04613307537673   -0.98280614087683   -0.67317502533322
H        -0.52478385548609    0.58002574500341   -1.41407206844619
H         0.10279034077794    0.51691748086695    0.23983521998627
12
 energy: -21.577623957548 gnorm: 0.016360111337 xtb: 6.2.3 (830e466)
C         1.79305542529897    1.33853183050751   -2.31500751129312
C         0.18461215253897    0.07025525746371   -0.76320580799381
C         1.58112779768761    0.24677676836101   -1.25807658366161
O         0.76165720990784    2.26359175276260   -2.48313524925092
O         0.61722902743190    3.09733715234976   -1.34664092726978
O         2.51567473754683   -0.41593632654151   -0.90338189897075
H         0.80204729397654    3.98277168585625   -1.69580590147829
H         2.76053608623059    1.82374368896790   -2.13765302683156
H         1.82976464202552    0.83632165969785   -3.28739268788650
H        -0.01363028052023   -0.99232377252514   -0.59546690844085
H        -0.53235314166859    0.50745516118331   -1.45604647191002
H         0.08928904954406    0.58106514191666    0.20600297498728
12
 energy: -21.577840107438 gnorm: 0.011160348188 xtb: 6.2.3 (830e466)
C         1.80383162324248    1.33826192854954   -2.31734094285837
C         0.18512707206874    0.08524387244286   -0.75577807200470
C         1.58134558770476    0.23402166597181   -1.27652029446481
O         0.76671312868890    2.25767983284750   -2.49422972638195
O         0.59508001388729    3.07660902773947   -1.34138451142893
O         2.50927299714426   -0.46322279928974   -0.95142859995420
H         0.77108250296856    3.97223793840857   -1.67362969598583
H         2.76589833452375    1.83080221310322   -2.11575493059911
H         1.86370553106531    0.84898766658456   -3.29742431496092
H        -0.01534501749090   -0.96878586634492   -0.55310489741460
H        -0.53653544027861    0.49896848809462   -1.45384996451548
H         0.09883366647547    0.62878603189246    0.19463595056896
12
 energy: -21.577744014941 gnorm: 0.015485652357 xtb: 6.2.3 (830e466)
C         1.80298432193270    1.32931943873609   -2.33002718568456
C         0.18407937449170    0.09279710703053   -0.75326537325926
C         1.58550513838529    0.24912211381687   -1.27229917402031
O         0.75663575524393    2.24894183216443   -2.49676406083448
O         0.60829332862988    3.05847051098430   -1.33684827500530
O         2.51165694080277   -0.42973897614055   -0.92305086458242
H         0.77777729897498    3.96065302807931   -1.65262972506507
H         2.76295324787774    1.83177499302083   -2.13572062774672
H         1.86214831061951    0.83377409722356   -3.30630267591474
H        -0.01012447297673   -0.95330550912105   -0.57724468970874
H        -0.54443463075570    0.50283101948650   -1.43793691217900
H         0.09153538677394    0.61495034471912    0.18627956400067
12
 energy: -21.578050911223 gnorm: 0.004330155336 xtb: 6.2.3 (830e466)
C         1.79922344078753    1.32952465950263   -2.33041803960552
C         0.18445600943328    0.09000598880117   -0.75855968129809
C         1.58344047358806    0.24147339557019   -1.27712794816160
O         0.75330487592804    2.25002492680010   -2.49213430620466
O         0.61303967582242    3.05681229119372   -1.33090683740745
O         2.51194435428923   -0.43468099144116   -0.91783309320638
H         0.77541885953056    3.95726572566270   -1.64870564158684
H         2.75602774244150    1.83270767714680   -2.13210392059526
H         1.86190651255342    0.84047154687480   -3.30871837537028
H        -0.01385274584174   -0.95889122766051   -0.55941701715416
H        -0.53899905964121    0.49743609974593   -1.45699636061367
H         0.10309986110894    0.63743990780354    0.17711122120398
12
 energy: -21.578144695185 gnorm: 0.003169467189 xtb: 6.2.3 (830e466)
C         1.79804717814325    1.32905058330707   -2.33161478397275
C         0.18482698020277    0.08787925798504   -0.76518556765937
C         1.58307437139954    0.23761356754522   -1.27981342302568
O         0.75075599702636    2.24928382765663   -2.48362318937435
O         0.62165970320063    3.05468218503676   -1.32088344913064
O         2.51219757483359   -0.43803772653696   -0.91755071460262
H         0.77131733822435    3.95470598623314   -1.64263984756325
H         2.75290640774404    1.83283134541198   -2.13080791855349
H         1.86041200643260    0.84542570612004   -3.31209405790595
H        -0.01562790743607   -0.95821643340889   -0.53670164858487
H        -0.53754694267050    0.48214893591617   -1.47490817352585
H         0.10698729289946    0.66222276473372    0.16001277389890
12
 energy: -21.578221471206 gnorm: 0.006116801590 xtb: 6.2.3 (830e466)
C         1.79762189677992    1.32865809846603   -2.33227513828722
C         0.18529978800037    0.08616871935998   -0.77183423078513
C         1.58276498171758    0.23175870228815   -1.28452488417122
O         0.74942105799046    2.24975299961384   -2.47344741792115
O         0.63331105828288    3.05305741710205   -1.30805205708194
O         2.51202668243953   -0.44362794481172   -0.92120498685688
H         0.76489217670412    3.95397645724790   -1.63417682353367
H         2.75179754207679    1.83175848122769   -2.12942300941832
H         1.85797717316996    0.85128421743439   -3.31548202295477
H        -0.01344000098134   -0.95342166499289   -0.50613041992657
H        -0.53792280570881    0.45639803189614   -1.49497912872372
H         0.10526044952856    0.69382648516835    0.13572011966064
12
 energy: -21.578335360960 gnorm: 0.009390187384 xtb: 6.2.3 (830e466)
C         1.79779285113853    1.32811813905276   -2.33183986199258
C         0.18612507580200    0.08404823504177   -0.77990468472733
C         1.58319677117697    0.22418574761016   -1.28964492201208
O         0.74964794439129    2.25213920257928   -2.45740914059099
O         0.65355489906673    3.05337787758566   -1.28828610855760
O         2.51063793481407   -0.45615689177231   -0.93191688302472
H         0.75113666530641    3.95653695868282   -1.62242466459884
H         2.75287639994841    1.82829159270914   -2.12828278447514
H         1.85239378381192    0.85913600463695   -3.31905236816609
H        -0.00561940734716   -0.94299948470155   -0.45929921668278
H        -0.53863904249316    0.41178865555308   -1.52392817187789
H         0.09590612438400    0.74112396302216    0.09617880670610
12
 energy: -21.578491443627 gnorm: 0.010129589763 xtb: 6.2.3 (830e466)
C         1.79905738053004    1.32794749688438   -2.32991258690228
C         0.18695509533901    0.08317814023128   -0.78448825331230
C         1.58370400622328    0.21695849418721   -1.29458949682485
O         0.75285495023418    2.25626529714633   -2.44326780352443
O         0.67302128431397    3.05588080470739   -1.27087521314037
O         2.50791643119428   -0.47207899510717   -0.94744705646580
H         0.73442060093281    3.96127295267711   -1.61136975718614
H         2.75665431262709    1.82372699492943   -2.12733717469043
H         1.84667909488072    0.86582457094004   -3.32066962223132
H         0.00572190308763   -0.92818118586773   -0.41481489788218
H        -0.53897320565161    0.36480801267225   -1.54726406198928
H         0.08099814628861    0.78398741659937    0.05622592414948
12
 energy: -21.578741215424 gnorm: 0.005350136200 xtb: 6.2.3 (830e466)
C         1.80186816229966    1.32866090729090   -2.32594308388216
C         0.18758259785056    0.08429615907950   -0.78382750651866
C         1.58373631851757    0.21011175069105   -1.30037672888246
O         0.76100482919861    2.26357509377635   -2.43283507757855
O         0.68876140258614    3.06071036671129   -1.25719128876644
O         2.50198352563342   -0.49504187415098   -0.97296790081975
H         0.71480239791763    3.96727412511471   -1.59782706273743
H         2.76395761175886    1.81759045477804   -2.12482687221665
H         1.84247979815003    0.87243559835234   -3.32010586051492
H         0.02284593934235   -0.90473628183282   -0.36734224187248
H        -0.53834798098854    0.30957953991244   -1.56314274530361
H         0.05833539773372    0.82513416027711    0.01057636909319
12
 energy: -21.578761205537 gnorm: 0.013020203469 xtb: 6.2.3 (830e466)
C         1.80511853590005    1.32985758116485   -2.32309576970795
C         0.18707835298359    0.08554460409325   -0.78548106577625
C         1.58018623624427    0.19492237292714   -1.31801844059566
O         0.77240257251541    2.27486335362690   -2.41731315399697
O         0.70933771694697    3.06149035465158   -1.23230352638608
O         2.49106546167260   -0.52902929416456   -1.01071210284129
H         0.68917928169417    3.97009076064543   -1.56674702119545
H         2.77140703592036    1.80876233600799   -2.11583536143942
H         1.84176332877302    0.88918743692796   -3.32517712138221
H         0.04742043417586   -0.87196874390006   -0.27406128537320
H        -0.53733585397385    0.21694484820853   -1.59850708731417
H         0.03138689714754    0.90892438981089   -0.06855806399127
12
 energy: -21.578934221864 gnorm: 0.002983979711 xtb: 6.2.3 (830e466)
C         1.80610663341848    1.33041999907790   -2.32319355129015
C         0.18643206226110    0.08835122323707   -0.78004836781115
C         1.57907639330033    0.19925303870837   -1.31671230688181
O         0.77321820257349    2.27296164752998   -2.42700311627962
O         0.69680245938469    3.05968417486071   -1.24332157807636
O         2.48857853386359   -0.52704518485217   -1.01052919635568
H         0.69278926415667    3.96671727687218   -1.57267421550225
H         2.77107183614346    1.81055903488396   -2.11262786067360
H         1.84962575827223    0.88716104236406   -3.32378281493268
H         0.04279569511459   -0.87256042345523   -0.29522045242672
H        -0.53562745628771    0.23903852827545   -1.57826571057127
H         0.03814061779907    0.88504964249761   -0.05243082919863
12
 energy: -21.578986488165 gnorm: 0.002244304913 xtb: 6.2.3 (830e466)
C         1.80791665261480    1.33002553454988   -2.32221724682283
C         0.18667606533147    0.09099199135683   -0.78035588546204
C         1.57861325006527    0.19616480131033   -1.32032520216586
O         0.77651407186668    2.27453134584640   -2.42044350442281
O         0.70713370390867    3.05874502604969   -1.23372636323010
O         2.48333740078445   -0.54156005727124   -1.02489379481332
H         0.67703363615650    3.96745013562851   -1.56637411798998
H         2.77355480985883    1.80701123394548   -2.10826103864445
H         1.85179012139909    0.89257868169554   -3.32545696766589
H         0.04984257372471   -0.85792127507237   -0.26955530224871
H        -0.53469839211356    0.21144258991162   -1.58560647623657
H         0.03129610640311    0.91012999204923   -0.07859410029734
12
 energy: -21.578998370745 gnorm: 0.005913902422 xtb: 6.2.3 (830e466)
C         1.81028942389527    1.33063293350470   -2.32072500096676
C         0.18709655011503    0.09561773004340   -0.77979950452490
C         1.57564093098511    0.18739501604946   -1.33196956033523
O         0.78236904729300    2.27905993728006   -2.41272570436580
O         0.71677889639192    3.05621329566883   -1.21985520429048
O         2.47233967875536   -0.56737089677326   -1.05424263947877
H         0.66050455253987    3.96407995647364   -1.54874416238722
H         2.77577860003837    1.80311951357829   -2.09615885804928
H         1.85988639770098    0.90593485056630   -3.32935331404960
H         0.06474954155111   -0.82789926948642   -0.21368485028070
H        -0.53491439091999    0.15244891783254   -1.59718180503382
H         0.01849077165397    0.96035801526237   -0.13136939623736
12
 energy: -21.579032204085 gnorm: 0.001538004454 xtb: 6.2.3 (830e466)
C         1.80973630940407    1.33038891846372   -2.32131018520633
C         0.18721886406072    0.09487039934266   -0.77961257823217
C         1.57606178239936    0.18922181842813   -1.32929053975957
O         0.77994782795990    2.27677844536423   -2.41578065708202
O         0.71293890596741    3.05664358573964   -1.22524842720279
O         2.47472676477372   -0.55992775890070   -1.04603409162491
H         0.66557389676652    3.96427350286233   -1.55609951062774
H         2.77412611537571    1.80535329157694   -2.09757163752083
H         1.86039719908225    0.90277015168334   -3.32836384224922
H         0.05907357029891   -0.83536780888905   -0.23279122848214
H        -0.53533293022535    0.17234428942636   -1.58958220527950
H         0.02454169413679    0.94224116490231   -0.11412509673270
12
 energy: -21.579044845266 gnorm: 0.000992728502 xtb: 6.2.3 (830e466)
C         1.81066463975019    1.33078894764258   -2.32060296822744
C         0.18761059079326    0.09606761956302   -0.77948581382977
C         1.57480499641059    0.18541096939520   -1.33324841401096
O         0.78098148747797    2.27764412166179   -2.41343705423956
O         0.71585147730140    3.05706222938594   -1.22237040592746
O         2.47061524221448   -0.56955917035257   -1.05697357491358
H         0.66092996213104    3.96379833825667   -1.55342736427820
H         2.77384745405869    1.80565740471325   -2.09135782919292
H         1.86535597812188    0.90813387773472   -3.32932923798640
H         0.06309294099011   -0.82427272903282   -0.21573895866470
H        -0.53624370320787    0.15412559132201   -1.58940621737453
H         0.02149893395825    0.95473279971011   -0.13043216135439
12
 energy: -21.579050603021 gnorm: 0.000817434103 xtb: 6.2.3 (830e466)
C         1.81114607338255    1.33148472602003   -2.31940775921602
C         0.18784688706675    0.09578348166359   -0.77921999037028
C         1.57320199294188    0.18139113905041   -1.33709169983928
O         0.78148902092832    2.27892226991905   -2.41057268887243
O         0.71965218406030    3.05964185283724   -1.22017429003466
O         2.46679204887539   -0.57871090665600   -1.06849486454476
H         0.65873847342130    3.96535194666728   -1.55162414877168
H         2.77320702408725    1.80602207822424   -2.08483124546183
H         1.86906193211813    0.91364916541510   -3.32972841530684
H         0.06858682354683   -0.81392629702055   -0.19774021243235
H        -0.53724810504320    0.13342331308575   -1.59000990757573
H         0.01653564461450    0.96655723079377   -0.14691477757403
12
 energy: -21.579051724994 gnorm: 0.000384014023 xtb: 6.2.3 (830e466)
C         1.81100647813897    1.33185211022045   -2.31880124404095
C         0.18775825329623    0.09496085149831   -0.77918380122026