12
 energy: -21.601915901971 gnorm: 0.096374883866 xtb: 6.2.3 (830e466)
C         0.61741000000000    1.07363000000000   -2.55514000000000
C         0.27194000000000    0.43372000000000   -1.24346000000000
C         1.20802000000000   -0.69197000000000   -0.92319000000000
O        -0.04926000000000    2.00746000000000   -2.96999000000000
O         1.95475000000000    3.67254000000000   -0.90621000000000
O         2.40374000000000   -0.48497000000000   -0.78586000000000
H         1.57080000000000    4.09414000000000   -1.71581000000000
H         2.57300000000000    2.98230000000000   -1.25553000000000
H         1.45690000000000    0.71931000000000   -3.14649000000000
H         0.82199000000000   -1.69886000000000   -0.80184000000000
H        -0.76505000000000    0.03936000000000   -1.29817000000000
H         0.32476000000000    1.19294000000000   -0.43411000000000
12
 energy: -21.607288603393 gnorm: 0.038665787316 xtb: 6.2.3 (830e466)
C         0.59875339049958    1.09231511990495   -2.55130191360415
C         0.26844773452327    0.42255582889018   -1.24509489744507
C         1.22798409886819   -0.68063284829215   -0.89936947080206
O        -0.04599270486369    2.01064944600024   -2.98873736002355
O         1.93268059344154    3.63968235126968   -0.91539959495962
O         2.41772985009192   -0.49814370097354   -0.81214774860942
H         1.57086960782812    4.07391017428742   -1.70303287942713
H         2.58289896679440    3.00145230799156   -1.24999732157736
H         1.45996092980395    0.71100164510440   -3.11220624887150
H         0.82024644356107   -1.69337222316485   -0.80250456822574
H        -0.76852249104655    0.06494567620679   -1.28944490655116
H         0.32394358049819    1.19523622277532   -0.46656308990326
12
 energy: -21.608254172573 gnorm: 0.022470084077 xtb: 6.2.3 (830e466)
C         0.58068480930710    1.11683111117227   -2.55537317462202
C         0.26602106817167    0.41591411552968   -1.25362564097542
C         1.25288247223188   -0.67607195351318   -0.94654955982027
O        -0.04944278121801    2.02097003816730   -3.00863056450668
O         1.92182935706655    3.60535623802936   -0.92431892520675
O         2.42689270528660   -0.50121718334006   -0.82540528769305
H         1.55229140543722    4.03900805872087   -1.68906039638746
H         2.59128201014041    3.00292829416458   -1.24518686879046
H         1.47804132450405    0.72235875403502   -3.07419780258006
H         0.80012547275656   -1.67029398019235   -0.74665633944284
H        -0.76623995072950    0.07361570120397   -1.28037800704312
H         0.33463210704541    1.19020080602253   -0.48641743293191
12
 energy: -21.609207477532 gnorm: 0.016919574884 xtb: 6.2.3 (830e466)
C         0.58348619998088    1.11815380753639   -2.55757192360883
C         0.26572618721371    0.42780799882376   -1.24852818636278
C         1.24731502992750   -0.66207677497674   -0.92218652471383
O        -0.05272069624196    2.01025377965284   -3.03060020126550
O         1.87971055100600    3.55075224631408   -0.92209873533150
O         2.43329478690874   -0.50363868444980   -0.86770431424986
H         1.54254564493140    4.02600276610270   -1.68340853018519
H         2.62407666688215    3.01551298743563   -1.24377240395908
H         1.49804714839321    0.72696628856652   -3.05464629640094
H         0.79038284574595   -1.65872421636300   -0.75330963085391
H        -0.76502010781907    0.07812607572356   -1.26499004696706
H         0.34215574307141    1.21046372563404   -0.48698320610158
12
 energy: -21.609490461900 gnorm: 0.018522211314 xtb: 6.2.3 (830e466)
C         0.59662730168282    1.12669556311239   -2.55942628826731
C         0.27030557986925    0.44527557487929   -1.24619502582010
C         1.24497771474822   -0.64658633481951   -0.91095604252407
O        -0.06273877126506    1.98895059834856   -3.06393384114405
O         1.88315704933806    3.52493898476981   -0.91638146433177
O         2.44111955005564   -0.50452237061550   -0.92051063555670
H         1.52078195368603    4.00208969499748   -1.66694662242202
H         2.59067331954302    2.97274957495281   -1.24038227279849
H         1.52666357910222    0.74351457469846   -3.03433200319952
H         0.78211309561618   -1.63894018974589   -0.73518488482636
H        -0.76053186661735    0.09010795210852   -1.25220315469070
H         0.35585149424088    1.23532637731357   -0.48934776441902
12
 energy: -21.610251742971 gnorm: 0.027288327982 xtb: 6.2.3 (830e466)
C         0.60715084631517    1.13942735527413   -2.56386514714400
C         0.27665428066577    0.46513517329614   -1.24694536900972
C         1.24548006187309   -0.63312540359066   -0.92201008982681
O        -0.07789883824602    1.96774368525571   -3.09715955156509
O         1.82486348598882    3.43042064709550   -0.91317894647138
O         2.44446162593923   -0.50552614760706   -0.97569341154078
H         1.50845768432617    3.97456619571569   -1.65137199437376
H         2.60548656805352    2.95954292872586   -1.24122028384059
H         1.56171543663243    0.78015051953103   -3.00868847958015
H         0.77107781266953   -1.61115645433587   -0.68546318060692
H        -0.75703697377070    0.11318151676432   -1.23706154485454
H         0.37858800955284    1.25923998387519   -0.49314200118642
12
 energy: -21.611155159370 gnorm: 0.022486271600 xtb: 6.2.3 (830e466)
C         0.61019303488359    1.15131526890977   -2.57406815007750
C         0.28449630492367    0.48568114245624   -1.25278578854422
C         1.24743759487453   -0.62064633014050   -0.94480840751790
O        -0.09199470208619    1.95171211892772   -3.12058308479105
O         1.79160556095932    3.35326376700297   -0.91862069028808
O         2.43858695217674   -0.50430116598615   -1.02276971275916
H         1.46492002848127    3.89095504686550   -1.64800451996721
H         2.61328163431317    2.92796068183502   -1.22819663316327
H         1.60697351225022    0.85147521286492   -2.97548998684493
H         0.76874276290531   -1.57844363049179   -0.62545729208125
H        -0.75563118477938    0.15060739164225   -1.22415816368234
H         0.41038850109754    1.28002049611403   -0.50085757028330
12
 energy: -21.611961534400 gnorm: 0.020321949898 xtb: 6.2.3 (830e466)
C         0.63003820775015    1.17618754390215   -2.57073650439455
C         0.29681946060903    0.51159974950324   -1.25364076857102
C         1.25154548843116   -0.60324193834747   -0.95348003711980
O        -0.11201127114272    1.91998594328405   -3.15640458382538
O         1.76468445215914    3.28107773226665   -0.92013205692484
O         2.43858897230785   -0.50637385516651   -1.07301408937681
H         1.44097646542447    3.83053390022838   -1.64026004051127
H         2.57307264776903    2.85850411281270   -1.21900251839964
H         1.63850917401384    0.91065814450706   -2.94791806959372
H         0.77549581697492   -1.54070118595483   -0.57845774878731
H        -0.74897651303378    0.19794347989767   -1.21920005379309
H         0.44025709873664    1.30342637306689   -0.50355352870280
12
 energy: -21.612394029068 gnorm: 0.021947636101 xtb: 6.2.3 (830e466)
C         0.63843303248246    1.18811743064842   -2.57403611277395
C         0.30640324581512    0.53595403678243   -1.25292012826064
C         1.25320523211850   -0.58391902953312   -0.94664179311969
O        -0.10820589031059    1.89535080738355   -3.18711986969138
O         1.70875717566942    3.19122803810342   -0.92424651277668
O         2.44410616048514   -0.52237538225840   -1.14817051733607
H         1.41688436648440    3.77126469559703   -1.63535111598633
H         2.54687934863087    2.81209190208237   -1.20273025917673
H         1.67219136340969    0.96734895682348   -2.91220135020299
H         0.77801183035185   -1.49806919268713   -0.53238122464013
H        -0.74491264390176    0.25012746313935   -1.20582229538224
H         0.47724677876456    1.33248027391857   -0.51417882065345
12
 energy: -21.611925756836 gnorm: 0.031383105419 xtb: 6.2.3 (830e466)
C         0.63225384065969    1.19158082381709   -2.56783026500868
C         0.30453147416138    0.52882518517920   -1.25389592866804
C         1.25392135134156   -0.58723006003080   -0.93825201243468
O        -0.10455061570752    1.89197311696455   -3.17955447901636
O         1.71720312320204    3.20355888727254   -0.93107481426255
O         2.43274096599862   -0.52701755774883   -1.10778170913045
H         1.42537295739810    3.77035668032749   -1.64372560082650
H         2.56018019639145    2.82815764753990   -1.19838390643366
H         1.63958179375512    0.96919412746797   -2.92542999728847
H         0.79898489273779   -1.49820034205754   -0.55917558079839
H        -0.74410496721658    0.25113737436296   -1.21768017880751
H         0.47288498727802    1.31726411690544   -0.51301552732499
12
 energy: -21.612647125525 gnorm: 0.022208408506 xtb: 6.2.3 (830e466)
C         0.62818830732760    1.19534784327615   -2.57443834722204
C         0.30333863048751    0.53200954130398   -1.25740687870834
C         1.25349858356155   -0.58436878672052   -0.94739292738563
O        -0.13984994428850    1.86553571394826   -3.21546193315298
O         1.72521950747349    3.19410093218138   -0.92248646958999
O         2.43401067913201   -0.52807860843534   -1.13432718190768
H         1.41993360213802    3.76390343843634   -1.62738007634512
H         2.58485209921518    2.83822486670771   -1.19209914488881
H         1.66348814317258    0.98976561317435   -2.91012625148333
H         0.78494179060157   -1.49165548908782   -0.52821924903734
H        -0.74268969689997    0.24165012983892   -1.20964960478121
H         0.47406829807860    1.32316480537656   -0.51681193549782
12
 energy: -21.612087728325 gnorm: 0.034185974172 xtb: 6.2.3 (830e466)
C         0.61584346707080    1.16743783917566   -2.59193286665833
C         0.29952225010649    0.51874547875279   -1.26521364116934
C         1.25105082631236   -0.59614653897196   -0.95247016077818
O        -0.12491953409869    1.86823270058867   -3.20805823600954
O         1.74714934301787    3.23939414540483   -0.91010136105472
O         2.43826091426242   -0.53900238712631   -1.15768036379994
H         1.44279192876138    3.82693876101162   -1.61307569333665
H         2.55206896546161    2.83799697806540   -1.19483005383070
H         1.66879633577746    0.97985601894135   -2.91971731879134
H         0.77189442167346   -1.50112366522174   -0.49049188620608
H        -0.74799974401810    0.22050433843707   -1.20425305568613
H         0.47454082567261    1.31676633094262   -0.52797536267935
12
 energy: -21.612958088799 gnorm: 0.006991993807 xtb: 6.2.3 (830e466)
C         0.62376432354465    1.17990385889535   -2.58310572692327
C         0.30167662075271    0.52515527417991   -1.26234572295484
C         1.25122507248982   -0.59110849524934   -0.94824289801348
O        -0.13370773034043    1.85306183605626   -3.21888320982308
O         1.72863376748711    3.21396575867177   -0.91362044816517
O         2.43403837344352   -0.54254535913530   -1.15362223354086
H         1.43744075098867    3.80320438423037   -1.61602980483397
H         2.57800032515144    2.85324134498068   -1.18484419886752
H         1.65664443891124    0.98239167298108   -2.92024290620806
H         0.77955401205032   -1.49113731140989   -0.50318998542478
H        -0.74580759075611    0.23343894476387   -1.20692795210990
H         0.47753763627673    1.32002809103521   -0.52474491313538
12
 energy: -21.613054412560 gnorm: 0.011047049895 xtb: 6.2.3 (830e466)
C         0.61709451058871    1.17964196898943   -2.58642499678103
C         0.30029720171727    0.52862353607429   -1.26355974561170
C         1.25050441896081   -0.58679818339539   -0.94783625631643
O        -0.15549184752742    1.82311700515063   -3.24185197995807
O         1.73278513803918    3.20101780358346   -0.91340087417297
O         2.42814601210430   -0.54883186751871   -1.16739002612353
H         1.43552391961885    3.78795918659943   -1.60934757989455
H         2.59102946945244    2.85501097129604   -1.17604687207101
H         1.66909152875888    1.01344224350819   -2.90349948607494
H         0.78526372312812   -1.47687960101679   -0.49453249220148
H        -0.74616393850201    0.23931383458967   -1.20328399137268
H         0.48091986366052    1.32398310213970   -0.52862569942193
12
 energy: -21.613225444523 gnorm: 0.011094462096 xtb: 6.2.3 (830e466)
C         0.61454652716480    1.17505435249114   -2.59467012696078
C         0.30216001738185    0.53002236267100   -1.26903559908362
C         1.24996820087259   -0.58724856584531   -0.95135490254863
O        -0.16633826879986    1.79440035983959   -3.26315146141121
O         1.72821070374292    3.19490175326928   -0.90552334303895
O         2.42481987601224   -0.56364773316851   -1.19313589419109
H         1.43998851421573    3.79434165497713   -1.59568641693207
H         2.60033873268004    2.86889770338935   -1.15849008443124
H         1.66650472766367    1.02485914018316   -2.90559863051181
H         0.78279692686588   -1.46319407574552   -0.46170366359420
H        -0.74528450021844    0.24371898873735   -1.19988620730907
H         0.49128854241824    1.32749405920129   -0.53756366998768
12
 energy: -21.613488034875 gnorm: 0.008723408762 xtb: 6.2.3 (830e466)
C         0.60035803417368    1.15002603035929   -2.61541776978816
C         0.30061940185782    0.52392781759655   -1.27931305715675
C         1.24689952598947   -0.59395158800150   -0.95484338310432
O        -0.19168493232889    1.72710508944413   -3.30294675711469
O         1.74038630802980    3.21579109215558   -0.88555479356679
O         2.41498087743421   -0.59692785941793   -1.23287573442595
H         1.46898854051315    3.84660547924164   -1.56151055025180
H         2.62117113129098    2.91376794973025   -1.12725037700566
H         1.65451094266817    1.03348103672354   -2.91577545328576
H         0.77985584031951   -1.44363416777665   -0.41119008054367
H        -0.74651371450997    0.23535067595647   -1.19310178382937
H         0.49942804456176    1.32805844398858   -0.55602025992745
12
 energy: -21.613599286398 gnorm: 0.014137780375 xtb: 6.2.3 (830e466)
C         0.58588390587928    1.12786456011653   -2.63403177547923
C         0.29839866673460    0.52107287397202   -1.28709828450425
C         1.24313082708085   -0.59792199492182   -0.95730128533692
O        -0.22283633190185    1.65614663730302   -3.34337892339104
O         1.75960624658305    3.24052803320792   -0.86886044558510
O         2.40395978787347   -0.62837895470230   -1.27167839640758
H         1.48070023838579    3.86601674202248   -1.53523524259121
H         2.65508048277729    2.96160828162129   -1.08714712317416
H         1.64823056928140    1.04982932765304   -2.91914421451133
H         0.77837880819561   -1.42226231674727   -0.37285750430072
H        -0.74835499227454    0.23277663658128   -1.18561327809399
H         0.50682179138472    1.33232017389374   -0.57345352662488
12
 energy: -21.613653755056 gnorm: 0.017471143551 xtb: 6.2.3 (830e466)
C         0.56511244512859    1.10087096576954   -2.65616347845820
C         0.29513836006196    0.51824047398496   -1.29477080512876
C         1.24093735575112   -0.59953465068696   -0.95859910233272
O        -0.26718073793001    1.56915779715880   -3.38718164679958
O         1.77254993946566    3.24255648042369   -0.85281935267036
O         2.38768735665307   -0.65403789640660   -1.29576549658133
H         1.51711879774471    3.91361259055529   -1.49775951119858
H         2.68481280991635    3.00292380366997   -1.05987828950828
H         1.64456000860966    1.07642735781296   -2.91996307138993
H         0.78611137862736   -1.39770257000292   -0.34301618204531
H        -0.74994425619276    0.22855890925249   -1.17650102749556
H         0.51209654216398    1.33852673846872   -0.59338203639187
12
 energy: -21.613546854325 gnorm: 0.022906211388 xtb: 6.2.3 (830e466)
C         0.56589898869486    1.09523356173704   -2.65636521969704
C         0.29554728018572    0.51650736154082   -1.29241199916440
C         1.24150910942810   -0.60099831298150   -0.95551015004877
O        -0.25210781918469    1.58630275656753   -3.36701003995964
O         1.78240143889282    3.26370849538829   -0.85151649936295
O         2.38854027404855   -0.64663277547346   -1.27264363344510
H         1.51289122255156    3.91877341644224   -1.49905358209563
H         2.67949033200270    3.00501012639971   -1.06373164475991
H         1.62893003093563    1.04432972437342   -2.93874464354753
H         0.78798215659840   -1.40751342728093   -0.36631661945954
H        -0.74900879184930    0.22635320805668   -1.17940694187031
H         0.50692577769533    1.33852586523008   -0.59308902658966
12
 energy: -21.613812000435 gnorm: 0.010318956907 xtb: 6.2.3 (830e466)
C         0.57094077164104    1.09850914752027   -2.66112050464232
C         0.30151673631308    0.52571950874891   -1.29506917767249
C         1.24202851381568   -0.59507152675581   -0.95622273241715
O        -0.25651074569349    1.56751961600442   -3.38811921601143
O         1.77028691469861    3.24329364590793   -0.84436970911768
O         2.38991129663810   -0.65715734501818   -1.30691954310045
H         1.50260788263074    3.90398067432849   -1.48656203779419
H         2.67143686661671    2.99405130760925   -1.05021739990830
H         1.63312163465023    1.05443534940509   -2.93775643539690
H         0.78504576525881   -1.38940555812302   -0.33306220355050
H        -0.74451449658878    0.24462398362263   -1.17595573081011
H         0.52312886001895    1.34910119674994   -0.60042530957896
12
 energy: -21.613879579871 gnorm: 0.007037077749 xtb: 6.2.3 (830e466)
C         0.56217298955963    1.09004545303616   -2.67089077062958
C         0.30041674499477    0.52598305647085   -1.29950789099310
C         1.24172944059428   -0.59368762376687   -0.95848960832067
O        -0.27259614994169    1.53922942996788   -3.40225358709033
O         1.77046515048541    3.23668626515381   -0.83921519666953
O         2.38370280522730   -0.66284365662031   -1.31493801516332
H         1.50966632529927    3.90694537413920   -1.47540231234684
H         2.68761175701697    3.00884993924688   -1.03444921760433
H         1.63336242168791    1.06710392491567   -2.94048912814581
H         0.78837604541553   -1.37863544455415   -0.31896317908934
H        -0.74568810746553    0.24659817712540   -1.17014089024704
H         0.52978057712582    1.35332510488541   -0.61106020370064
12
 energy: -21.613961147669 gnorm: 0.004285920861 xtb: 6.2.3 (830e466)
C         0.56238165818043    1.09180945913451   -2.67200094594237
C         0.30361058215734    0.53246175615120   -1.29869304356304
C         1.24324387279784   -0.58793664484604   -0.95637715363382
O        -0.27566095749494    1.52987094123303   -3.40479403488892
O         1.76129559064664    3.21426508027169   -0.84939922961282
O         2.38326868250044   -0.66224446869508   -1.31637302300813
H         1.51073162614323    3.91291801899737   -1.45948613712839
H         2.68768425595523    3.01656458097366   -1.01915321318711
H         1.62936391487683    1.04843090359333   -2.95637106715899
H         0.78910128128403   -1.37340700929355   -0.32140512486354
H        -0.74208432189783    0.25546314017728   -1.16691813400810
H         0.53606381485029    1.36140424230256   -0.61482889300509
12
 energy: -21.614014870870 gnorm: 0.003291702625 xtb: 6.2.3 (830e466)
C         0.55962251639858    1.07876503711023   -2.68107896281647
C         0.30657902868614    0.53560531698835   -1.30056096626408
C         1.24261487651638   -0.58687026926339   -0.95754536400186
O        -0.28031882893450    1.52207672349146   -3.40746840342819
O         1.75671706485745    3.20480547250808   -0.85032819652336
O         2.38204381229085   -0.66585308053815   -1.31799348717891
H         1.51202978828551    3.92072476920398   -1.44332550368408
H         2.68667971871258    3.02309350254919   -1.00433566499005
H         1.62548720802702    1.03982591659658   -2.96949137154922
H         0.79019903232729   -1.36585262152522   -0.31646667376640
H        -0.73934418823917    0.26521059070038   -1.16220590988385
H         0.54668997107124    1.36806864217853   -0.62499949591369
12
 energy: -21.614067978887 gnorm: 0.003665593338 xtb: 6.2.3 (830e466)
C         0.55545376558949    1.06772448153809   -2.69142081397738
C         0.30991041917447    0.53835756051293   -1.30405439763480
C         1.24262942747892   -0.58534154161895   -0.95784267995974
O        -0.28855735816858    1.50946456475513   -3.41450996425471
O         1.75875411716479    3.21167497164694   -0.83678113066089
O         2.38145518326670   -0.66991624981661   -1.32013093733354
H         1.51163898739406    3.92595089416368   -1.42765085177737
H         2.68676449506682    3.02968979811493   -0.98697082041554
H         1.61849202143752    1.02084522277927   -2.98944043464543
H         0.79045323350532   -1.35933965729515   -0.31160827234686
H        -0.73646401967739    0.27480250163500   -1.15708911963582
H         0.55846972776709    1.37568745358481   -0.63830057735789
12
 energy: -21.614242090909 gnorm: 0.006424007122 xtb: 6.2.3 (830e466)
C         0.53727615331033    1.02332714447691   -2.73365758721053
C         0.32332362493996    0.54979068948823   -1.31838838828924
C         1.24376427137991   -0.57779095642765   -0.95677833088588
O        -0.32267961310926    1.45738587171555   -3.44485858301598
O         1.75806877318970    3.21822399689066   -0.79771107358591
O         2.37857954213484   -0.68595239259270   -1.33050102589661
H         1.51255179786916    3.95415094216954   -1.35908487739389
H         2.69626523113198    3.06622515581944   -0.90968821489970
H         1.58970783816732    0.94668764822687   -3.06637967499253
H         0.79012483836207   -1.33441574157498   -0.29178029246318
H        -0.72481627308849    0.31292693394681   -1.13389987812132
H         0.60683381571107    1.40904070786152   -0.69307207324453
12
 energy: -21.614380439963 gnorm: 0.009545809887 xtb: 6.2.3 (830e466)
C         0.51182156000029    0.96863468043006   -2.78601303739285
C         0.33856878295981    0.56265065867286   -1.33961017106938
C         1.24490620334905   -0.56889017027656   -0.95938648981195
O        -0.36657505451948    1.38835173577493   -3.48486996643285
O         1.75837779204640    3.22059325358741   -0.75033870368924
O         2.37468791166020   -0.70269829849529   -1.34378805085925
H         1.51625700512248    3.99154810889087   -1.26862164309481
H         2.71380311069503    3.11708576918895   -0.81166643963814
H         1.55030393439817    0.85318644524257   -3.15714082144904
H         0.79145515751521   -1.29919101720971   -0.26219320482569
H        -0.71011089193085    0.35935610749177   -1.10634161010113
H         0.66550448870150    1.44897272670254   -0.76582986163412
12
 energy: -21.614512921356 gnorm: 0.008050040408 xtb: 6.2.3 (830e466)
C         0.49741590263402    0.94281924052463   -2.80814497337859
C         0.34289882479597    0.56615604569133   -1.35242102561043
C         1.24767944690680   -0.56138008707336   -0.95795868840432
O        -0.38688126265088    1.35022617491454   -3.50565023720086
O         1.77108868135258    3.23879747981569   -0.71312193918925
O         2.37276545506927   -0.70626395838305   -1.35025058046982
H         1.52036522348828    4.00848213535180   -1.22693651700792
H         2.72114388006459    3.13035465010280   -0.78310471382298
H         1.52988854415215    0.81514907067203   -3.18594481902812
H         0.79219862447866   -1.28338480652063   -0.25139136008753
H        -0.70299812289683    0.37517261330460   -1.09882251760018
H         0.68343480260290    1.46347144160006   -0.80205262819816
12
 energy: -21.614665003973 gnorm: 0.004160190213 xtb: 6.2.3 (830e466)
C         0.47875033958959    0.91464541491440   -2.82835883842262
C         0.34473574251066    0.57013639049054   -1.36872912943071
C         1.25101798703876   -0.55111845123581   -0.96067540627163
O        -0.41164322975773    1.30344916710514   -3.52670557321615
O         1.78438755688514    3.24476206977780   -0.68339287667950
O         2.37159489894867   -0.70418749587777   -1.35650876738476
H         1.53235075515652    4.03167749492421   -1.17501481807281
H         2.73738045706440    3.15283918752004   -0.75025628071243
H         1.50425924831280    0.77276916858757   -3.20816151448835
H         0.79626696677222   -1.25947219618574   -0.23894748592144
H        -0.69448905069440    0.39158647822055   -1.09728622494949
H         0.69438832817057    1.47251277175958   -0.84176308444792
12
 energy: -21.614728281920 gnorm: 0.008990925188 xtb: 6.2.3 (830e466)
C         0.44804281076846    0.85099182936050   -2.88069889920114
C         0.35690864461398    0.58718399646732   -1.39513567643399
C         1.25566915915623   -0.53272387347287   -0.96494604395532
O        -0.46027589595660    1.21481187892757   -3.57023927731951
O         1.79394474113019    3.25581598084280   -0.61763336482944
O         2.36708295860930   -0.71454390652225   -1.37640362608947
H         1.54228326702751    4.06461162326262   -1.07597585155327
H         2.75468674084443    3.19728430269717   -0.65687358418964
H         1.46000072424169    0.67475342788797   -3.28777117230646
H         0.80137948180158   -1.21167357585604   -0.21236668605599
H        -0.67711665025272    0.44225479067882   -1.07410771952543
H         0.74639401801229    1.51083352572712   -0.92364809853725
12
 energy: -21.614802524357 gnorm: 0.006197294757 xtb: 6.2.3 (830e466)
C         0.44815771151498    0.85010282593895   -2.87715519066648
C         0.35570570550098    0.59299885302282   -1.39611270940379
C         1.25678140612321   -0.52811895890179   -0.97063395023552
O        -0.46113410091100    1.20847910452473   -3.56711366503565
O         1.79370517529596    3.25996559625306   -0.60729088627717
O         2.36721474555685   -0.71011571900945   -1.38188689745284
H         1.54368009579941    4.04967404660346   -1.08372126054012
H         2.74963962921418    3.18696186378863   -0.65585349289459
H         1.46122885482649    0.67357580231824   -3.28187941766363
H         0.80632366513196   -1.20131406454522   -0.21380574937403
H        -0.67588277105400    0.44767496958344   -1.07739772042022
H         0.74357988299726    1.50971568042384   -0.92294906003279
12
 energy: -21.614832640557 gnorm: 0.005666888219 xtb: 6.2.3 (830e466)
C         0.44643222872156    0.84349143506521   -2.88006967418983
C         0.35831893363553    0.59947815076980   -1.39857518273280
C         1.25929111286459   -0.52064892284532   -0.96736233135299
O        -0.46621240652410    1.19360243146701   -3.57054555403934
O         1.78995945744265    3.24830535795184   -0.60654572856806
O         2.36705995755964   -0.70967018673345   -1.38439271485377
H         1.54767160866460    4.06086351958004   -1.06207000181541
H         2.74314369488553    3.17468964449309   -0.65768558479251
H         1.45908897984411    0.66871860737694   -3.28489494098342
H         0.80951843877370   -1.19173218860542   -0.21282936227578
H        -0.67159855564824    0.45646673449796   -1.07961256645458
H         0.74632654977659    1.51603541698307   -0.93121635793821
12
 energy: -21.614871847335 gnorm: 0.002907672635 xtb: 6.2.3 (830e466)
C         0.43538175761169    0.82475514608776   -2.89681778401218
C         0.36353338412994    0.60634970557346   -1.40891538761665
C         1.26076100537909   -0.51404881725092   -0.96995925670018
O        -0.48466896669791    1.16289385254315   -3.58461062529236
O         1.79213029849198    3.24950516163075   -0.58394255266164
O         2.36510310481180   -0.71262109342326   -1.39220570680443
H         1.55009002473167    4.06361012067518   -1.03371388723693
H         2.74908187951319    3.18433830498577   -0.62158282650310
H         1.44349517261927    0.64203072909281   -3.30997276181593
H         0.81479560887361   -1.17165421662800   -0.19904833536917
H        -0.66472228465895    0.47500606295794   -1.07496681758967
H         0.76401901519046    1.52943504375622   -0.96006405839409
12
 energy: -21.614889599927 gnorm: 0.002134409452 xtb: 6.2.3 (830e466)
C         0.43011569075758    0.81675195672407   -2.90394033758260
C         0.36636166200083    0.61103227494713   -1.41508779731861
C         1.26237650373931   -0.50817923274767   -0.97103241433925
O        -0.49413933545041    1.14647354334109   -3.58985713613703
O         1.79115896340154    3.24635725240418   -0.57356256666283
O         2.36389547994842   -0.71273445518140   -1.39742675444839
H         1.55154771401135    4.06125909860860   -1.02089142602116
H         2.74948684435528    3.18052873765819   -0.60281579682272
H         1.43639908678990    0.63298342451002   -3.32095131589155
H         0.82054661707275   -1.15705612622789   -0.19029192477500
H        -0.66101816006883    0.48583561932467   -1.07458473222601
H         0.77226893343791    1.53634790663991   -0.97535779777097
12
 energy: -21.614905642950 gnorm: 0.001982807021 xtb: 6.2.3 (830e466)
C         0.42201232453571    0.80403296779330   -2.91591851503043
C         0.37072207697564    0.61885464679698   -1.42488314370134
C         1.26577941384736   -0.49735351439602   -0.97246333544156
O        -0.50961436715670    1.11811812144228   -3.59940356930960
O         1.78950036913057    3.24074118630516   -0.55642566580624
O         2.36272280009753   -0.71223049330554   -1.40526851635112
H         1.55625700962780    4.06274160586600   -0.99502655427215
H         2.74667084975868    3.16723503703004   -0.57743487518252
H         1.42563237297066    0.61870415955421   -3.33986744984094
H         0.83034914136565   -1.13110508063542   -0.17534794411132
H        -0.65472376999868    0.50228117096395   -1.07468413117205
H         0.78369177884109    1.54758019258603   -0.99907629977650
12
 energy: -21.614903977136 gnorm: 0.004221062733 xtb: 6.2.3 (830e466)
C         0.41511221541465    0.79718737680877   -2.92301643099983
C         0.37259511359151    0.62524442432242   -1.43251912936299