12
 energy: -21.564886000799 gnorm: 0.000345813733 xtb: 6.2.3 (830e466)
C         1.30700600849450    1.29889128600766   -2.61171637588274
C         0.64149889536892    0.11699610360750   -1.95202597639557
C         0.73460218367352   -0.18967020414225   -0.66056325760450
O         0.76996739765594    2.56618563733699   -2.27814478096350
O         1.29303806773479    2.99648863368462   -1.01510173170415
O         1.38573304356464    0.49382912708279    0.29460755157995
H         0.71555220071906    3.73851941452757   -0.79633343039591
H         2.38755866272196    1.31204616342308   -2.40993999777937
H         1.15436800224865    1.25508145775784   -3.69185277858859
H         0.26142124954964   -1.07667012408171   -0.26119731771395
H         0.05261147749912   -0.51928173342930   -2.59004583450605
H         1.68564281076918    1.34718423822482   -0.06348607004579
