12
 energy: -21.566417485223 gnorm: 0.000967352400 xtb: 6.2.3 (830e466)
C         1.30341013392109    1.09627112176137   -1.26911146220828
C        -0.19617558010939    0.79216713139740   -1.21480894579182
C         2.10837014763481   -0.15869049848514   -1.52911663344208
O         1.64892912533318    2.00719013463151   -2.28751001561799
O         1.19725205505511    3.31144394696841   -1.91855340069849
O         1.97320650474485   -1.18444357503166   -0.92958529021786
H         1.53172369951756    3.85307557569571   -2.64512902064273
H         1.62545527648216    1.50460925720880   -0.29702812837597
H        -0.53576161806413    0.44176996713717   -2.18644133398122
H         2.85234481913529   -0.03706370655669   -2.33658452825046
H        -0.37547820129993    0.02125274982140   -0.47175850213871
H        -0.74426636235056    1.69202789545170   -0.95017273863441
