12
 energy: -21.510277275050 gnorm: 0.000916805897 xtb: 6.2.3 (830e466)
C         0.66602824779594    1.05534941143131   -2.34601083046070
C        -0.49750018704033    0.65406547695707   -1.44697061088580
C         3.24845699995595    0.13541876128182   -0.67738153371016
O         0.97257400752069    2.42538983622653   -2.29063190340948
O         1.57628674404864    2.73007180994435   -1.02842128519157
O         3.17173138371131    0.52191493228485    0.38037815729078
H         1.65386942361302    3.69111703351478   -1.07430853608919
H         1.56405499272286    0.47019461663849   -2.09382925275862
H         0.42085318569435    0.90895577665712   -3.40125163352563
H        -0.70332222382140   -0.40539426029420   -1.56776440635967
H        -1.38740050835948    1.22345620187783   -1.70428023246019
H        -0.24565206583805    0.85010040348751   -0.40774793243652
