      -----------------------------------------------------------      
     |                   =====================                   |     
     |                           x T B                           |     
     |                   =====================                   |     
     |                         S. Grimme                         |     
     |          Mulliken Center for Theoretical Chemistry        |     
     |                    University of Bonn                     |     
      -----------------------------------------------------------      

   * xtb version 6.2.3 (830e466) compiled by 'ehlert@majestix' on 2020-03-16

   xtb is free software: you can redistribute it and/or modify it under
   the terms of the GNU Lesser General Public License as published by
   the Free Software Foundation, either version 3 of the License, or
   (at your option) any later version.
   
   xtb is distributed in the hope that it will be useful,
   but WITHOUT ANY WARRANTY; without even the implied warranty of
   MERCHANTABILITY or FITNESS FOR A PARTICULAR PURPOSE.  See the
   GNU Lesser General Public License for more details.
   
   Cite this work as:
   * S. Grimme, C. Bannwarth, P. Shushkov, J. Chem. Theory Comput., 2017,
     13, 1989-2009. DOI: 10.1021/acs.jctc.7b00118
   * C. Bannwarth, S. Ehlert and S. Grimme., J. Chem. Theory Comput., 2019,
     15, 1652-1671. DOI: 10.1021/acs.jctc.8b01176
   * P. Pracht, E. Caldeweyher, S. Ehlert, S. Grimme, ChemRxiv, 2019, preprint.
     DOI: 10.26434/chemrxiv.8326202.v1
   
   for DFT-D4:
   * E. Caldeweyher, C. Bannwarth and S. Grimme, J. Chem. Phys., 2017,
     147, 034112. DOI: 10.1063/1.4993215
   * E. Caldeweyher, S. Ehlert, A. Hansen, H. Neugebauer, S. Spicher,
     C. Bannwarth and S. Grimme, J. Chem. Phys., 2019, 150, 154122.
     DOI: 10.1063/1.5090222
   
   for sTDA-xTB:
   * S. Grimme and C. Bannwarth, J. Chem. Phys., 2016, 145, 054103.
     DOI: 10.1063/1.4959605
   
   in the mass-spec context:
   * V. Asgeirsson, C. Bauer and S. Grimme, Chem. Sci., 2017, 8, 4879.
     DOI: 10.1039/c7sc00601b
   
   for metadynamics refer to:
   * S. Grimme, J. Chem. Theory Comput., 2019, 155, 2847-2862
     DOI: 10.1021/acs.jctc.9b00143
   
   with help from (in alphabetical order)
   C. Bannwarth, F. Bohle, G. Brandenburg, E. Caldeweyher, M. Checinski,
   S. Dohm, S. Ehlert, S. Ehrlich, F. März, H. Neugebauer, J. Pisarek,
   P. Pracht, P. Shushkov, and S. Spicher.
   
 * started run on 2020/12/23 at 21:41:37.051     

           -------------------------------------------------
          |                Calculation Setup                |
           -------------------------------------------------

          program call               : xtb -c 0 -u 0 -a 1.0 --iterations 100 --opt normal --namespace product_15 /scratch/bell/zhao922/YARP/paper-example/potential_product/test/reaction_channel/pp_0/pp_19_0.xyz
          hostname                   : bell-fe05.rcac.purdue.edu
          calculation namespace      : product_15
          coordinate file            : /scratch/bell/zhao922/YARP/paper-example/potential_product/test/reaction_channel/pp_0/pp_19_0.xyz
          omp threads                :                    32
          number of atoms            :                    12
          number of electrons        :                    36
          charge                     :                     0
          spin                       :                   0.0
          first test random number   :      0.39454128850997

           ------------------------------------------------- 
          |                 G F N 2 - x T B                 |
          | Geometry, Frequencies, Noncovalent interactions |
          |            JCTC 2019 parametrisation            |
           ------------------------------------------------- 
             k(s)              :                1.8500
             k(p)              :                2.2300
             k(d)              :                2.2300
             k(f)              :                2.0000
             kEN (H0ij)        :               -2.0000
             D4 a1             :                0.5200
             D4 a2             :                5.0000
             D4 s6             :                1.0000
             D4 s8             :                2.7000
             D4 s9             :                5.0000
             alphaj            :                2.0000

  Z AO/shell   Hii/eV     exponent
  1     Wed Apr 25 08:07:45 CEST 2018   EN: 2.200 GM2: 0.406  GM3: 0.0800  RAES: 1.40
     1s    -10.707211    1.230000
  6     Wed Apr 25 08:07:45 CEST 2018   EN: 2.550 GM2: 0.538  GM3: 0.1500  RAES: 3.00
     2s    -13.970922    2.096432
     2p    -10.063292    1.800000
  8     Wed Apr 25 08:07:45 CEST 2018   EN: 3.440 GM2: 0.452  GM3:-0.0517  RAES: 1.80
     2s    -20.229985    2.439742
     2p    -15.503117    2.137023

           ------------------------------------------------- 
          |        Self-Consistent Charge Iterations        |
           ------------------------------------------------- 

          ...................................................
          :                      SETUP                      :
          :.................................................:
          :  # basis functions                  30          :
          :  # atomic orbitals                  30          :
          :  # shells                           18          :
          :  # electrons                        36          :
          :  max. iterations                   100          :
          :  Hamiltonian                  GFN2-xTB          :
          :  restarted?                      false          :
          :  GBSA solvation                  false          :
          :  PC potential                    false          :
          :  electronic temp.          300.0000000     K    :
          :  accuracy                    1.0000000          :
          :  -> integral cutoff          0.2500000E+02      :
          :  -> integral neglect         0.1000000E-07      :
          :  -> SCF convergence          0.1000000E-05 Eh   :
          :  -> wf. convergence          0.1000000E-03 e    :
          :  Broyden damping             0.4000000          :
          ...................................................

 iter      E             dE          RMSdq      gap      omega  full diag
   1    -21.7003590 -0.217004E+02  0.495E+00    5.10       0.0  T
   2    -21.7107784 -0.104195E-01  0.305E+00    4.86       1.0  T
   3    -21.6939399  0.168386E-01  0.189E+00    5.13       1.0  T
   4    -21.7203260 -0.263861E-01  0.279E-01    4.91       1.0  T
   5    -21.7205762 -0.250237E-03  0.955E-02    4.93       1.0  T
   6    -21.7205822 -0.596775E-05  0.329E-02    4.93       1.0  T
   7    -21.7205833 -0.110769E-05  0.999E-03    4.93       2.9  T
   8    -21.7205834 -0.104415E-06  0.210E-03    4.93      13.7  T
   9    -21.7205834 -0.891493E-08  0.858E-04    4.93      33.6  T
  10    -21.7205834 -0.265304E-08  0.345E-04    4.93      83.7  T

   *** convergence criteria satisfied after 10 iterations ***

         #    Occupation            Energy/Eh            Energy/eV
      -------------------------------------------------------------
         1        2.0000           -0.7360823             -20.0298
       ...           ...                  ...                  ...
        12        2.0000           -0.5147014             -14.0057
        13        2.0000           -0.4924508             -13.4003
        14        2.0000           -0.4756870             -12.9441
        15        2.0000           -0.4523257             -12.3084
        16        2.0000           -0.4441466             -12.0858
        17        2.0000           -0.4154494             -11.3050
        18        2.0000           -0.3812741             -10.3750 (HOMO)
        19                         -0.2002366              -5.4487 (LUMO)
        20                         -0.0354103              -0.9636
        21                          0.0240312               0.6539
        22                          0.0873208               2.3761
        23                          0.0930384               2.5317
       ...                                ...                  ...
        30                          0.5743506              15.6289
      -------------------------------------------------------------
                  HL-Gap            0.1810375 Eh            4.9263 eV
             Fermi-level           -0.2907554 Eh           -7.9119 eV

 SCC (total)                   0 d,  0 h,  0 min,  0.090 sec
 SCC setup                      ...        0 min,  0.000 sec (  0.288%)
 Dispersion                     ...        0 min,  0.000 sec (  0.059%)
 integral evaluation            ...        0 min,  0.081 sec ( 90.612%)
 zeroth order Hamiltonian       ...        0 min,  0.000 sec (  0.083%)
 iterations                     ...        0 min,  0.006 sec (  6.357%)
 molecular gradient             ...        0 min,  0.002 sec (  2.332%)
 printout                       ...        0 min,  0.000 sec (  0.082%)

         :::::::::::::::::::::::::::::::::::::::::::::::::::::
         ::                     SUMMARY                     ::
         :::::::::::::::::::::::::::::::::::::::::::::::::::::
         :: total energy             -21.546286358463 Eh    ::
         :: gradient norm              0.126021758942 Eh/a0 ::
         :: HOMO-LUMO gap              4.926281676422 eV    ::
         ::.................................................::
         :: SCC energy               -21.720583385423 Eh    ::
         :: -> isotropic ES            0.045447066742 Eh    ::
         :: -> anisotropic ES         -0.001165074582 Eh    ::
         :: -> anisotropic XC         -0.009491799890 Eh    ::
         :: -> dispersion             -0.005720523777 Eh    ::
         :: repulsion energy           0.174295120570 Eh    ::
         :: add. restraining           0.000000000000 Eh    ::
         :::::::::::::::::::::::::::::::::::::::::::::::::::::

      ----------------------------------------------------------- 
     |                   =====================                   |
     |                        A N C O P T                        |
     |                   =====================                   |
     |               Approximate Normal Coordinate               |
     |                Rational Function Optimizer                |
      ----------------------------------------------------------- 

          ...................................................
          :                      SETUP                      :
          :.................................................:
          :   optimization level            normal          :
          :   max. optcycles                   200          :
          :   ANC micro-cycles                  20          :
          :   degrees of freedom                30          :
          :.................................................:
          :   RF solver                   davidson          :
          :   write xtbopt.log                true          :
          :   linear?                        false          :
          :   energy convergence         0.5000000E-05 Eh   :
          :   grad. convergence          0.1000000E-02 Eh/α :
          :   maximium RF displ.         1.0000000          :
          :   Hlow (freq-cutoff)         0.1000000E-01      :
          :   Hmax (freq-cutoff)         5.0000000          :
          :   S6 in model hess.         20.0000000          :
          ...................................................

generating ANC from model Hessian ...
Using Lindh-Hessian (1995)
 Shifting diagonal of input Hessian by   5.517635808231559E-003
 Lowest  eigenvalues of input Hessian
   -0.000000   -0.000000   -0.000000    0.000000    0.000000    0.000000
    0.010000    0.010454    0.012518    0.024739    0.029796    0.038170
    0.048462    0.058294    0.063185    0.078525    0.088002    0.102014
 Highest eigenvalues
    1.180002    1.306161    1.396202    1.625702    1.744170    2.028842
 

........................................................................
.............................. CYCLE    1 ..............................
........................................................................
   1    -21.7205834 -0.217206E+02  0.129E-04    4.93       0.0  T
   2    -21.7205834 -0.291784E-10  0.914E-05    4.93     315.7  T
   3    -21.7205834 -0.223466E-11  0.680E-05    4.93     424.8  T
     SCC iter.                  ...        0 min,  0.001 sec
     gradient                   ...        0 min,  0.083 sec
 * total energy  :   -21.5462863 Eh     change        0.9672792E-08 Eh
   gradient norm :     0.1260219 Eh/α   predicted     0.0000000E+00 (-100.00%)
   displ. norm   :     0.2386110 α      lambda       -0.1747731E-01
   maximum displ.:     0.0961179 α      in ANC's #11, #15, #18, ...

........................................................................
.............................. CYCLE    2 ..............................
........................................................................
   1    -21.7408138 -0.217408E+02  0.410E-01    5.03       0.0  T
   2    -21.7409146 -0.100806E-03  0.256E-01    5.04       1.0  T
   3    -21.7408518  0.628041E-04  0.111E-01    5.05       1.0  T
   4    -21.7409435 -0.916983E-04  0.326E-02    5.04       1.0  T
   5    -21.7409492 -0.577874E-05  0.102E-02    5.04       2.8  T
   6    -21.7409495 -0.219729E-06  0.580E-03    5.04       5.0  T
   7    -21.7409495 -0.727028E-07  0.184E-03    5.04      15.7  T
     SCC iter.                  ...        0 min,  0.002 sec
     gradient                   ...        0 min,  0.001 sec
 * total energy  :   -21.5584848 Eh     change       -0.1219840E-01 Eh
   gradient norm :     0.0504282 Eh/α   predicted    -0.9236191E-02 ( -24.28%)
   displ. norm   :     0.2051560 α      lambda       -0.5780514E-02
   maximum displ.:     0.0810400 α      in ANC's #6, #18, #14, ...

........................................................................
.............................. CYCLE    3 ..............................
........................................................................
   1    -21.7484065 -0.217484E+02  0.338E-01    5.09       0.0  T
   2    -21.7484660 -0.594233E-04  0.208E-01    5.10       1.0  T
   3    -21.7484783 -0.123264E-04  0.368E-02    5.11       1.0  T
   4    -21.7484803 -0.199595E-05  0.151E-02    5.10       1.9  T
   5    -21.7484811 -0.818221E-06  0.948E-03    5.11       3.0  T
   6    -21.7484815 -0.407642E-06  0.497E-03    5.10       5.8  T
   7    -21.7484816 -0.723499E-07  0.158E-03    5.10      18.2  T
     SCC iter.                  ...        0 min,  0.002 sec
     gradient                   ...        0 min,  0.001 sec
 * total energy  :   -21.5617043 Eh     change       -0.3219556E-02 Eh
   gradient norm :     0.0073722 Eh/α   predicted    -0.3011904E-02 (  -6.45%)
   displ. norm   :     0.0751856 α      lambda       -0.2307473E-03
   maximum displ.:     0.0338685 α      in ANC's #1, #2, #4, ...

........................................................................
.............................. CYCLE    4 ..............................
........................................................................
   1    -21.7483769 -0.217484E+02  0.936E-02    5.10       0.0  T
   2    -21.7483784 -0.143970E-05  0.585E-02    5.11       1.0  T
   3    -21.7483710  0.740626E-05  0.313E-02    5.10       1.0  T
   4    -21.7483800 -0.905085E-05  0.379E-03    5.11       7.6  T
   5    -21.7483801 -0.246256E-07  0.215E-03    5.11      13.5  T
   6    -21.7483801 -0.847476E-08  0.796E-04    5.11      36.3  T
     SCC iter.                  ...        0 min,  0.002 sec
     gradient                   ...        0 min,  0.001 sec
 * total energy  :   -21.5618563 Eh     change       -0.1520405E-03 Eh
   gradient norm :     0.0054564 Eh/α   predicted    -0.1160251E-03 ( -23.69%)
   displ. norm   :     0.0894929 α      lambda       -0.1328050E-03
   maximum displ.:     0.0519988 α      in ANC's #4, #2, #1, ...

........................................................................
.............................. CYCLE    5 ..............................
........................................................................
   1    -21.7480216 -0.217480E+02  0.122E-01    5.11       0.0  T
   2    -21.7480235 -0.192293E-05  0.755E-02    5.11       1.0  T
   3    -21.7480099  0.136509E-04  0.436E-02    5.10       1.0  T
   4    -21.7480265 -0.166658E-04  0.442E-03    5.11       6.5  T
   5    -21.7480266 -0.159438E-07  0.238E-03    5.11      12.1  T
   6    -21.7480266 -0.697803E-08  0.537E-04    5.11      53.8  T
     SCC iter.                  ...        0 min,  0.002 sec
     gradient                   ...        0 min,  0.001 sec
 * total energy  :   -21.5619531 Eh     change       -0.9673070E-04 Eh
   gradient norm :     0.0041020 Eh/α   predicted    -0.6693333E-04 ( -30.80%)
   displ. norm   :     0.1415734 α      lambda       -0.1372047E-03
   maximum displ.:     0.0873090 α      in ANC's #4, #2, #1, ...

........................................................................
.............................. CYCLE    6 ..............................
........................................................................
   1    -21.7474661 -0.217475E+02  0.207E-01    5.10       0.0  T
   2    -21.7474708 -0.469142E-05  0.128E-01    5.11       1.0  T
   3    -21.7474378  0.330048E-04  0.644E-02    5.10       1.0  T
   4    -21.7474768 -0.389947E-04  0.692E-03    5.10       4.2  T
   5    -21.7474768 -0.425581E-07  0.357E-03    5.10       8.1  T
   6    -21.7474768 -0.858524E-08  0.890E-04    5.10      32.4  T
   7    -21.7474768 -0.166411E-08  0.301E-04    5.10      96.1  T
     SCC iter.                  ...        0 min,  0.002 sec
     gradient                   ...        0 min,  0.001 sec
 * total energy  :   -21.5620396 Eh     change       -0.8651386E-04 Eh
   gradient norm :     0.0047296 Eh/α   predicted    -0.6997903E-04 ( -19.11%)
   displ. norm   :     0.0782590 α      lambda       -0.6167217E-04
   maximum displ.:     0.0491913 α      in ANC's #4, #2, #1, ...

........................................................................
.............................. CYCLE    7 ..............................
........................................................................
   1    -21.7477190 -0.217477E+02  0.122E-01    5.10       0.0  T
   2    -21.7477205 -0.145628E-05  0.758E-02    5.10       1.0  T
   3    -21.7477161  0.433816E-05  0.236E-02    5.10       1.2  T
   4    -21.7477216 -0.548007E-05  0.428E-03    5.10       6.7  T
   5    -21.7477216 -0.217897E-07  0.218E-03    5.10      13.2  T
   6    -21.7477216 -0.304959E-08  0.410E-04    5.10      70.5  T
     SCC iter.                  ...        0 min,  0.002 sec
     gradient                   ...        0 min,  0.001 sec
 * total energy  :   -21.5620866 Eh     change       -0.4698328E-04 Eh
   gradient norm :     0.0054847 Eh/α   predicted    -0.3102374E-04 ( -33.97%)
   displ. norm   :     0.1029627 α      lambda       -0.9055994E-04
   maximum displ.:     0.0640172 α      in ANC's #2, #4, #1, ...

........................................................................
.............................. CYCLE    8 ..............................
........................................................................
   1    -21.7485773 -0.217486E+02  0.158E-01    5.10       0.0  T
   2    -21.7485800 -0.262103E-05  0.984E-02    5.10       1.0  T
   3    -21.7485806 -0.660683E-06  0.116E-02    5.10       2.5  T
   4    -21.7485814 -0.769716E-06  0.632E-03    5.10       4.6  T
   5    -21.7485815 -0.146667E-06  0.305E-03    5.10       9.5  T
   6    -21.7485815 -0.138569E-07  0.580E-04    5.10      49.8  T
   7    -21.7485815 -0.857572E-09  0.302E-04    5.10      95.6  T
     SCC iter.                  ...        0 min,  0.087 sec
     gradient                   ...        0 min,  0.001 sec
 * total energy  :   -21.5621475 Eh     change       -0.6090544E-04 Eh
   gradient norm :     0.0041684 Eh/α   predicted    -0.4576037E-04 ( -24.87%)
   displ. norm   :     0.1010625 α      lambda       -0.4506934E-04
   maximum displ.:     0.0647572 α      in ANC's #2, #4, #1, ...

........................................................................
.............................. CYCLE    9 ..............................
........................................................................
   1    -21.7485010 -0.217485E+02  0.149E-01    5.10       0.0  T
   2    -21.7485030 -0.200705E-05  0.924E-02    5.10       1.0  T
   3    -21.7485028  0.200259E-06  0.126E-02    5.10       2.3  T
   4    -21.7485040 -0.123623E-05  0.537E-03    5.10       5.4  T
   5    -21.7485041 -0.101441E-06  0.274E-03    5.10      10.6  T
   6    -21.7485041 -0.820937E-08  0.444E-04    5.10      65.0  T
     SCC iter.                  ...        0 min,  0.002 sec
     gradient                   ...        0 min,  0.001 sec
 * total energy  :   -21.5621801 Eh     change       -0.3264434E-04 Eh
   gradient norm :     0.0045973 Eh/α   predicted    -0.2276557E-04 ( -30.26%)
   displ. norm   :     0.0946400 α      lambda       -0.5910585E-04
   maximum displ.:     0.0647051 α      in ANC's #2, #4, #1, ...

........................................................................
.............................. CYCLE   10 ..............................
........................................................................
   1    -21.7490339 -0.217490E+02  0.141E-01    5.11       0.0  T
   2    -21.7490362 -0.222997E-05  0.868E-02    5.11       1.0  T
   3    -21.7490362 -0.734231E-08  0.121E-02    5.11       2.4  T
   4    -21.7490372 -0.977392E-06  0.570E-03    5.11       5.1  T
   5    -21.7490373 -0.132869E-06  0.256E-03    5.11      11.3  T
   6    -21.7490373 -0.115593E-07  0.791E-04    5.11      36.5  T
     SCC iter.                  ...        0 min,  0.001 sec
     gradient                   ...        0 min,  0.001 sec
 * total energy  :   -21.5622159 Eh     change       -0.3573966E-04 Eh
   gradient norm :     0.0017388 Eh/α   predicted    -0.2981723E-04 ( -16.57%)
   displ. norm   :     0.2540096 α      lambda       -0.5448582E-04
   maximum displ.:     0.1589892 α      in ANC's #2, #4, #3, ...

........................................................................
.............................. CYCLE   11 ..............................
........................................................................
   1    -21.7464655 -0.217465E+02  0.372E-01    5.11       0.0  T
   2    -21.7464767 -0.112316E-04  0.228E-01    5.11       1.0  T
   3    -21.7464661  0.106119E-04  0.414E-02    5.11       1.0  T
   4    -21.7464823 -0.162024E-04  0.116E-02    5.11       2.5  T
   5    -21.7464827 -0.466941E-06  0.554E-03    5.11       5.2  T
   6    -21.7464828 -0.155437E-07  0.137E-03    5.11      21.1  T
   7    -21.7464828 -0.269702E-08  0.331E-04    5.11      87.2  T
   8    -21.7464828 -0.230294E-09  0.178E-04    5.11     162.4  T
     SCC iter.                  ...        0 min,  0.002 sec
     gradient                   ...        0 min,  0.001 sec
 * total energy  :   -21.5620940 Eh     change        0.1218521E-03 Eh
   gradient norm :     0.0176879 Eh/α   predicted    -0.2802367E-04 (-123.00%)
   displ. norm   :     0.1242269 α      lambda       -0.3174174E-03
   maximum displ.:     0.0749247 α      in ANC's #4, #2, #1, ...

........................................................................
.............................. CYCLE   12 ..............................
........................................................................
   1    -21.7484479 -0.217484E+02  0.181E-01    5.11       0.0  T
   2    -21.7484523 -0.445004E-05  0.111E-01    5.11       1.0  T
   3    -21.7484476  0.471935E-05  0.263E-02    5.11       1.1  T
   4    -21.7484538 -0.622603E-05  0.727E-03    5.11       4.0  T
   5    -21.7484541 -0.275673E-06  0.272E-03    5.11      10.6  T
   6    -21.7484541 -0.536098E-08  0.106E-03    5.11      27.3  T
     SCC iter.                  ...        0 min,  0.002 sec
     gradient                   ...        0 min,  0.001 sec
 * total energy  :   -21.5622574 Eh     change       -0.1634339E-03 Eh
   gradient norm :     0.0045249 Eh/α   predicted    -0.1611568E-03 (  -1.39%)
   displ. norm   :     0.0364106 α      lambda       -0.3186749E-04
   maximum displ.:     0.0244180 α      in ANC's #3, #1, #2, ...

........................................................................
.............................. CYCLE   13 ..............................
........................................................................
   1    -21.7489069 -0.217489E+02  0.479E-02    5.11       0.0  T
   2    -21.7489073 -0.354205E-06  0.296E-02    5.11       1.0  T
   3    -21.7489068  0.453641E-06  0.824E-03    5.11       3.5  T
   4    -21.7489075 -0.631654E-06  0.204E-03    5.11      14.2  T
   5    -21.7489075 -0.119052E-07  0.708E-04    5.11      40.8  T
     SCC iter.                  ...        0 min,  0.001 sec
     gradient                   ...        0 min,  0.001 sec
 * total energy  :   -21.5622822 Eh     change       -0.2471125E-04 Eh
   gradient norm :     0.0019623 Eh/α   predicted    -0.1595418E-04 ( -35.44%)
   displ. norm   :     0.1405119 α      lambda       -0.4413084E-04
   maximum displ.:     0.0896124 α      in ANC's #3, #2, #1, ...

........................................................................
.............................. CYCLE   14 ..............................
........................................................................
   1    -21.7491928 -0.217492E+02  0.189E-01    5.11       0.0  T
   2    -21.7491962 -0.341257E-05  0.117E-01    5.11       1.0  T
   3    -21.7491973 -0.116022E-05  0.125E-02    5.11       2.3  T
   4    -21.7491982 -0.819863E-06  0.682E-03    5.11       4.2  T
   5    -21.7491983 -0.130301E-06  0.277E-03    5.11      10.4  T
   6    -21.7491983 -0.192207E-07  0.687E-04    5.11      42.0  T
   7    -21.7491983 -0.103015E-08  0.234E-04    5.11     123.3  T
     SCC iter.                  ...        0 min,  0.002 sec
     gradient                   ...        0 min,  0.001 sec
 * total energy  :   -21.5623343 Eh     change       -0.5214288E-04 Eh
   gradient norm :     0.0016445 Eh/α   predicted    -0.2226027E-04 ( -57.31%)
   displ. norm   :     0.4477484 α      lambda       -0.1054577E-03
   maximum displ.:     0.2647475 α      in ANC's #2, #3, #4, ...

........................................................................
.............................. CYCLE   15 ..............................
........................................................................
   1    -21.7431265 -0.217431E+02  0.605E-01    5.09       0.0  T
   2    -21.7431700 -0.435351E-04  0.373E-01    5.09       1.0  T
   3    -21.7431933 -0.232953E-04  0.353E-02    5.09       1.0  T
   4    -21.7431953 -0.200683E-05  0.235E-02    5.09       1.2  T
   5    -21.7431972 -0.190633E-05  0.117E-02    5.09       2.5  T
   6    -21.7431976 -0.418246E-06  0.274E-03    5.09      10.5  T
   7    -21.7431977 -0.270152E-07  0.139E-03    5.09      20.8  T
   8    -21.7431977 -0.912193E-08  0.429E-04    5.09      67.2  T
   9    -21.7431977 -0.808850E-09  0.138E-04    5.09     208.5  T
     SCC iter.                  ...        0 min,  0.087 sec
     gradient                   ...        0 min,  0.001 sec
 * total energy  :   -21.5616883 Eh     change        0.6460257E-03 Eh
   gradient norm :     0.0336210 Eh/α   predicted    -0.5742753E-04 (-108.89%)
   displ. norm   :     0.2318905 α      lambda       -0.1487930E-02
   maximum displ.:     0.1377606 α      in ANC's #3, #2, #4, ...

........................................................................
.............................. CYCLE   16 ..............................
........................................................................
   1    -21.7479507 -0.217480E+02  0.330E-01    5.11       0.0  T
   2    -21.7479759 -0.252346E-04  0.203E-01    5.10       1.0  T
   3    -21.7479866 -0.106631E-04  0.236E-02    5.10       1.2  T
   4    -21.7479872 -0.619608E-06  0.110E-02    5.10       2.6  T
   5    -21.7479872  0.105771E-07  0.602E-03    5.11       4.8  T
   6    -21.7479874 -0.174978E-06  0.255E-03    5.10      11.3  T
   7    -21.7479874 -0.352048E-07  0.106E-03    5.10      27.2  T
     SCC iter.                  ...        0 min,  0.002 sec
     gradient                   ...        0 min,  0.001 sec
 * total energy  :   -21.5623685 Eh     change       -0.6802380E-03 Eh
   gradient norm :     0.0065225 Eh/α   predicted    -0.7839687E-03 (  15.25%)
   displ. norm   :     0.0128233 α      lambda       -0.2933534E-04
   maximum displ.:     0.0066725 α      in ANC's #1, #3, #5, ...

........................................................................
.............................. CYCLE   17 ..............................
........................................................................
   1    -21.7486805 -0.217487E+02  0.144E-02    5.11       0.0  T
   2    -21.7486807 -0.188535E-06  0.859E-03    5.11       3.4  T
   3    -21.7486806  0.294590E-07  0.401E-03    5.11       7.2  T
   4    -21.7486807 -0.774202E-07  0.167E-03    5.11      17.3  T
   5    -21.7486807 -0.141531E-07  0.554E-04    5.11      52.1  T
     SCC iter.                  ...        0 min,  0.002 sec
     gradient                   ...        0 min,  0.001 sec
 * total energy  :   -21.5623904 Eh     change       -0.2190459E-04 Eh
   gradient norm :     0.0033904 Eh/α   predicted    -0.1467164E-04 ( -33.02%)
   displ. norm   :     0.0263293 α      lambda       -0.2077486E-04
   maximum displ.:     0.0196388 α      in ANC's #2, #1, #25, ...

........................................................................
.............................. CYCLE   18 ..............................
........................................................................
   1    -21.7492448 -0.217492E+02  0.313E-02    5.11       0.0  T
   2    -21.7492451 -0.305082E-06  0.191E-02    5.11       1.5  T
   3    -21.7492451  0.497402E-07  0.473E-03    5.11       6.1  T
   4    -21.7492452 -0.133174E-06  0.211E-03    5.11      13.7  T
   5    -21.7492452 -0.262283E-07  0.820E-04    5.11      35.2  T
   6    -21.7492452 -0.108268E-08  0.359E-04    5.11      80.5  T
     SCC iter.                  ...        0 min,  0.001 sec
     gradient                   ...        0 min,  0.086 sec
 * total energy  :   -21.5624035 Eh     change       -0.1311894E-04 Eh
   gradient norm :     0.0009826 Eh/α   predicted    -0.1039658E-04 ( -20.75%)
   displ. norm   :     0.0460570 α      lambda       -0.9684389E-05
   maximum displ.:     0.0336013 α      in ANC's #2, #4, #1, ...

........................................................................
.............................. CYCLE   19 ..............................
........................................................................
   1    -21.7495500 -0.217496E+02  0.612E-02    5.11       0.0  T
   2    -21.7495504 -0.365331E-06  0.375E-02    5.11       1.0  T
   3    -21.7495505 -0.578404E-07  0.429E-03    5.11       6.7  T
   4    -21.7495506 -0.113529E-06  0.224E-03    5.11      12.9  T
   5    -21.7495506 -0.196330E-07  0.107E-03    5.11      27.1  T
   6    -21.7495506 -0.142742E-08  0.220E-04    5.11     131.0  T
   7    -21.7495506 -0.611990E-10  0.630E-05    5.11     458.3  T
     SCC iter.                  ...        0 min,  0.002 sec
     gradient                   ...        0 min,  0.001 sec
 * total energy  :   -21.5624161 Eh     change       -0.1260888E-04 Eh
   gradient norm :     0.0014479 Eh/α   predicted    -0.4846147E-05 ( -61.57%)
   displ. norm   :     0.3239835 α      lambda       -0.6162954E-04
   maximum displ.:     0.2411965 α      in ANC's #2, #4, #25, ...

........................................................................
.............................. CYCLE   20 ..............................
........................................................................
   1    -21.7474921 -0.217475E+02  0.428E-01    5.11       0.0  T
   2    -21.7475057 -0.135752E-04  0.261E-01    5.11       1.0  T
   3    -21.7475046  0.102447E-05  0.327E-02    5.10       1.0  T
   4    -21.7475134 -0.875253E-05  0.138E-02    5.11       2.1  T
   5    -21.7475139 -0.524952E-06  0.652E-03    5.11       4.4  T
   6    -21.7475140 -0.313585E-07  0.918E-04    5.11      31.4  T
   7    -21.7475140 -0.162819E-08  0.362E-04    5.11      79.7  T
     SCC iter.                  ...        0 min,  0.002 sec
     gradient                   ...        0 min,  0.001 sec
 * total energy  :   -21.5623739 Eh     change        0.4221215E-04 Eh
   gradient norm :     0.0136511 Eh/α   predicted    -0.3225357E-04 (-176.41%)
   displ. norm   :     0.1595227 α      lambda       -0.2254342E-03
   maximum displ.:     0.1177144 α      in ANC's #2, #4, #25, ...
 * RMSD in coord.:     0.4009596 α      energy gain  -0.1608758E-01 Eh

generating ANC from model Hessian ...
Using Lindh-Hessian (1995)
 Shifting diagonal of input Hessian by   6.287129818460569E-003
 Lowest  eigenvalues of input Hessian
   -0.000000   -0.000000   -0.000000    0.000000    0.000000    0.000000
    0.010000    0.010977    0.015551    0.024278    0.030112    0.038643
    0.052419    0.058156    0.059176    0.079129    0.090255    0.101933
 Highest eigenvalues
    1.215369    1.277114    1.341169    1.467061    1.712331    2.115709
 

........................................................................
.............................. CYCLE   21 ..............................
........................................................................
   1    -21.7491528 -0.217492E+02  0.213E-01    5.11       0.0  T
   2    -21.7491580 -0.515449E-05  0.130E-01    5.11       1.0  T
   3    -21.7491576  0.349982E-06  0.186E-02    5.11       1.6  T
   4    -21.7491601 -0.250424E-05  0.871E-03    5.11       3.3  T
   5    -21.7491605 -0.353980E-06  0.378E-03    5.11       7.6  T
   6    -21.7491605 -0.121724E-07  0.117E-03    5.11      24.7  T
   7    -21.7491605 -0.226246E-08  0.349E-04    5.11      82.7  T
   8    -21.7491605 -0.386805E-09  0.163E-04    5.11     177.2  T
     SCC iter.                  ...        0 min,  0.089 sec
     gradient                   ...        0 min,  0.001 sec
 * total energy  :   -21.5624561 Eh     change       -0.8216239E-04 Eh
   gradient norm :     0.0020706 Eh/α   predicted     0.0000000E+00 (-100.00%)
   displ. norm   :     0.0201157 α      lambda       -0.1312078E-04
   maximum displ.:     0.0153615 α      in ANC's #4, #3, #5, ...

........................................................................
.............................. CYCLE   22 ..............................
........................................................................
   1    -21.7492994 -0.217493E+02  0.338E-02    5.11       0.0  T
   2    -21.7492995 -0.148934E-06  0.211E-02    5.11       1.4  T
   3    -21.7492996 -0.371598E-07  0.276E-03    5.11      10.5  T
   4    -21.7492996 -0.509146E-07  0.130E-03    5.11      22.2  T
   5    -21.7492996 -0.503641E-08  0.412E-04    5.11      70.0  T
   6    -21.7492996 -0.198870E-09  0.139E-04    5.11     207.2  T
     SCC iter.                  ...        0 min,  0.002 sec
     gradient                   ...        0 min,  0.001 sec
 * total energy  :   -21.5624674 Eh     change       -0.1126924E-04 Eh
   gradient norm :     0.0008756 Eh/α   predicted    -0.6563349E-05 ( -41.76%)
   displ. norm   :     0.1287759 α      lambda       -0.3950462E-04
   maximum displ.:     0.1028500 α      in ANC's #4, #3, #5, ...

........................................................................
.............................. CYCLE   23 ..............................
........................................................................
   1    -21.7491512 -0.217492E+02  0.222E-01    5.11       0.0  T
   2    -21.7491571 -0.592658E-05  0.138E-01    5.11       1.0  T
   3    -21.7491605 -0.342048E-05  0.124E-02    5.11       2.3  T
   4    -21.7491610 -0.474633E-06  0.783E-03    5.11       3.7  T
   5    -21.7491612 -0.174248E-06  0.272E-03    5.11      10.6  T
   6    -21.7491612 -0.268048E-07  0.759E-04    5.11      38.0  T
   7    -21.7491612 -0.178133E-08  0.350E-04    5.11      82.5  T
     SCC iter.                  ...        0 min,  0.002 sec
     gradient                   ...        0 min,  0.090 sec
 * total energy  :   -21.5625042 Eh     change       -0.3678764E-04 Eh
   gradient norm :     0.0026181 Eh/α   predicted    -0.1989883E-04 ( -45.91%)
   displ. norm   :     0.0494031 α      lambda       -0.1692598E-04
   maximum displ.:     0.0437977 α      in ANC's #4, #3, #1, ...

........................................................................
.............................. CYCLE   24 ..............................
........................................................................
   1    -21.7490600 -0.217491E+02  0.889E-02    5.11       0.0  T
   2    -21.7490609 -0.923992E-06  0.554E-02    5.11       1.0  T
   3    -21.7490614 -0.522109E-06  0.453E-03    5.11       6.4  T
   4    -21.7490615 -0.570152E-07  0.294E-03    5.11       9.8  T
   5    -21.7490615 -0.191326E-07  0.156E-03    5.11      18.5  T
   6    -21.7490615 -0.862954E-08  0.224E-04    5.11     128.7  T
   7    -21.7490615 -0.154145E-09  0.125E-04    5.11     230.1  T
     SCC iter.                  ...        0 min,  0.002 sec
     gradient                   ...        0 min,  0.001 sec
 * total energy  :   -21.5625171 Eh     change       -0.1293493E-04 Eh
   gradient norm :     0.0035362 Eh/α   predicted    -0.8484836E-05 ( -34.40%)
   displ. norm   :     0.0783855 α      lambda       -0.3656494E-04
   maximum displ.:     0.0681670 α      in ANC's #4, #1, #9, ...

........................................................................
.............................. CYCLE   25 ..............................
........................................................................
   1    -21.7491333 -0.217491E+02  0.135E-01    5.11       0.0  T
   2    -21.7491353 -0.193241E-05  0.837E-02    5.11       1.0  T
   3    -21.7491357 -0.442782E-06  0.915E-03    5.11       3.2  T
   4    -21.7491363 -0.582837E-06  0.454E-03    5.11       6.4  T
   5    -21.7491364 -0.784679E-07  0.232E-03    5.11      12.4  T
   6    -21.7491364 -0.585888E-08  0.280E-04    5.11     103.1  T
   7    -21.7491364 -0.150784E-09  0.122E-04    5.11     236.4  T
     SCC iter.                  ...        0 min,  0.002 sec
     gradient                   ...        0 min,  0.001 sec
 * total energy  :   -21.5625395 Eh     change       -0.2241611E-04 Eh
   gradient norm :     0.0045698 Eh/α   predicted    -0.1839516E-04 ( -17.94%)
   displ. norm   :     0.0368861 α      lambda       -0.3024150E-04
   maximum displ.:     0.0252667 α      in ANC's #3, #1, #4, ...

........................................................................
.............................. CYCLE   26 ..............................
........................................................................
   1    -21.7497471 -0.217497E+02  0.478E-02    5.12       0.0  T
   2    -21.7497479 -0.794352E-06  0.292E-02    5.12       1.0  T
   3    -21.7497477  0.155720E-06  0.773E-03    5.12       3.7  T
   4    -21.7497480 -0.339956E-06  0.344E-03    5.12       8.4  T
   5    -21.7497481 -0.813688E-07  0.128E-03    5.12      22.6  T
   6    -21.7497481 -0.217851E-08  0.604E-04    5.12      47.8  T
     SCC iter.                  ...        0 min,  0.089 sec
     gradient                   ...        0 min,  0.001 sec
 * total energy  :   -21.5625538 Eh     change       -0.1427757E-04 Eh
   gradient norm :     0.0022471 Eh/α   predicted    -0.1514278E-04 (   6.06%)
   displ. norm   :     0.0649074 α      lambda       -0.1908571E-04
   maximum displ.:     0.0524438 α      in ANC's #4, #1, #2, ...

........................................................................
.............................. CYCLE   27 ..............................
........................................................................
   1    -21.7493660 -0.217494E+02  0.103E-01    5.12       0.0  T
   2    -21.7493670 -0.101719E-05  0.637E-02    5.12       1.0  T
   3    -21.7493669  0.152505E-06  0.931E-03    5.12       3.1  T
   4    -21.7493677 -0.782000E-06  0.346E-03    5.12       8.3  T
   5    -21.7493677 -0.273741E-07  0.173E-03    5.12      16.7  T
   6    -21.7493677 -0.246798E-08  0.220E-04    5.12     131.2  T
   7    -21.7493677 -0.124768E-09  0.102E-04    5.12     283.9  T
     SCC iter.                  ...        0 min,  0.002 sec
     gradient                   ...        0 min,  0.001 sec
 * total energy  :   -21.5625670 Eh     change       -0.1316855E-04 Eh
   gradient norm :     0.0033492 Eh/α   predicted    -0.9582783E-05 ( -27.23%)
   displ. norm   :     0.0513929 α      lambda       -0.1632925E-04
   maximum displ.:     0.0357376 α      in ANC's #4, #1, #26, ...

........................................................................
.............................. CYCLE   28 ..............................
........................................................................
   1    -21.7491536 -0.217492E+02  0.742E-02    5.12       0.0  T
   2    -21.7491541 -0.457485E-06  0.456E-02    5.12       1.0  T
   3    -21.7491540  0.886109E-07  0.662E-03    5.11       4.4  T
   4    -21.7491544 -0.397672E-06  0.246E-03    5.12      11.7  T
   5    -21.7491544 -0.910198E-08  0.100E-03    5.12      28.8  T
   6    -21.7491544 -0.117282E-08  0.169E-04    5.12     170.7  T
   7    -21.7491544 -0.684217E-10  0.705E-05    5.12     409.8  T
     SCC iter.                  ...        0 min,  0.002 sec
     gradient                   ...        0 min,  0.090 sec
 * total energy  :   -21.5625784 Eh     change       -0.1145459E-04 Eh
   gradient norm :     0.0035346 Eh/α   predicted    -0.8187318E-05 ( -28.52%)
   displ. norm   :     0.0386501 α      lambda       -0.1967681E-04
   maximum displ.:     0.0325454 α      in ANC's #1, #4, #26, ...

........................................................................
.............................. CYCLE   29 ..............................
........................................................................
   1    -21.7493616 -0.217494E+02  0.455E-02    5.11       0.0  T
   2    -21.7493618 -0.196314E-06  0.276E-02    5.11       1.0  T
   3    -21.7493618 -0.595107E-07  0.297E-03    5.11       9.7  T
   4    -21.7493619 -0.365971E-07  0.183E-03    5.11      15.8  T
   5    -21.7493619 -0.140281E-07  0.517E-04    5.11      55.8  T
   6    -21.7493619 -0.250605E-09  0.150E-04    5.11     192.5  T
     SCC iter.                  ...        0 min,  0.002 sec
     gradient                   ...        0 min,  0.001 sec
 * total energy  :   -21.5625892 Eh     change       -0.1080295E-04 Eh
   gradient norm :     0.0016948 Eh/α   predicted    -0.9853584E-05 (  -8.79%)
   displ. norm   :     0.1058865 α      lambda       -0.1317566E-04
   maximum displ.:     0.0747976 α      in ANC's #4, #1, #26, ...

........................................................................
.............................. CYCLE   30 ..............................
........................................................................
   1    -21.7489208 -0.217489E+02  0.164E-01    5.11       0.0  T
   2    -21.7489228 -0.195335E-05  0.101E-01    5.11       1.0  T
   3    -21.7489235 -0.686979E-06  0.919E-03    5.11       3.1  T
   4    -21.7489240 -0.498826E-06  0.509E-03    5.11       5.7  T
   5    -21.7489240 -0.737904E-07  0.193E-03    5.11      15.0  T
   6    -21.7489240 -0.365744E-08  0.387E-04    5.11      74.5  T
   7    -21.7489240 -0.408555E-09  0.164E-04    5.11     176.5  T
     SCC iter.                  ...        0 min,  0.002 sec
     gradient                   ...        0 min,  0.001 sec
 * total energy  :   -21.5625926 Eh     change       -0.3387423E-05 Eh
   gradient norm :     0.0050306 Eh/α   predicted    -0.6621272E-05 (  95.47%)
   displ. norm   :     0.0170764 α      lambda       -0.1907958E-04
   maximum displ.:     0.0137903 α      in ANC's #4, #1, #5, ...

........................................................................
.............................. CYCLE   31 ..............................
........................................................................
   1    -21.7494386 -0.217494E+02  0.265E-02    5.11       0.0  T
   2    -21.7494388 -0.197547E-06  0.162E-02    5.11       1.8  T
   3    -21.7494386  0.179872E-06  0.553E-03    5.11       5.2  T
   4    -21.7494389 -0.268299E-06  0.164E-03    5.11      17.6  T
   5    -21.7494389 -0.102926E-07  0.645E-04    5.11      44.8  T
     SCC iter.                  ...        0 min,  0.089 sec
     gradient                   ...        0 min,  0.001 sec
 * total energy  :   -21.5626049 Eh     change       -0.1230737E-04 Eh
   gradient norm :     0.0018715 Eh/α   predicted    -0.9543130E-05 ( -22.46%)
   displ. norm   :     0.0401679 α      lambda       -0.8556784E-05
   maximum displ.:     0.0256232 α      in ANC's #1, #4, #2, ...

........................................................................
.............................. CYCLE   32 ..............................
........................................................................
   1    -21.7497848 -0.217498E+02  0.603E-02    5.11       0.0  T
   2    -21.7497851 -0.335195E-06  0.370E-02    5.11       1.0  T
   3    -21.7497850  0.760928E-07  0.568E-03    5.11       5.1  T
   4    -21.7497853 -0.270953E-06  0.207E-03    5.11      13.9  T
   5    -21.7497853 -0.970283E-08  0.760E-04    5.11      38.0  T
   6    -21.7497853 -0.615021E-09  0.242E-04    5.11     119.1  T
     SCC iter.                  ...        0 min,  0.002 sec
     gradient                   ...        0 min,  0.001 sec
 * total energy  :   -21.5626129 Eh     change       -0.8002847E-05 Eh
   gradient norm :     0.0008823 Eh/α   predicted    -0.4280554E-05 ( -46.51%)
   displ. norm   :     0.0762299 α      lambda       -0.7405097E-05
   maximum displ.:     0.0471428 α      in ANC's #4, #1, #2, ...

........................................................................
.............................. CYCLE   33 ..............................
........................................................................
   1    -21.7495511 -0.217496E+02  0.122E-01    5.11       0.0  T
   2    -21.7495522 -0.101938E-05  0.749E-02    5.11       1.0  T
   3    -21.7495525 -0.322900E-06  0.748E-03    5.11       3.9  T
   4    -21.7495528 -0.356611E-06  0.362E-03    5.11       8.0  T
   5    -21.7495529 -0.171299E-07  0.111E-03    5.11      25.9  T
   6    -21.7495529 -0.316304E-08  0.168E-04    5.11     172.0  T
   7    -21.7495529 -0.521361E-10  0.756E-05    5.11     381.7  T
     SCC iter.                  ...        0 min,  0.002 sec
     gradient                   ...        0 min,  0.090 sec
 * total energy  :   -21.5626203 Eh     change       -0.7416071E-05 Eh
   gradient norm :     0.0019181 Eh/α   predicted    -0.3712620E-05 ( -49.94%)
   displ. norm   :     0.0494555 α      lambda       -0.5649154E-05
   maximum displ.:     0.0249152 α      in ANC's #1, #2, #4, ...

........................................................................
.............................. CYCLE   34 ..............................
........................................................................
   1    -21.7494478 -0.217494E+02  0.804E-02    5.12       0.0  T
   2    -21.7494484 -0.563211E-06  0.497E-02    5.12       1.0  T
   3    -21.7494472  0.116334E-05  0.129E-02    5.12       2.2  T
   4    -21.7494489 -0.163567E-05  0.267E-03    5.12      10.8  T
   5    -21.7494489 -0.198038E-08  0.731E-04    5.12      39.5  T
   6    -21.7494489 -0.540766E-09  0.115E-04    5.12     251.9  T
     SCC iter.                  ...        0 min,  0.002 sec
     gradient                   ...        0 min,  0.001 sec
 * total energy  :   -21.5626263 Eh     change       -0.5965577E-05 Eh
   gradient norm :     0.0018624 Eh/α   predicted    -0.2828388E-05 ( -52.59%)
   displ. norm   :     0.0445771 α      lambda       -0.7560738E-05
   maximum displ.:     0.0373506 α      in ANC's #2, #3, #9, ...

........................................................................
.............................. CYCLE   35 ..............................
........................................................................
   1    -21.7496851 -0.217497E+02  0.630E-02    5.12       0.0  T
   2    -21.7496856 -0.562707E-06  0.392E-02    5.12       1.0  T
   3    -21.7496829  0.266866E-05  0.186E-02    5.12       1.6  T
   4    -21.7496862 -0.325045E-05  0.238E-03    5.12      12.1  T
   5    -21.7496862 -0.335289E-08  0.104E-03    5.12      27.7  T
   6    -21.7496862 -0.454879E-09  0.188E-04    5.12     153.2  T
   7    -21.7496862 -0.679456E-10  0.681E-05    5.12     423.8  T
     SCC iter.                  ...        0 min,  0.002 sec
     gradient                   ...        0 min,  0.001 sec
 * total energy  :   -21.5626313 Eh     change       -0.4999413E-05 Eh
   gradient norm :     0.0014084 Eh/α   predicted    -0.3784523E-05 ( -24.30%)
   displ. norm   :     0.0976305 α      lambda       -0.7215172E-05
   maximum displ.:     0.0574321 α      in ANC's #2, #1, #4, ...

........................................................................
.............................. CYCLE   36 ..............................
........................................................................
   1    -21.7491780 -0.217492E+02  0.162E-01    5.12       0.0  T
   2    -21.7491804 -0.241271E-05  0.100E-01    5.11       1.0  T
   3    -21.7491768  0.354073E-05  0.238E-02    5.12       1.2  T
   4    -21.7491823 -0.545163E-05  0.569E-03    5.11       5.1  T
   5    -21.7491823 -0.123585E-07  0.153E-03    5.11      18.9  T
   6    -21.7491823 -0.159624E-08  0.233E-04    5.11     123.8  T
   7    -21.7491823 -0.108191E-09  0.113E-04    5.11     255.5  T
     SCC iter.                  ...        0 min,  0.090 sec
     gradient                   ...        0 min,  0.001 sec
 * total energy  :   -21.5626315 Eh     change       -0.1975531E-06 Eh
   gradient norm :     0.0032955 Eh/α   predicted    -0.3621200E-05 (1733.03%)
   displ. norm   :     0.0328573 α      lambda       -0.9553365E-05
   maximum displ.:     0.0170674 α      in ANC's #2, #4, #1, ...

........................................................................
.............................. CYCLE   37 ..............................
........................................................................
   1    -21.7495555 -0.217496E+02  0.561E-02    5.11       0.0  T
   2    -21.7495559 -0.343731E-06  0.347E-02    5.12       1.0  T
   3    -21.7495554  0.491714E-06  0.876E-03    5.11       3.3  T
   4    -21.7495561 -0.728996E-06  0.203E-03    5.12      14.2  T
   5    -21.7495561 -0.408341E-08  0.863E-04    5.11      33.5  T
   6    -21.7495561 -0.453696E-09  0.170E-04    5.12     170.1  T
     SCC iter.                  ...        0 min,  0.002 sec
     gradient                   ...        0 min,  0.001 sec
 * total energy  :   -21.5626367 Eh     change       -0.5165962E-05 Eh
   gradient norm :     0.0010415 Eh/α   predicted    -0.4782992E-05 (  -7.41%)
   displ. norm   :     0.0176516 α      lambda       -0.1549486E-05
   maximum displ.:     0.0125484 α      in ANC's #2, #1, #3, ...

........................................................................
.............................. CYCLE   38 ..............................
........................................................................
   1    -21.7496745 -0.217497E+02  0.229E-02    5.11       0.0  T
   2    -21.7496745 -0.506142E-07  0.140E-02    5.11       2.1  T
   3    -21.7496745 -0.139085E-07  0.162E-03    5.11      17.9  T
   4    -21.7496746 -0.117016E-07  0.944E-04    5.11      30.6  T
   5    -21.7496746 -0.333096E-08  0.340E-04    5.11      85.0  T
     SCC iter.                  ...        0 min,  0.001 sec
     gradient                   ...        0 min,  0.091 sec
 * total energy  :   -21.5626382 Eh     change       -0.1558583E-05 Eh
   gradient norm :     0.0003008 Eh/α   predicted    -0.7759015E-06 ( -50.22%)
   displ. norm   :     0.0358990 α      lambda       -0.1223603E-05
   maximum displ.:     0.0247402 α      in ANC's #2, #1, #3, ...

   *** GEOMETRY OPTIMIZATION CONVERGED AFTER 38 ITERATIONS ***

------------------------------------------------------------------------
 total energy gain   :        -0.0163519 Eh      -10.2609 kcal/mol
 total RMSD          :         0.5765927 a0        0.3051 Å
 total power (kW/mol):        -1.1297836 (step)  -30.8602 (real)
------------------------------------------------------------------------

 ANCopt (total)                0 d,  0 h,  0 min,  1.391 sec
 optimizer setup                ...        0 min,  0.000 sec (  0.021%)
 model hessian                  ...        0 min,  0.005 sec (  0.379%)
 ANC generation                 ...        0 min,  0.001 sec (  0.052%)
 coordinate transformation      ...        0 min,  0.001 sec (  0.106%)
 single point calculation       ...        0 min,  1.368 sec ( 98.363%)
 optimization log               ...        0 min,  0.003 sec (  0.218%)
 hessian update                 ...        0 min,  0.003 sec (  0.199%)
 rational function              ...        0 min,  0.003 sec (  0.204%)

================
 final structure:
================
12
 xtb: 6.2.3 (830e466)
C         1.84381422206131    1.47239104710317   -2.14839238507021
C         1.08009168507994    0.76265262684780   -1.07321333526854
C         0.62399760106163   -0.47532014081995   -1.19483903948939
O         1.12379012669114    2.53113278875577   -2.74132205697866
O         0.96638054708290    3.59028251237270   -1.79141471799269
O        -0.07612694451811   -1.15796216051314   -0.26229651718335
H         0.54793407310880    4.27526263994208   -2.32757853875269
H         2.79238089367590    1.85967628830224   -1.75112481007549
H         2.04067130685813    0.81102449721421   -2.99508023943609
H         0.79936111335665   -1.07918294617640   -2.07374332055451
H        -0.23200931003497   -0.59501161447821    0.50711167817767
H         0.87872468557665    1.34467446144976   -0.18390671737607
 
 Bond Distances (Angstroems)
 ---------------------------
C1-C2=1.4977         C1-O4=1.4110         C1-H8=1.0989         C1-H9=1.0923         C2-C1=1.4977         C2-C3=1.3249         
C2-H12=1.0817        C3-C2=1.3249         C3-O6=1.3512         C3-H10=1.0807        O4-C1=1.4110         O4-O5=1.4314         
O5-O4=1.4314         O5-H7=0.9653         O6-C3=1.3512         O6-H11=0.9660        H7-O5=0.9653         H8-C1=1.0989         
H9-C1=1.0923         H10-C3=1.0807        H11-O6=0.9660        H12-C2=1.0817        
 C  H  Rav=1.0884 sigma=0.0076  Rmin=1.0807  Rmax=1.0989     4
 C  C  Rav=1.4113 sigma=0.0864  Rmin=1.3249  Rmax=1.4977     2
 O  H  Rav=0.9657 sigma=0.0004  Rmin=0.9653  Rmax=0.9660     2
 O  C  Rav=1.3811 sigma=0.0299  Rmin=1.3512  Rmax=1.4110     2
 O  O  Rav=1.4314 sigma=0.0000  Rmin=1.4314  Rmax=1.4314     1
 
 selected bond angles (degree)
 --------------------
O4-C1-C2=113.39                H8-C1-C2=110.34                H8-C1-O4=109.14                H9-C1-C2=111.19                
H9-C1-O4=102.74                H9-C1-H8=109.76                C3-C2-C1=123.53                H12-C2-C1=115.48               
H12-C2-C3=120.94               O6-C3-C2=125.95                H10-C3-C2=122.75               H10-C3-O6=111.29               
O5-O4-C1=109.42                H7-O5-O4=101.78                H11-O6-C3=109.81               
 
 selected dihedral angles (degree)
 ---------------------------------
C3-C2-C1-O4=110.47            C3-C2-C1-H8=233.25            C3-C2-C1-H9=355.29            H12-C2-C1-O4=293.02           
H12-C2-C1-H8= 55.81           H12-C2-C1-H9=177.84           O6-C3-C2-C1=180.45            O6-C3-C2-H12=357.77           
H10-C3-C2-C1=  2.07           H10-C3-C2-H12=179.38          O5-O4-C1-C2= 68.74            O5-O4-C1-H8=305.30            
O5-O4-C1-H9=188.85            H7-O5-O4-C1=174.63            H11-O6-C3-C2=  2.30           H11-O6-C3-H10=180.85          
           -------------------------------------------------
          |                Final Singlepoint                |
           -------------------------------------------------

          ...................................................
          :                      SETUP                      :
          :.................................................:
          :  # basis functions                  30          :
          :  # atomic orbitals                  30          :
          :  # shells                           18          :
          :  # electrons                        36          :
          :  max. iterations                   100          :
          :  Hamiltonian                  GFN2-xTB          :
          :  restarted?                      false          :
          :  GBSA solvation                  false          :
          :  PC potential                    false          :
          :  electronic temp.          300.0000000     K    :
          :  accuracy                    1.0000000          :
          :  -> integral cutoff          0.2500000E+02      :
          :  -> integral neglect         0.1000000E-07      :
          :  -> SCF convergence          0.1000000E-05 Eh   :
          :  -> wf. convergence          0.1000000E-03 e    :
          :  Broyden damping             0.4000000          :
          ...................................................

 iter      E             dE          RMSdq      gap      omega  full diag
   1    -21.7496746 -0.217497E+02  0.811E-05    5.11       0.0  T
   2    -21.7496746 -0.134044E-10  0.449E-05    5.11     643.3  T
   3    -21.7496746 -0.470024E-11  0.215E-05    5.11    1341.2  T

   *** convergence criteria satisfied after 3 iterations ***

         #    Occupation            Energy/Eh            Energy/eV
      -------------------------------------------------------------
         1        2.0000           -0.7200175             -19.5927
       ...           ...                  ...                  ...
        12        2.0000           -0.5218509             -14.2003
        13        2.0000           -0.5072857             -13.8039
        14        2.0000           -0.4826413             -13.1333
        15        2.0000           -0.4741250             -12.9016
        16        2.0000           -0.4523329             -12.3086
        17        2.0000           -0.4069690             -11.0742
        18        2.0000           -0.3895433             -10.6000 (HOMO)
        19                         -0.2016021              -5.4859 (LUMO)
        20                         -0.1494254              -4.0661
        21                          0.0568643               1.5474
        22                          0.0819444               2.2298
        23                          0.1197594               3.2588
       ...                                ...                  ...
        30                          0.6311255              17.1738
      -------------------------------------------------------------
                  HL-Gap            0.1879412 Eh            5.1141 eV
             Fermi-level           -0.2955727 Eh           -8.0429 eV

 SCC (total)                   0 d,  0 h,  0 min,  0.003 sec
 SCC setup                      ...        0 min,  0.000 sec (  3.658%)
 Dispersion                     ...        0 min,  0.000 sec (  1.522%)
 integral evaluation            ...        0 min,  0.001 sec ( 15.255%)
 zeroth order Hamiltonian       ...        0 min,  0.000 sec (  1.724%)
 iterations                     ...        0 min,  0.001 sec ( 33.031%)
 molecular gradient             ...        0 min,  0.001 sec ( 37.129%)
 printout                       ...        0 min,  0.000 sec (  2.199%)

         :::::::::::::::::::::::::::::::::::::::::::::::::::::
         ::                     SUMMARY                     ::
         :::::::::::::::::::::::::::::::::::::::::::::::::::::
         :: total energy             -21.562638201261 Eh    ::
         :: gradient norm              0.000302757760 Eh/a0 ::
         :: HOMO-LUMO gap              5.114139702602 eV    ::
         ::.................................................::
         :: SCC energy               -21.749674555915 Eh    ::
         :: -> isotropic ES            0.046638255074 Eh    ::
         :: -> anisotropic ES         -0.004505965512 Eh    ::
         :: -> anisotropic XC         -0.004946074490 Eh    ::
         :: -> dispersion             -0.005643014349 Eh    ::
         :: repulsion energy           0.187031568912 Eh    ::
         :: add. restraining           0.000000000000 Eh    ::
         :::::::::::::::::::::::::::::::::::::::::::::::::::::

           -------------------------------------------------
          |                Property Printout                |
           -------------------------------------------------

    * Orbital Energies and Occupations

         #    Occupation            Energy/Eh            Energy/eV
      -------------------------------------------------------------
         1        2.0000           -0.7200175             -19.5927
       ...           ...                  ...                  ...
         6        2.0000           -0.6131417             -16.6844
         7        2.0000           -0.6068557             -16.5134
         8        2.0000           -0.5713992             -15.5486
         9        2.0000           -0.5662617             -15.4088
        10        2.0000           -0.5402254             -14.7003
        11        2.0000           -0.5259323             -14.3113
        12        2.0000           -0.5218509             -14.2003
        13        2.0000           -0.5072857             -13.8039
        14        2.0000           -0.4826413             -13.1333
        15        2.0000           -0.4741250             -12.9016
        16        2.0000           -0.4523329             -12.3086
        17        2.0000           -0.4069690             -11.0742
        18        2.0000           -0.3895433             -10.6000 (HOMO)
        19                         -0.2016021              -5.4859 (LUMO)
        20                         -0.1494254              -4.0661
        21                          0.0568643               1.5474
        22                          0.0819444               2.2298
        23                          0.1197594               3.2588
        24                          0.1381398               3.7590
        25                          0.1482658               4.0345
        26                          0.1780425               4.8448
        27                          0.2016503               5.4872
        28                          0.2410156               6.5584
        29                          0.3882798              10.5656
        30                          0.6311255              17.1738
      -------------------------------------------------------------
                  HL-Gap            0.1879412 Eh            5.1141 eV
             Fermi-level           -0.2955727 Eh           -8.0429 eV

     #   Z        covCN         q      C6AA      α(0)
     1   6 C      3.682     0.085    19.362     6.301
     2   6 C      2.884    -0.101    30.534     9.059
     3   6 C      2.765     0.095    25.872     8.330
     4   8 O      1.774    -0.216    17.566     5.659
     5   8 O      1.731    -0.326    19.451     5.955
     6   8 O      1.659    -0.374    20.343     6.089
     7   1 H      0.805     0.317     0.671     1.287
     8   1 H      0.923     0.051     2.311     2.377
     9   1 H      0.924     0.060     2.198     2.319
    10   1 H      0.926     0.055     2.263     2.352
    11   1 H      0.805     0.301     0.717     1.330
    12   1 H      0.925     0.052     2.299     2.371

 Mol. C6AA /au·bohr⁶  :       1273.521849
 Mol. C8AA /au·bohr⁸  :      27492.150955
 Mol. α(0) /au        :         53.429952


Wiberg/Mayer (AO) data.
largest (>0.10) Wiberg bond orders for each atom
          total WBO             WBO to atom ...
     1  C   3.941        C    2 1.012    O    4 0.978    H    8 0.959    H    9 0.954
     2  C   3.975        C    3 1.841    C    1 1.012    H   12 0.961    O    6 0.134
     3  C   3.939        C    2 1.841    O    6 1.097    H   10 0.956
     4  O   2.011        C    1 0.978    O    5 0.971
     5  O   1.905        O    4 0.971    H    7 0.893
     6  O   2.148        C    3 1.097    H   11 0.887    C    2 0.134
     7  H   0.899        O    5 0.893
     8  H   0.997        C    1 0.959
     9  H   0.996        C    1 0.954
    10  H   0.997        C    3 0.956
    11  H   0.909        O    6 0.887
    12  H   0.997        C    2 0.961

molecular dipole:
                 x           y           z       tot (Debye)
 q only:        0.068       0.094       0.203
   full:        0.063       0.345       0.200       1.027
molecular quadrupole (traceless):
                xx          xy          yy          xz          yz          zz
 q only:        0.246      -2.657      -0.419      -1.205      -0.550       0.173
  q+dip:       -0.472      -2.318      -0.006      -1.489      -1.314       0.479
   full:       -0.593      -3.047      -0.067      -1.389      -1.580       0.661

           -------------------------------------------------
          |                Geometry Summary                 |
           -------------------------------------------------

      molecular mass/u    :       90.0780670
   center of mass at/Å    :        0.9071876       1.1902659      -1.5392962
  moments of inertia/u·Å² :        0.4691849E+02   0.3308175E+03   0.3554301E+03
rotational constants/cm⁻¹ :        0.3592961E+00   0.5095750E-01   0.4742883E-01

 * 10 selected distances

     #   Z        #   Z                                     value/Å
     2   6 C      3   6 C                                 1.3249118
     1   6 C      4   8 O                                 1.4110047
     4   8 O      5   8 O                                 1.4313979 (max)
     3   6 C      6   8 O                                 1.3512254
     5   8 O      7   1 H                                 0.9652807 (min)
     1   6 C      8   1 H                                 1.0989041
     1   6 C      9   1 H                                 1.0922631
     3   6 C     10   1 H                                 1.0806828
     6   8 O     11   1 H                                 0.9660236
     2   6 C     12   1 H                                 1.0817413

 * 5 distinct bonds (by element types)

   Z      Z             #   av. dist./Å        max./Å        min./Å
   1 H    6 C           4     1.0883978     1.0989041     1.0806828
   6 C    6 C           1     1.3249118     1.3249118     1.3249118
   1 H    8 O           2     0.9656522     0.9660236     0.9652807
   6 C    8 O           2     1.3811151     1.4110047     1.3512254
   8 O    8 O           1     1.4313979     1.4313979     1.4313979


optimized geometry written to: xtbopt.xyz


           -------------------------------------------------
          | TOTAL ENERGY              -21.562638201261 Eh   |
          | GRADIENT NORM               0.000302757760 Eh/α |
          | HOMO-LUMO GAP               5.114139702602 eV   |
           -------------------------------------------------

------------------------------------------------------------------------
 * finished run on 2020/12/23 at 21:41:38.671     
------------------------------------------------------------------------
 total:
 * wall-time:     0 d,  0 h,  0 min,  1.619 sec
 *  cpu-time:     0 d,  0 h,  0 min,  6.829 sec
 * ratio c/w:     4.218 speedup
 SCF:
 * wall-time:     0 d,  0 h,  0 min,  0.090 sec
 *  cpu-time:     0 d,  0 h,  0 min,  0.253 sec
 * ratio c/w:     2.792 speedup
 ANC optimizer:
 * wall-time:     0 d,  0 h,  0 min,  1.398 sec
 *  cpu-time:     0 d,  0 h,  0 min,  5.595 sec
 * ratio c/w:     4.003 speedup

