12
 energy: -21.561952888743 gnorm: 0.000845329142 xtb: 6.2.3 (830e466)
C         1.76134544872405    1.41406330149226   -2.42400070615571
C        -0.29330782319021    0.00325757482921   -1.04469731892731
C         0.99444117802088   -0.09602241262219   -0.76766028342399
O         0.99255648797300    2.53781489626055   -2.12506670880886
O         1.76516398546197    3.53114128938233   -1.47997161219029
O         2.03436077668775    0.58890358550666   -1.33121579697866
H         1.53184009165335    3.45756437368059   -0.54145844062577
H         2.73889680324616    1.70483937979349   -2.82555998076644
H         1.16861685249965    0.88853742884092   -3.18605460127756
H         1.38296822911198   -0.76821508953736   -0.01522933694008
H        -1.00128051873394   -0.61104092512894   -0.52120818311346
H        -0.68662151145468    0.68874659750239   -1.77366703079190
