      -----------------------------------------------------------      
     |                   =====================                   |     
     |                           x T B                           |     
     |                   =====================                   |     
     |                         S. Grimme                         |     
     |          Mulliken Center for Theoretical Chemistry        |     
     |                    University of Bonn                     |     
      -----------------------------------------------------------      

   * xtb version 6.2.3 (830e466) compiled by 'ehlert@majestix' on 2020-03-16

   xtb is free software: you can redistribute it and/or modify it under
   the terms of the GNU Lesser General Public License as published by
   the Free Software Foundation, either version 3 of the License, or
   (at your option) any later version.
   
   xtb is distributed in the hope that it will be useful,
   but WITHOUT ANY WARRANTY; without even the implied warranty of
   MERCHANTABILITY or FITNESS FOR A PARTICULAR PURPOSE.  See the
   GNU Lesser General Public License for more details.
   
   Cite this work as:
   * S. Grimme, C. Bannwarth, P. Shushkov, J. Chem. Theory Comput., 2017,
     13, 1989-2009. DOI: 10.1021/acs.jctc.7b00118
   * C. Bannwarth, S. Ehlert and S. Grimme., J. Chem. Theory Comput., 2019,
     15, 1652-1671. DOI: 10.1021/acs.jctc.8b01176
   * P. Pracht, E. Caldeweyher, S. Ehlert, S. Grimme, ChemRxiv, 2019, preprint.
     DOI: 10.26434/chemrxiv.8326202.v1
   
   for DFT-D4:
   * E. Caldeweyher, C. Bannwarth and S. Grimme, J. Chem. Phys., 2017,
     147, 034112. DOI: 10.1063/1.4993215
   * E. Caldeweyher, S. Ehlert, A. Hansen, H. Neugebauer, S. Spicher,
     C. Bannwarth and S. Grimme, J. Chem. Phys., 2019, 150, 154122.
     DOI: 10.1063/1.5090222
   
   for sTDA-xTB:
   * S. Grimme and C. Bannwarth, J. Chem. Phys., 2016, 145, 054103.
     DOI: 10.1063/1.4959605
   
   in the mass-spec context:
   * V. Asgeirsson, C. Bauer and S. Grimme, Chem. Sci., 2017, 8, 4879.
     DOI: 10.1039/c7sc00601b
   
   for metadynamics refer to:
   * S. Grimme, J. Chem. Theory Comput., 2019, 155, 2847-2862
     DOI: 10.1021/acs.jctc.9b00143
   
   with help from (in alphabetical order)
   C. Bannwarth, F. Bohle, G. Brandenburg, E. Caldeweyher, M. Checinski,
   S. Dohm, S. Ehlert, S. Ehrlich, F. März, H. Neugebauer, J. Pisarek,
   P. Pracht, P. Shushkov, and S. Spicher.
   
 * started run on 2020/12/23 at 21:43:43.114     

           -------------------------------------------------
          |                Calculation Setup                |
           -------------------------------------------------

          program call               : xtb -c 0 -u 0 -a 1.0 --iterations 100 --opt normal --namespace product_35 /scratch/bell/zhao922/YARP/paper-example/potential_product/test/reaction_channel/pp_0/pp_9_0.xyz
          hostname                   : bell-fe05.rcac.purdue.edu
          calculation namespace      : product_35
          coordinate file            : /scratch/bell/zhao922/YARP/paper-example/potential_product/test/reaction_channel/pp_0/pp_9_0.xyz
          omp threads                :                    32
          number of atoms            :                    12
          number of electrons        :                    36
          charge                     :                     0
          spin                       :                   0.0
          first test random number   :      0.09926855863902

           ------------------------------------------------- 
          |                 G F N 2 - x T B                 |
          | Geometry, Frequencies, Noncovalent interactions |
          |            JCTC 2019 parametrisation            |
           ------------------------------------------------- 
             k(s)              :                1.8500
             k(p)              :                2.2300
             k(d)              :                2.2300
             k(f)              :                2.0000
             kEN (H0ij)        :               -2.0000
             D4 a1             :                0.5200
             D4 a2             :                5.0000
             D4 s6             :                1.0000
             D4 s8             :                2.7000
             D4 s9             :                5.0000
             alphaj            :                2.0000

  Z AO/shell   Hii/eV     exponent
  1     Wed Apr 25 08:07:45 CEST 2018   EN: 2.200 GM2: 0.406  GM3: 0.0800  RAES: 1.40
     1s    -10.707211    1.230000
  6     Wed Apr 25 08:07:45 CEST 2018   EN: 2.550 GM2: 0.538  GM3: 0.1500  RAES: 3.00
     2s    -13.970922    2.096432
     2p    -10.063292    1.800000
  8     Wed Apr 25 08:07:45 CEST 2018   EN: 3.440 GM2: 0.452  GM3:-0.0517  RAES: 1.80
     2s    -20.229985    2.439742
     2p    -15.503117    2.137023

           ------------------------------------------------- 
          |        Self-Consistent Charge Iterations        |
           ------------------------------------------------- 

          ...................................................
          :                      SETUP                      :
          :.................................................:
          :  # basis functions                  30          :
          :  # atomic orbitals                  30          :
          :  # shells                           18          :
          :  # electrons                        36          :
          :  max. iterations                   100          :
          :  Hamiltonian                  GFN2-xTB          :
          :  restarted?                      false          :
          :  GBSA solvation                  false          :
          :  PC potential                    false          :
          :  electronic temp.          300.0000000     K    :
          :  accuracy                    1.0000000          :
          :  -> integral cutoff          0.2500000E+02      :
          :  -> integral neglect         0.1000000E-07      :
          :  -> SCF convergence          0.1000000E-05 Eh   :
          :  -> wf. convergence          0.1000000E-03 e    :
          :  Broyden damping             0.4000000          :
          ...................................................

 iter      E             dE          RMSdq      gap      omega  full diag
   1    -21.6755866 -0.216756E+02  0.510E+00    3.94       0.0  T
   2    -21.7018289 -0.262422E-01  0.276E+00    3.18       1.0  T
   3    -21.7004523  0.137651E-02  0.170E+00    3.63       1.0  T
   4    -21.7096341 -0.918171E-02  0.154E-01    3.34       1.0  T
   5    -21.7096813 -0.472204E-04  0.769E-02    3.38       1.0  T
   6    -21.7096906 -0.928468E-05  0.298E-02    3.38       1.0  T
   7    -21.7096911 -0.579783E-06  0.909E-03    3.37       3.2  T
   8    -21.7096914 -0.272888E-06  0.352E-03    3.37       8.2  T
   9    -21.7096914 -0.699235E-08  0.109E-03    3.38      26.5  T
  10    -21.7096914 -0.652267E-08  0.471E-04    3.38      61.3  T
  11    -21.7096914 -0.124348E-08  0.168E-04    3.38     172.0  T

   *** convergence criteria satisfied after 11 iterations ***

         #    Occupation            Energy/Eh            Energy/eV
      -------------------------------------------------------------
         1        2.0000           -0.7545045             -20.5311
       ...           ...                  ...                  ...
        12        2.0000           -0.5328375             -14.4992
        13        2.0000           -0.5152183             -14.0198
        14        2.0000           -0.4978232             -13.5465
        15        2.0000           -0.4853784             -13.2078
        16        2.0000           -0.4683560             -12.7446
        17        2.0000           -0.4328163             -11.7775
        18        2.0000           -0.4169034             -11.3445 (HOMO)
        19                         -0.2928684              -7.9694 (LUMO)
        20                         -0.0555504              -1.5116
        21                          0.0491252               1.3368
        22                          0.0686723               1.8687
        23                          0.0771382               2.0990
       ...                                ...                  ...
        30                          0.5175988              14.0846
      -------------------------------------------------------------
                  HL-Gap            0.1240351 Eh            3.3752 eV
             Fermi-level           -0.3548859 Eh           -9.6569 eV

 SCC (total)                   0 d,  0 h,  0 min,  0.204 sec
 SCC setup                      ...        0 min,  0.000 sec (  0.054%)
 Dispersion                     ...        0 min,  0.000 sec (  0.020%)
 integral evaluation            ...        0 min,  0.107 sec ( 52.558%)
 zeroth order Hamiltonian       ...        0 min,  0.000 sec (  0.045%)
 iterations                     ...        0 min,  0.095 sec ( 46.545%)
 molecular gradient             ...        0 min,  0.001 sec (  0.657%)
 printout                       ...        0 min,  0.000 sec (  0.040%)

         :::::::::::::::::::::::::::::::::::::::::::::::::::::
         ::                     SUMMARY                     ::
         :::::::::::::::::::::::::::::::::::::::::::::::::::::
         :: total energy             -21.550243661856 Eh    ::
         :: gradient norm              0.124594135628 Eh/a0 ::
         :: HOMO-LUMO gap              3.375166122161 eV    ::
         ::.................................................::
         :: SCC energy               -21.709691430730 Eh    ::
         :: -> isotropic ES            0.045873471349 Eh    ::
         :: -> anisotropic ES         -0.001816565948 Eh    ::
         :: -> anisotropic XC         -0.007765106566 Eh    ::
         :: -> dispersion             -0.005991310834 Eh    ::
         :: repulsion energy           0.159439504713 Eh    ::
         :: add. restraining           0.000000000000 Eh    ::
         :::::::::::::::::::::::::::::::::::::::::::::::::::::

      ----------------------------------------------------------- 
     |                   =====================                   |
     |                        A N C O P T                        |
     |                   =====================                   |
     |               Approximate Normal Coordinate               |
     |                Rational Function Optimizer                |
      ----------------------------------------------------------- 

          ...................................................
          :                      SETUP                      :
          :.................................................:
          :   optimization level            normal          :
          :   max. optcycles                   200          :
          :   ANC micro-cycles                  20          :
          :   degrees of freedom                30          :
          :.................................................:
          :   RF solver                   davidson          :
          :   write xtbopt.log                true          :
          :   linear?                        false          :
          :   energy convergence         0.5000000E-05 Eh   :
          :   grad. convergence          0.1000000E-02 Eh/α :
          :   maximium RF displ.         1.0000000          :
          :   Hlow (freq-cutoff)         0.1000000E-01      :
          :   Hmax (freq-cutoff)         5.0000000          :
          :   S6 in model hess.         20.0000000          :
          ...................................................

generating ANC from model Hessian ...
Using Lindh-Hessian (1995)
 Shifting diagonal of input Hessian by   2.229817486840957E-003
 Lowest  eigenvalues of input Hessian
   -0.000000   -0.000000   -0.000000    0.000000    0.000000    0.000000
    0.010000    0.011550    0.012624    0.015091    0.019718    0.030528
    0.046014    0.054856    0.064285    0.073411    0.077157    0.087221
 Highest eigenvalues
    1.162689    1.184992    1.345615    1.392741    1.632614    2.103468
 

........................................................................
.............................. CYCLE    1 ..............................
........................................................................
   1    -21.7096914 -0.217097E+02  0.792E-05    3.38       0.0  T
   2    -21.7096914 -0.268834E-10  0.510E-05    3.38     565.8  T
   3    -21.7096914 -0.128466E-10  0.318E-05    3.38     906.5  T
     SCC iter.                  ...        0 min,  0.001 sec
     gradient                   ...        0 min,  0.001 sec
 * total energy  :   -21.5502437 Eh     change       -0.5685028E-08 Eh
   gradient norm :     0.1245935 Eh/α   predicted     0.0000000E+00 (-100.00%)
   displ. norm   :     0.2218826 α      lambda       -0.1507175E-01
   maximum displ.:     0.0926743 α      in ANC's #4, #12, #19, ...

........................................................................
.............................. CYCLE    2 ..............................
........................................................................
   1    -21.7297499 -0.217297E+02  0.324E-01    3.55       0.0  T
   2    -21.7299270 -0.177066E-03  0.197E-01    3.51       1.0  T
   3    -21.7299434 -0.164167E-04  0.723E-02    3.50       1.0  T
   4    -21.7299474 -0.398939E-05  0.188E-02    3.50       1.5  T
   5    -21.7299487 -0.135308E-05  0.627E-03    3.50       4.6  T
   6    -21.7299488 -0.501604E-07  0.357E-03    3.50       8.1  T
   7    -21.7299488 -0.152835E-07  0.152E-03    3.50      19.0  T
     SCC iter.                  ...        0 min,  0.002 sec
     gradient                   ...        0 min,  0.001 sec
 * total energy  :   -21.5600791 Eh     change       -0.9835420E-02 Eh
   gradient norm :     0.0437823 Eh/α   predicted    -0.7906879E-02 ( -19.61%)
   displ. norm   :     0.2382067 α      lambda       -0.3188135E-02
   maximum displ.:     0.1780543 α      in ANC's #4, #2, #3, ...

........................................................................
.............................. CYCLE    3 ..............................
........................................................................
   1    -21.7356017 -0.217356E+02  0.302E-01    3.58       0.0  T
   2    -21.7356623 -0.605761E-04  0.184E-01    3.56       1.0  T
   3    -21.7356684 -0.612351E-05  0.392E-02    3.55       1.0  T
   4    -21.7356713 -0.287578E-05  0.128E-02    3.55       2.3  T
   5    -21.7356721 -0.804786E-06  0.523E-03    3.55       5.5  T
   6    -21.7356721 -0.541522E-07  0.290E-03    3.55       9.9  T
     SCC iter.                  ...        0 min,  0.002 sec
     gradient                   ...        0 min,  0.001 sec
 * total energy  :   -21.5620000 Eh     change       -0.1920900E-02 Eh
   gradient norm :     0.0096973 Eh/α   predicted    -0.1684520E-02 ( -12.31%)
   displ. norm   :     0.1940335 α      lambda       -0.6157926E-03
   maximum displ.:     0.1526957 α      in ANC's #4, #2, #1, ...

........................................................................
.............................. CYCLE    4 ..............................
........................................................................
   1    -21.7345976 -0.217346E+02  0.267E-01    3.56       0.0  T
   2    -21.7346088 -0.111493E-04  0.166E-01    3.55       1.0  T
   3    -21.7346154 -0.664426E-05  0.151E-02    3.55       1.9  T
   4    -21.7346157 -0.349649E-06  0.807E-03    3.55       3.6  T
   5    -21.7346159 -0.134850E-06  0.388E-03    3.55       7.4  T
   6    -21.7346159 -0.363630E-07  0.150E-03    3.55      19.2  T
   7    -21.7346159 -0.959044E-08  0.651E-04    3.55      44.4  T
     SCC iter.                  ...        0 min,  0.002 sec
     gradient                   ...        0 min,  0.001 sec
 * total energy  :   -21.5623813 Eh     change       -0.3812782E-03 Eh
   gradient norm :     0.0129444 Eh/α   predicted    -0.3194888E-03 ( -16.21%)
   displ. norm   :     0.2659629 α      lambda       -0.5915879E-03
   maximum displ.:     0.1666836 α      in ANC's #4, #3, #2, ...

........................................................................
.............................. CYCLE    5 ..............................
........................................................................
   1    -21.7332771 -0.217333E+02  0.309E-01    3.58       0.0  T
   2    -21.7332895 -0.124073E-04  0.191E-01    3.57       1.0  T
   3    -21.7332967 -0.721478E-05  0.159E-02    3.57       1.8  T
   4    -21.7332971 -0.374026E-06  0.826E-03    3.57       3.5  T
   5    -21.7332972 -0.105545E-06  0.424E-03    3.57       6.8  T
   6    -21.7332973 -0.524311E-07  0.136E-03    3.57      21.2  T
   7    -21.7332973 -0.828025E-08  0.754E-04    3.57      38.3  T
     SCC iter.                  ...        0 min,  0.092 sec
     gradient                   ...        0 min,  0.001 sec
 * total energy  :   -21.5626853 Eh     change       -0.3040461E-03 Eh
   gradient norm :     0.0174341 Eh/α   predicted    -0.3167182E-03 (   4.17%)
   displ. norm   :     0.1367166 α      lambda       -0.5402443E-03
   maximum displ.:     0.0685299 α      in ANC's #4, #2, #5, ...

........................................................................
.............................. CYCLE    6 ..............................
........................................................................
   1    -21.7349820 -0.217350E+02  0.197E-01    3.59       0.0  T
   2    -21.7349880 -0.596779E-05  0.123E-01    3.59       1.0  T
   3    -21.7349898 -0.185503E-05  0.155E-02    3.59       1.9  T
   4    -21.7349913 -0.153000E-05  0.728E-03    3.59       4.0  T
   5    -21.7349914 -0.948112E-07  0.352E-03    3.59       8.2  T
   6    -21.7349915 -0.227567E-07  0.109E-03    3.59      26.4  T
   7    -21.7349915 -0.319891E-08  0.404E-04    3.59      71.5  T
     SCC iter.                  ...        0 min,  0.002 sec
     gradient                   ...        0 min,  0.001 sec
 * total energy  :   -21.5631152 Eh     change       -0.4299212E-03 Eh
   gradient norm :     0.0117519 Eh/α   predicted    -0.2751709E-03 ( -36.00%)
   displ. norm   :     0.3209479 α      lambda       -0.7836106E-03
   maximum displ.:     0.1625584 α      in ANC's #3, #5, #4, ...

........................................................................
.............................. CYCLE    7 ..............................
........................................................................
   1    -21.7344648 -0.217345E+02  0.429E-01    3.55       0.0  T
   2    -21.7345045 -0.396749E-04  0.268E-01    3.56       1.0  T
   3    -21.7345191 -0.146490E-04  0.298E-02    3.57       1.0  T
   4    -21.7345227 -0.358978E-05  0.151E-02    3.57       1.9  T
   5    -21.7345230 -0.307718E-06  0.718E-03    3.57       4.0  T
   6    -21.7345231 -0.913482E-07  0.311E-03    3.57       9.3  T
   7    -21.7345231 -0.320223E-07  0.105E-03    3.57      27.4  T
   8    -21.7345231 -0.412282E-08  0.553E-04    3.57      52.2  T
     SCC iter.                  ...        0 min,  0.092 sec
     gradient                   ...        0 min,  0.001 sec
 * total energy  :   -21.5636208 Eh     change       -0.5055998E-03 Eh
   gradient norm :     0.0187156 Eh/α   predicted    -0.4321602E-03 ( -14.53%)
   displ. norm   :     0.2273778 α      lambda       -0.9102231E-03
   maximum displ.:     0.1329895 α      in ANC's #3, #5, #2, ...

........................................................................
.............................. CYCLE    8 ..............................
........................................................................
   1    -21.7411214 -0.217411E+02  0.309E-01    3.65       0.0  T
   2    -21.7411331 -0.116148E-04  0.192E-01    3.64       1.0  T
   3    -21.7411345 -0.141290E-05  0.287E-02    3.65       1.0  T
   4    -21.7411407 -0.623264E-05  0.105E-02    3.65       2.8  T
   5    -21.7411408 -0.107416E-06  0.288E-03    3.65      10.0  T
   6    -21.7411408 -0.123073E-07  0.854E-04    3.65      33.8  T
     SCC iter.                  ...        0 min,  0.001 sec
     gradient                   ...        0 min,  0.001 sec
 * total energy  :   -21.5640070 Eh     change       -0.3861212E-03 Eh
   gradient norm :     0.0152505 Eh/α   predicted    -0.4786395E-03 (  23.96%)
   displ. norm   :     0.5049296 α      lambda       -0.1053146E-02
   maximum displ.:     0.2684416 α      in ANC's #3, #4, #2, ...

........................................................................
.............................. CYCLE    9 ..............................
........................................................................
   1    -21.7287916 -0.217288E+02  0.729E-01    3.54       0.0  T
   2    -21.7289249 -0.133209E-03  0.459E-01    3.57       1.0  T
   3    -21.7289811 -0.562871E-04  0.557E-02    3.57       1.0  T
   4    -21.7289920 -0.108486E-04  0.276E-02    3.57       1.0  T
   5    -21.7289931 -0.110044E-05  0.146E-02    3.57       2.0  T
   6    -21.7289935 -0.448742E-06  0.593E-03    3.57       4.9  T
   7    -21.7289937 -0.147876E-06  0.259E-03    3.57      11.2  T
   8    -21.7289937 -0.259454E-07  0.155E-03    3.57      18.6  T
     SCC iter.                  ...        0 min,  0.092 sec
     gradient                   ...        0 min,  0.001 sec
 * total energy  :   -21.5634635 Eh     change        0.5434725E-03 Eh
   gradient norm :     0.0478883 Eh/α   predicted    -0.6608334E-03 (-221.59%)
   displ. norm   :     0.2198220 α      lambda       -0.3006436E-02
   maximum displ.:     0.1212198 α      in ANC's #2, #3, #4, ...

........................................................................
.............................. CYCLE   10 ..............................
........................................................................
   1    -21.7378629 -0.217379E+02  0.380E-01    3.60       0.0  T
   2    -21.7379260 -0.630225E-04  0.232E-01    3.59       1.0  T
   3    -21.7379443 -0.182964E-04  0.422E-02    3.60       1.0  T
   4    -21.7379474 -0.310204E-05  0.188E-02    3.59       1.5  T
   5    -21.7379485 -0.115676E-05  0.102E-02    3.59       2.8  T
   6    -21.7379487 -0.232893E-06  0.460E-03    3.59       6.3  T
   7    -21.7379488 -0.737836E-07  0.203E-03    3.59      14.2  T
     SCC iter.                  ...        0 min,  0.002 sec
     gradient                   ...        0 min,  0.001 sec
 * total energy  :   -21.5644230 Eh     change       -0.9595659E-03 Eh
   gradient norm :     0.0252684 Eh/α   predicted    -0.1575856E-02 (  64.23%)
   displ. norm   :     0.2032388 α      lambda       -0.1074239E-02
   maximum displ.:     0.1684098 α      in ANC's #5, #3, #7, ...

........................................................................
.............................. CYCLE   11 ..............................
........................................................................
   1    -21.7424765 -0.217425E+02  0.282E-01    3.73       0.0  T
   2    -21.7425211 -0.446369E-04  0.174E-01    3.71       1.0  T
   3    -21.7425270 -0.584075E-05  0.406E-02    3.71       1.0  T
   4    -21.7425322 -0.519664E-05  0.137E-02    3.71       2.1  T
   5    -21.7425327 -0.507948E-06  0.704E-03    3.71       4.1  T
   6    -21.7425327 -0.844683E-07  0.314E-03    3.71       9.2  T
   7    -21.7425328 -0.196690E-07  0.946E-04    3.71      30.5  T
     SCC iter.                  ...        0 min,  0.002 sec
     gradient                   ...        0 min,  0.091 sec
 * total energy  :   -21.5641346 Eh     change        0.2884344E-03 Eh
   gradient norm :     0.0277514 Eh/α   predicted    -0.5593056E-03 (-293.91%)
   displ. norm   :     0.1984190 α      lambda       -0.1001222E-02
   maximum displ.:     0.1239896 α      in ANC's #5, #3, #4, ...

........................................................................
.............................. CYCLE   12 ..............................
........................................................................
   1    -21.7391721 -0.217392E+02  0.235E-01    3.64       0.0  T
   2    -21.7391920 -0.199177E-04  0.147E-01    3.65       1.0  T
   3    -21.7391957 -0.365125E-05  0.260E-02    3.65       1.1  T
   4    -21.7391987 -0.300034E-05  0.944E-03    3.65       3.1  T
   5    -21.7391988 -0.161014E-06  0.550E-03    3.65       5.2  T
   6    -21.7391989 -0.531873E-07  0.211E-03    3.65      13.7  T
     SCC iter.                  ...        0 min,  0.002 sec
     gradient                   ...        0 min,  0.001 sec
 * total energy  :   -21.5647714 Eh     change       -0.6368319E-03 Eh
   gradient norm :     0.0044951 Eh/α   predicted    -0.5203212E-03 ( -18.30%)
   displ. norm   :     0.1966939 α      lambda       -0.2964101E-03
   maximum displ.:     0.0965738 α      in ANC's #5, #4, #3, ...

........................................................................
.............................. CYCLE   13 ..............................
........................................................................
   1    -21.7361115 -0.217361E+02  0.288E-01    3.58       0.0  T
   2    -21.7361415 -0.300141E-04  0.182E-01    3.60       1.0  T
   3    -21.7361490 -0.747948E-05  0.272E-02    3.60       1.1  T
   4    -21.7361517 -0.266696E-05  0.104E-02    3.60       2.8  T
   5    -21.7361519 -0.195707E-06  0.534E-03    3.60       5.4  T
   6    -21.7361519 -0.389156E-07  0.213E-03    3.60      13.5  T
   7    -21.7361519 -0.101000E-07  0.780E-04    3.60      37.0  T
     SCC iter.                  ...        0 min,  0.002 sec
     gradient                   ...        0 min,  0.001 sec
 * total energy  :   -21.5648524 Eh     change       -0.8097594E-04 Eh
   gradient norm :     0.0238394 Eh/α   predicted    -0.1539357E-03 (  90.10%)
   displ. norm   :     0.0446211 α      lambda       -0.2452393E-03
   maximum displ.:     0.0341042 α      in ANC's #3, #1, #5, ...

........................................................................
.............................. CYCLE   14 ..............................
........................................................................
   1    -21.7376821 -0.217377E+02  0.638E-02    3.65       0.0  T
   2    -21.7376852 -0.309989E-05  0.382E-02    3.64       1.0  T
   3    -21.7376852 -0.140630E-07  0.111E-02    3.64       2.6  T
   4    -21.7376855 -0.301326E-06  0.308E-03    3.64       9.4  T
   5    -21.7376856 -0.529717E-07  0.113E-03    3.64      25.5  T
     SCC iter.                  ...        0 min,  0.001 sec
     gradient                   ...        0 min,  0.001 sec
 * total energy  :   -21.5650286 Eh     change       -0.1761485E-03 Eh
   gradient norm :     0.0118136 Eh/α   predicted    -0.1228633E-03 ( -30.25%)
   displ. norm   :     0.1283975 α      lambda       -0.3334362E-03
   maximum displ.:     0.0689638 α      in ANC's #4, #3, #19, ...

........................................................................
.............................. CYCLE   15 ..............................
........................................................................
   1    -21.7397144 -0.217397E+02  0.221E-01    3.68       0.0  T
   2    -21.7397213 -0.692701E-05  0.139E-01    3.68       1.0  T
   3    -21.7397243 -0.300052E-05  0.170E-02    3.68       1.7  T
   4    -21.7397261 -0.176205E-05  0.760E-03    3.68       3.8  T
   5    -21.7397262 -0.678174E-07  0.253E-03    3.68      11.4  T
   6    -21.7397262 -0.112675E-07  0.834E-04    3.68      34.6  T
     SCC iter.                  ...        0 min,  0.002 sec
     gradient                   ...        0 min,  0.001 sec
 * total energy  :   -21.5652617 Eh     change       -0.2331693E-03 Eh
   gradient norm :     0.0053956 Eh/α   predicted    -0.1694681E-03 ( -27.32%)
   displ. norm   :     0.3904680 α      lambda       -0.4577137E-03
   maximum displ.:     0.2369729 α      in ANC's #3, #4, #5, ...

........................................................................
.............................. CYCLE   16 ..............................
........................................................................
   1    -21.7344813 -0.217345E+02  0.558E-01    3.66       0.0  T
   2    -21.7345342 -0.529704E-04  0.352E-01    3.66       1.0  T
   3    -21.7345652 -0.309797E-04  0.334E-02    3.66       1.0  T
   4    -21.7345683 -0.313701E-05  0.191E-02    3.66       1.5  T
   5    -21.7345687 -0.339255E-06  0.754E-03    3.66       3.8  T
   6    -21.7345689 -0.173828E-06  0.263E-03    3.66      11.0  T
   7    -21.7345689 -0.220220E-07  0.153E-03    3.66      18.9  T
     SCC iter.                  ...        0 min,  0.092 sec
     gradient                   ...        0 min,  0.001 sec
 * total energy  :   -21.5652861 Eh     change       -0.2435839E-04 Eh
   gradient norm :     0.0234568 Eh/α   predicted    -0.2637475E-03 ( 982.78%)
   displ. norm   :     0.0942139 α      lambda       -0.7816734E-03
   maximum displ.:     0.0689803 α      in ANC's #3, #2, #4, ...

........................................................................
.............................. CYCLE   17 ..............................
........................................................................
   1    -21.7403296 -0.217403E+02  0.123E-01    3.69       0.0  T
   2    -21.7403393 -0.966844E-05  0.753E-02    3.68       1.0  T
   3    -21.7403412 -0.184920E-05  0.190E-02    3.69       1.5  T
   4    -21.7403421 -0.976539E-06  0.815E-03    3.68       3.5  T
   5    -21.7403423 -0.199152E-06  0.398E-03    3.68       7.3  T
   6    -21.7403424 -0.347417E-07  0.179E-03    3.68      16.1  T
     SCC iter.                  ...        0 min,  0.001 sec
     gradient                   ...        0 min,  0.001 sec
 * total energy  :   -21.5656167 Eh     change       -0.3305741E-03 Eh
   gradient norm :     0.0046789 Eh/α   predicted    -0.3943039E-03 (  19.28%)
   displ. norm   :     0.1423847 α      lambda       -0.1431777E-03
   maximum displ.:     0.0737108 α      in ANC's #4, #3, #19, ...

........................................................................
.............................. CYCLE   18 ..............................
........................................................................
   1    -21.7394711 -0.217395E+02  0.211E-01    3.67       0.0  T
   2    -21.7394781 -0.697954E-05  0.133E-01    3.68       1.0  T
   3    -21.7394824 -0.427269E-05  0.116E-02    3.68       2.5  T
   4    -21.7394827 -0.306290E-06  0.682E-03    3.68       4.2  T
   5    -21.7394827 -0.455686E-07  0.238E-03    3.68      12.1  T
   6    -21.7394828 -0.133230E-07  0.852E-04    3.68      33.9  T
     SCC iter.                  ...        0 min,  0.001 sec
     gradient                   ...        0 min,  0.091 sec
 * total energy  :   -21.5657310 Eh     change       -0.1143523E-03 Eh
   gradient norm :     0.0066897 Eh/α   predicted    -0.7303724E-04 ( -36.13%)
   displ. norm   :     0.2891170 α      lambda       -0.2210371E-03
   maximum displ.:     0.1692894 α      in ANC's #3, #4, #19, ...

........................................................................
.............................. CYCLE   19 ..............................
........................................................................
   1    -21.7363952 -0.217364E+02  0.399E-01    3.67       0.0  T
   2    -21.7364185 -0.232411E-04  0.251E-01    3.67       1.0  T
   3    -21.7364336 -0.151639E-04  0.241E-02    3.66       1.2  T
   4    -21.7364353 -0.165716E-05  0.142E-02    3.67       2.0  T
   5    -21.7364355 -0.233611E-06  0.523E-03    3.67       5.5  T
   6    -21.7364356 -0.848552E-07  0.158E-03    3.67      18.3  T
   7    -21.7364356 -0.666220E-08  0.899E-04    3.67      32.1  T
     SCC iter.                  ...        0 min,  0.002 sec
     gradient                   ...        0 min,  0.001 sec
 * total energy  :   -21.5657423 Eh     change       -0.1132074E-04 Eh
   gradient norm :     0.0166222 Eh/α   predicted    -0.1197557E-03 ( 957.84%)
   displ. norm   :     0.1185566 α      lambda       -0.2813228E-03
   maximum displ.:     0.0667420 α      in ANC's #3, #4, #5, ...

........................................................................
.............................. CYCLE   20 ..............................
........................................................................
   1    -21.7403966 -0.217404E+02  0.169E-01    3.71       0.0  T
   2    -21.7404048 -0.819969E-05  0.107E-01    3.70       1.0  T
   3    -21.7404070 -0.216079E-05  0.169E-02    3.71       1.7  T
   4    -21.7404084 -0.140763E-05  0.660E-03    3.70       4.4  T
   5    -21.7404085 -0.701449E-07  0.384E-03    3.70       7.5  T
   6    -21.7404085 -0.278786E-07  0.141E-03    3.70      20.4  T
   7    -21.7404085 -0.622103E-08  0.494E-04    3.70      58.5  T
     SCC iter.                  ...        0 min,  0.002 sec
     gradient                   ...        0 min,  0.001 sec
 * total energy  :   -21.5658542 Eh     change       -0.1118330E-03 Eh
   gradient norm :     0.0052049 Eh/α   predicted    -0.1426387E-03 (  27.55%)
   displ. norm   :     0.0627453 α      lambda       -0.6086940E-04
   maximum displ.:     0.0298737 α      in ANC's #3, #4, #19, ...
 * RMSD in coord.:     0.7415040 α      energy gain  -0.1561052E-01 Eh

generating ANC from model Hessian ...
Using Lindh-Hessian (1995)
 Shifting diagonal of input Hessian by   3.692443660961271E-003
 Lowest  eigenvalues of input Hessian
   -0.000000   -0.000000   -0.000000    0.000000    0.000000    0.000000
    0.010000    0.012721    0.013905    0.016600    0.019739    0.028503
    0.046845    0.057512    0.064220    0.073258    0.077664    0.094419
 Highest eigenvalues
    1.139846    1.179350    1.286438    1.344287    1.474155    2.219653
 

........................................................................
.............................. CYCLE   21 ..............................
........................................................................
   1    -21.7404245 -0.217404E+02  0.918E-02    3.69       0.0  T
   2    -21.7404263 -0.182751E-05  0.578E-02    3.70       1.0  T
   3    -21.7404272 -0.861565E-06  0.591E-03    3.70       4.9  T
   4    -21.7404273 -0.934913E-07  0.293E-03    3.70       9.8  T
   5    -21.7404273 -0.117383E-07  0.136E-03    3.70      21.3  T
   6    -21.7404273 -0.209146E-08  0.476E-04    3.70      60.7  T
   7    -21.7404273 -0.715836E-09  0.194E-04    3.70     148.4  T
     SCC iter.                  ...        0 min,  0.002 sec
     gradient                   ...        0 min,  0.001 sec
 * total energy  :   -21.5658951 Eh     change       -0.4092006E-04 Eh
   gradient norm :     0.0023333 Eh/α   predicted     0.0000000E+00 (-100.00%)
   displ. norm   :     0.0663276 α      lambda       -0.7126376E-04
   maximum displ.:     0.0595591 α      in ANC's #2, #3, #1, ...

........................................................................
.............................. CYCLE   22 ..............................
........................................................................
   1    -21.7408425 -0.217408E+02  0.657E-02    3.70       0.0  T
   2    -21.7408427 -0.167867E-06  0.397E-02    3.70       1.0  T
   3    -21.7408427 -0.572837E-07  0.245E-03    3.70      11.8  T
   4    -21.7408428 -0.203717E-07  0.126E-03    3.70      22.9  T
   5    -21.7408428 -0.291768E-08  0.507E-04    3.70      57.0  T
   6    -21.7408428 -0.202359E-09  0.133E-04    3.70     217.4  T
     SCC iter.                  ...        0 min,  0.002 sec
     gradient                   ...        0 min,  0.001 sec
 * total energy  :   -21.5659212 Eh     change       -0.2606767E-04 Eh
   gradient norm :     0.0032301 Eh/α   predicted    -0.3578902E-04 (  37.29%)
   displ. norm   :     0.0680185 α      lambda       -0.6704392E-04
   maximum displ.:     0.0555425 α      in ANC's #2, #1, #6, ...

........................................................................
.............................. CYCLE   23 ..............................
........................................................................
   1    -21.7411900 -0.217412E+02  0.939E-02    3.70       0.0  T
   2    -21.7411906 -0.612048E-06  0.576E-02    3.70       1.0  T
   3    -21.7411910 -0.363234E-06  0.406E-03    3.70       7.1  T
   4    -21.7411910 -0.249420E-07  0.247E-03    3.70      11.7  T
   5    -21.7411910 -0.881928E-08  0.829E-04    3.70      34.8  T
   6    -21.7411910 -0.132866E-08  0.212E-04    3.70     136.5  T
     SCC iter.                  ...        0 min,  0.001 sec
     gradient                   ...        0 min,  0.002 sec
 * total energy  :   -21.5659745 Eh     change       -0.5331460E-04 Eh
   gradient norm :     0.0027524 Eh/α   predicted    -0.3367680E-04 ( -36.83%)
   displ. norm   :     0.1843268 α      lambda       -0.1166692E-03
   maximum displ.:     0.1503529 α      in ANC's #2, #1, #6, ...

........................................................................
.............................. CYCLE   24 ..............................
........................................................................
   1    -21.7402999 -0.217403E+02  0.245E-01    3.70       0.0  T
   2    -21.7403047 -0.478141E-05  0.150E-01    3.70       1.0  T
   3    -21.7403073 -0.266660E-05  0.103E-02    3.70       2.8  T
   4    -21.7403075 -0.152563E-06  0.613E-03    3.70       4.7  T
   5    -21.7403075 -0.252479E-07  0.199E-03    3.70      14.5  T
   6    -21.7403075 -0.103952E-07  0.610E-04    3.70      47.3  T
   7    -21.7403075 -0.118064E-08  0.329E-04    3.70      87.6  T
     SCC iter.                  ...        0 min,  0.002 sec
     gradient                   ...        0 min,  0.001 sec
 * total energy  :   -21.5660352 Eh     change       -0.6067723E-04 Eh
   gradient norm :     0.0082197 Eh/α   predicted    -0.6031597E-04 (  -0.60%)
   displ. norm   :     0.0495750 α      lambda       -0.6810355E-04
   maximum displ.:     0.0304451 α      in ANC's #5, #2, #8, ...

........................................................................
.............................. CYCLE   25 ..............................
........................................................................
   1    -21.7405317 -0.217405E+02  0.638E-02    3.69       0.0  T
   2    -21.7405325 -0.802596E-06  0.400E-02    3.69       1.0  T
   3    -21.7405329 -0.412400E-06  0.439E-03    3.69       6.6  T
   4    -21.7405330 -0.522279E-07  0.236E-03    3.69      12.3  T
   5    -21.7405330 -0.936224E-08  0.111E-03    3.69      26.0  T
     SCC iter.                  ...        0 min,  0.091 sec
     gradient                   ...        0 min,  0.001 sec
 * total energy  :   -21.5660910 Eh     change       -0.5581169E-04 Eh
   gradient norm :     0.0045063 Eh/α   predicted    -0.3413465E-04 ( -38.84%)
   displ. norm   :     0.2910012 α      lambda       -0.1854892E-03
   maximum displ.:     0.2104803 α      in ANC's #2, #5, #1, ...

........................................................................
.............................. CYCLE   26 ..............................
........................................................................
   1    -21.7388217 -0.217388E+02  0.335E-01    3.67       0.0  T
   2    -21.7388323 -0.105974E-04  0.207E-01    3.67       1.0  T
   3    -21.7388372 -0.489062E-05  0.184E-02    3.67       1.6  T
   4    -21.7388387 -0.152577E-05  0.964E-03    3.67       3.0  T
   5    -21.7388388 -0.858914E-07  0.439E-03    3.67       6.6  T
   6    -21.7388389 -0.496541E-07  0.121E-03    3.67      23.8  T
   7    -21.7388389 -0.367261E-08  0.475E-04    3.67      60.8  T
     SCC iter.                  ...        0 min,  0.002 sec
     gradient                   ...        0 min,  0.001 sec
 * total energy  :   -21.5661972 Eh     change       -0.1062375E-03 Eh
   gradient norm :     0.0086045 Eh/α   predicted    -0.1006013E-03 (  -5.31%)
   displ. norm   :     0.0753454 α      lambda       -0.1034624E-03
   maximum displ.:     0.0487307 α      in ANC's #5, #1, #2, ...

........................................................................
.............................. CYCLE   27 ..............................
........................................................................
   1    -21.7406187 -0.217406E+02  0.923E-02    3.69       0.0  T
   2    -21.7406203 -0.157054E-05  0.580E-02    3.69       1.0  T
   3    -21.7406211 -0.829003E-06  0.551E-03    3.68       5.2  T
   4    -21.7406211 -0.454219E-07  0.289E-03    3.68      10.0  T
   5    -21.7406212 -0.155642E-07  0.154E-03    3.68      18.8  T
     SCC iter.                  ...        0 min,  0.001 sec
     gradient                   ...        0 min,  0.001 sec
 * total energy  :   -21.5662572 Eh     change       -0.5998796E-04 Eh
   gradient norm :     0.0044770 Eh/α   predicted    -0.5202622E-04 ( -13.27%)
   displ. norm   :     0.2145807 α      lambda       -0.1103804E-03
   maximum displ.:     0.1350644 α      in ANC's #2, #1, #5, ...

........................................................................
.............................. CYCLE   28 ..............................
........................................................................
   1    -21.7398963 -0.217399E+02  0.250E-01    3.68       0.0  T
   2    -21.7399001 -0.378392E-05  0.152E-01    3.69       1.0  T
   3    -21.7399020 -0.193468E-05  0.955E-03    3.68       3.0  T
   4    -21.7399023 -0.253860E-06  0.544E-03    3.68       5.3  T
   5    -21.7399023 -0.521753E-07  0.244E-03    3.68      11.8  T
   6    -21.7399023 -0.894890E-08  0.695E-04    3.68      41.5  T
     SCC iter.                  ...        0 min,  0.001 sec
     gradient                   ...        0 min,  0.001 sec
 * total energy  :   -21.5663021 Eh     change       -0.4493629E-04 Eh
   gradient norm :     0.0075482 Eh/α   predicted    -0.5772924E-04 (  28.47%)
   displ. norm   :     0.0271591 α      lambda       -0.6575207E-04
   maximum displ.:     0.0189512 α      in ANC's #2, #7, #6, ...

........................................................................
.............................. CYCLE   29 ..............................
........................................................................
   1    -21.7414019 -0.217414E+02  0.351E-02    3.68       0.0  T
   2    -21.7414023 -0.422638E-06  0.212E-02    3.68       1.4  T
   3    -21.7414024 -0.693529E-07  0.335E-03    3.69       8.6  T
   4    -21.7414024 -0.238319E-07  0.150E-03    3.68      19.3  T
   5    -21.7414024 -0.884285E-08  0.671E-04    3.68      43.0  T
     SCC iter.                  ...        0 min,  0.002 sec
     gradient                   ...        0 min,  0.001 sec
 * total energy  :   -21.5663370 Eh     change       -0.3487910E-04 Eh
   gradient norm :     0.0019790 Eh/α   predicted    -0.3289889E-04 (  -5.68%)
   displ. norm   :     0.2135677 α      lambda       -0.5116205E-04
   maximum displ.:     0.1477911 α      in ANC's #2, #5, #3, ...

........................................................................
.............................. CYCLE   30 ..............................
........................................................................
   1    -21.7400673 -0.217401E+02  0.233E-01    3.65       0.0  T
   2    -21.7400735 -0.616130E-05  0.144E-01    3.66       1.0  T
   3    -21.7400758 -0.234021E-05  0.157E-02    3.66       1.8  T
   4    -21.7400772 -0.134618E-05  0.742E-03    3.66       3.9  T
   5    -21.7400772 -0.564103E-07  0.345E-03    3.66       8.4  T
   6    -21.7400773 -0.242890E-07  0.107E-03    3.66      26.9  T
   7    -21.7400773 -0.348604E-08  0.311E-04    3.66      92.9  T
   8    -21.7400773 -0.158654E-09  0.132E-04    3.66     218.7  T
     SCC iter.                  ...        0 min,  0.092 sec
     gradient                   ...        0 min,  0.002 sec
 * total energy  :   -21.5663544 Eh     change       -0.1737831E-04 Eh
   gradient norm :     0.0078470 Eh/α   predicted    -0.2609722E-04 (  50.17%)
   displ. norm   :     0.0568495 α      lambda       -0.5752221E-04
   maximum displ.:     0.0359339 α      in ANC's #2, #1, #3, ...

........................................................................
.............................. CYCLE   31 ..............................
........................................................................
   1    -21.7407782 -0.217408E+02  0.656E-02    3.67       0.0  T
   2    -21.7407786 -0.315947E-06  0.397E-02    3.67       1.0  T
   3    -21.7407786 -0.331162E-07  0.355E-03    3.67       8.1  T
   4    -21.7407787 -0.735987E-07  0.136E-03    3.67      21.2  T
   5    -21.7407787 -0.380673E-08  0.678E-04    3.67      42.6  T
     SCC iter.                  ...        0 min,  0.001 sec
     gradient                   ...        0 min,  0.001 sec
 * total energy  :   -21.5663926 Eh     change       -0.3819958E-04 Eh
   gradient norm :     0.0035167 Eh/α   predicted    -0.2885416E-04 ( -24.46%)
   displ. norm   :     0.0463923 α      lambda       -0.2543880E-04
   maximum displ.:     0.0264653 α      in ANC's #2, #1, #3, ...

........................................................................
.............................. CYCLE   32 ..............................
........................................................................
   1    -21.7415491 -0.217415E+02  0.553E-02    3.68       0.0  T
   2    -21.7415494 -0.258646E-06  0.339E-02    3.68       1.0  T
   3    -21.7415495 -0.102401E-06  0.244E-03    3.68      11.8  T
   4    -21.7415495 -0.190421E-07  0.127E-03    3.68      22.8  T
   5    -21.7415495 -0.198085E-08  0.556E-04    3.68      51.9  T
   6    -21.7415495 -0.295184E-09  0.160E-04    3.68     180.2  T
     SCC iter.                  ...        0 min,  0.001 sec
     gradient                   ...        0 min,  0.091 sec
 * total energy  :   -21.5664090 Eh     change       -0.1644114E-04 Eh
   gradient norm :     0.0011583 Eh/α   predicted    -0.1274553E-04 ( -22.48%)
   displ. norm   :     0.1766320 α      lambda       -0.1908908E-04
   maximum displ.:     0.1141041 α      in ANC's #2, #1, #3, ...

........................................................................
.............................. CYCLE   33 ..............................
........................................................................
   1    -21.7406301 -0.217406E+02  0.200E-01    3.67       0.0  T
   2    -21.7406332 -0.315076E-05  0.123E-01    3.67       1.0  T
   3    -21.7406348 -0.157499E-05  0.114E-02    3.67       2.5  T
   4    -21.7406355 -0.696346E-06  0.590E-03    3.67       4.9  T
   5    -21.7406355 -0.388193E-07  0.147E-03    3.67      19.6  T
   6    -21.7406355 -0.395432E-08  0.482E-04    3.67      59.9  T
   7    -21.7406355 -0.461515E-09  0.185E-04    3.67     155.7  T
     SCC iter.                  ...        0 min,  0.002 sec
     gradient                   ...        0 min,  0.001 sec
 * total energy  :   -21.5664136 Eh     change       -0.4553817E-05 Eh
   gradient norm :     0.0047446 Eh/α   predicted    -0.9676662E-05 ( 112.50%)
   displ. norm   :     0.0289183 α      lambda       -0.2638941E-04
   maximum displ.:     0.0169808 α      in ANC's #1, #3, #4, ...

........................................................................
.............................. CYCLE   34 ..............................
........................................................................
   1    -21.7413559 -0.217414E+02  0.328E-02    3.68       0.0  T
   2    -21.7413562 -0.278716E-06  0.198E-02    3.68       1.5  T
   3    -21.7413563 -0.509402E-07  0.255E-03    3.68      11.3  T
   4    -21.7413563 -0.117330E-07  0.922E-04    3.68      31.3  T
     SCC iter.                  ...        0 min,  0.001 sec
     gradient                   ...        0 min,  0.001 sec
 * total energy  :   -21.5664283 Eh     change       -0.1470788E-04 Eh
   gradient norm :     0.0011805 Eh/α   predicted    -0.1320590E-04 ( -10.21%)
   displ. norm   :     0.0183992 α      lambda       -0.3919096E-05
   maximum displ.:     0.0101934 α      in ANC's #3, #4, #5, ...

........................................................................
.............................. CYCLE   35 ..............................
........................................................................
   1    -21.7415789 -0.217416E+02  0.243E-02    3.68       0.0  T
   2    -21.7415790 -0.111490E-06  0.153E-02    3.68       1.9  T
   3    -21.7415791 -0.716026E-07  0.135E-03    3.68      21.4  T
   4    -21.7415791 -0.156856E-08  0.637E-04    3.68      45.3  T
   5    -21.7415791 -0.222347E-09  0.294E-04    3.68      98.2  T
     SCC iter.                  ...        0 min,  0.091 sec
     gradient                   ...        0 min,  0.001 sec
 * total energy  :   -21.5664319 Eh     change       -0.3653276E-05 Eh
   gradient norm :     0.0010962 Eh/α   predicted    -0.1961248E-05 ( -46.32%)
   displ. norm   :     0.0422101 α      lambda       -0.3813663E-05
   maximum displ.:     0.0254182 α      in ANC's #3, #4, #5, ...

........................................................................
.............................. CYCLE   36 ..............................
........................................................................
   1    -21.7415987 -0.217416E+02  0.497E-02    3.68       0.0  T
   2    -21.7415990 -0.342842E-06  0.311E-02    3.68       1.0  T
   3    -21.7415993 -0.237953E-06  0.258E-03    3.68      11.2  T
   4    -21.7415993 -0.725993E-08  0.153E-03    3.68      18.9  T
   5    -21.7415993 -0.453776E-08  0.539E-04    3.68      53.6  T
   6    -21.7415993 -0.797289E-09  0.105E-04    3.68     274.7  T
     SCC iter.                  ...        0 min,  0.002 sec
     gradient                   ...        0 min,  0.001 sec
 * total energy  :   -21.5664353 Eh     change       -0.3325923E-05 Eh
   gradient norm :     0.0009181 Eh/α   predicted    -0.1909461E-05 ( -42.59%)
   displ. norm   :     0.0385154 α      lambda       -0.3621383E-05
   maximum displ.:     0.0258338 α      in ANC's #4, #3, #6, ...

   *** GEOMETRY OPTIMIZATION CONVERGED AFTER 36 ITERATIONS ***

------------------------------------------------------------------------
 total energy gain   :        -0.0161916 Eh      -10.1604 kcal/mol
 total RMSD          :         1.0206206 a0        0.5401 Å
 total power (kW/mol):        -1.1808627 (step)  -26.5514 (real)
------------------------------------------------------------------------

 ANCopt (total)                0 d,  0 h,  0 min,  1.601 sec
 optimizer setup                ...        0 min,  0.000 sec (  0.021%)
 model hessian                  ...        0 min,  0.096 sec (  5.981%)
 ANC generation                 ...        0 min,  0.088 sec (  5.505%)
 coordinate transformation      ...        0 min,  0.001 sec (  0.091%)
 single point calculation       ...        0 min,  1.403 sec ( 87.629%)
 optimization log               ...        0 min,  0.003 sec (  0.182%)
 hessian update                 ...        0 min,  0.002 sec (  0.135%)
 rational function              ...        0 min,  0.002 sec (  0.143%)

================
 final structure:
================
12
 xtb: 6.2.3 (830e466)
C         1.73181826947221    0.90786557379710   -2.58314881392836
C         1.17007506433411    1.12229343994357   -1.17548642755709
C         0.91283409473351   -0.19449181511373   -0.47455454628546
O        -0.05207626703835    1.82486333881203   -1.16580697377250
O         0.20403047803457    3.20535362353923   -1.42909416895106
O         1.68975693149127   -1.10264501887322   -0.43529901128861
H        -0.68802576714569    3.57294221048139   -1.45709655121221
H         2.62147033741614    0.28864981061695   -2.51974235647720
H         1.98362446830203    1.86586840505621   -3.02991280911199
H        -0.07941346903666   -0.24040348071327    0.01003494666689
H         0.99004963087411    0.40959515168224   -3.20318963477617
H         1.90486622856278    1.67969876077149   -0.57249365330622
 
 Bond Distances (Angstroems)
 ---------------------------
C1-C2=1.5307         C1-H8=1.0858         C1-H9=1.0866         C1-H11=1.0876        C2-C1=1.5307         C2-C3=1.5137         
C2-O4=1.4097         C2-H12=1.1019        C3-C2=1.5137         C3-O6=1.1958         C3-H10=1.1052        O4-C2=1.4097         
O4-O5=1.4285         O5-O4=1.4285         O5-H7=0.9652         O6-C3=1.1958         H7-O5=0.9652         H8-C1=1.0858         
H9-C1=1.0866         H10-C3=1.1052        H11-C1=1.0876        H12-C2=1.1019        
 C  H  Rav=1.0934 sigma=0.0084  Rmin=1.0858  Rmax=1.1052     5
 C  C  Rav=1.5222 sigma=0.0085  Rmin=1.5137  Rmax=1.5307     2
 O  H  Rav=0.9652 sigma=0.0000  Rmin=0.9652  Rmax=0.9652     1
 O  C  Rav=1.3028 sigma=0.1070  Rmin=1.1958  Rmax=1.4097     2
 O  O  Rav=1.4285 sigma=0.0000  Rmin=1.4285  Rmax=1.4285     1
 
 selected bond angles (degree)
 --------------------
H8-C1-C2=109.08                H9-C1-C2=109.85                H9-C1-H8=109.69                H11-C1-C2=109.76               
H11-C1-H8=109.32               H11-C1-H9=109.12               C3-C2-C1=111.49                O4-C2-C1=113.22                
O4-C2-C3=106.44                H12-C2-C1=109.23               H12-C2-C3=107.46               H12-C2-O4=108.80               
O6-C3-C2=124.43                H10-C3-C2=113.06               H10-C3-O6=122.50               O5-O4-C2=108.96                
H7-O5-O4=101.99                
 
 selected dihedral angles (degree)
 ---------------------------------
C3-C2-C1-H8=304.94            C3-C2-C1-H9=184.68            C3-C2-C1-H11= 64.69           O4-C2-C1-H8=184.95            
O4-C2-C1-H9= 64.69            O4-C2-C1-H11=304.70           H12-C2-C1-H8= 63.55           H12-C2-C1-H9=303.29           
H12-C2-C1-H11=183.30          O6-C3-C2-C1= 47.17            O6-C3-C2-O4=171.08            O6-C3-C2-H12=287.50           
H10-C3-C2-C1=227.05           H10-C3-C2-O4=350.96           H10-C3-C2-H12=107.38          O5-O4-C2-C1=285.21            
O5-O4-C2-C3=162.37            O5-O4-C2-H12= 46.86           H7-O5-O4-C2=176.43            
           -------------------------------------------------
          |                Final Singlepoint                |
           -------------------------------------------------

          ...................................................
          :                      SETUP                      :
          :.................................................:
          :  # basis functions                  30          :
          :  # atomic orbitals                  30          :
          :  # shells                           18          :
          :  # electrons                        36          :
          :  max. iterations                   100          :
          :  Hamiltonian                  GFN2-xTB          :
          :  restarted?                      false          :
          :  GBSA solvation                  false          :
          :  PC potential                    false          :
          :  electronic temp.          300.0000000     K    :
          :  accuracy                    1.0000000          :
          :  -> integral cutoff          0.2500000E+02      :
          :  -> integral neglect         0.1000000E-07      :
          :  -> SCF convergence          0.1000000E-05 Eh   :
          :  -> wf. convergence          0.1000000E-03 e    :
          :  Broyden damping             0.4000000          :
          ...................................................

 iter      E             dE          RMSdq      gap      omega  full diag
   1    -21.7415993 -0.217416E+02  0.241E-05    3.68       0.0  T
   2    -21.7415993 -0.838440E-12  0.148E-05    3.68    1948.1  T
   3    -21.7415993 -0.131450E-12  0.666E-06    3.68    4337.2  T

   *** convergence criteria satisfied after 3 iterations ***

         #    Occupation            Energy/Eh            Energy/eV
      -------------------------------------------------------------
         1        2.0000           -0.7384580             -20.0945
       ...           ...                  ...                  ...
        12        2.0000           -0.5312598             -14.4563
        13        2.0000           -0.5166074             -14.0576
        14        2.0000           -0.4979645             -13.5503
        15        2.0000           -0.4805431             -13.0762
        16        2.0000           -0.4715857             -12.8325
        17        2.0000           -0.4256016             -11.5812
        18        2.0000           -0.4165666             -11.3354 (HOMO)
        19                         -0.2813298              -7.6554 (LUMO)
        20                         -0.1677189              -4.5639
        21                          0.0427957               1.1645
        22                          0.0737677               2.0073
        23                          0.1189521               3.2369
       ...                                ...                  ...
        30                          0.6087689              16.5654
      -------------------------------------------------------------
                  HL-Gap            0.1352368 Eh            3.6800 eV
             Fermi-level           -0.3489482 Eh           -9.4954 eV

 SCC (total)                   0 d,  0 h,  0 min,  0.094 sec
 SCC setup                      ...        0 min,  0.000 sec (  0.104%)
 Dispersion                     ...        0 min,  0.000 sec (  0.044%)
 integral evaluation            ...        0 min,  0.090 sec ( 96.297%)
 zeroth order Hamiltonian       ...        0 min,  0.000 sec (  0.062%)
 iterations                     ...        0 min,  0.002 sec (  1.782%)
 molecular gradient             ...        0 min,  0.001 sec (  1.408%)
 printout                       ...        0 min,  0.000 sec (  0.080%)

         :::::::::::::::::::::::::::::::::::::::::::::::::::::
         ::                     SUMMARY                     ::
         :::::::::::::::::::::::::::::::::::::::::::::::::::::
         :: total energy             -21.566435269459 Eh    ::
         :: gradient norm              0.000918873927 Eh/a0 ::
         :: HOMO-LUMO gap              3.679980718456 eV    ::
         ::.................................................::
         :: SCC energy               -21.741599288667 Eh    ::
         :: -> isotropic ES            0.046159082100 Eh    ::
         :: -> anisotropic ES         -0.004401956357 Eh    ::
         :: -> anisotropic XC         -0.004139496531 Eh    ::
         :: -> dispersion             -0.005931851703 Eh    ::
         :: repulsion energy           0.175156376544 Eh    ::
         :: add. restraining           0.000000000000 Eh    ::
         :::::::::::::::::::::::::::::::::::::::::::::::::::::

           -------------------------------------------------
          |                Property Printout                |
           -------------------------------------------------

    * Orbital Energies and Occupations

         #    Occupation            Energy/Eh            Energy/eV
      -------------------------------------------------------------
         1        2.0000           -0.7384580             -20.0945
       ...           ...                  ...                  ...
         6        2.0000           -0.6192083             -16.8495
         7        2.0000           -0.6101464             -16.6029
         8        2.0000           -0.5976098             -16.2618
         9        2.0000           -0.5716613             -15.5557
        10        2.0000           -0.5574899             -15.1701
        11        2.0000           -0.5486578             -14.9297
        12        2.0000           -0.5312598             -14.4563
        13        2.0000           -0.5166074             -14.0576
        14        2.0000           -0.4979645             -13.5503
        15        2.0000           -0.4805431             -13.0762
        16        2.0000           -0.4715857             -12.8325
        17        2.0000           -0.4256016             -11.5812
        18        2.0000           -0.4165666             -11.3354 (HOMO)
        19                         -0.2813298              -7.6554 (LUMO)
        20                         -0.1677189              -4.5639
        21                          0.0427957               1.1645
        22                          0.0737677               2.0073
        23                          0.1189521               3.2369
        24                          0.1227355               3.3398
        25                          0.1535689               4.1788
        26                          0.1647499               4.4831
        27                          0.1920279               5.2253
        28                          0.2454723               6.6796
        29                          0.2480391               6.7495
        30                          0.6087689              16.5654
      -------------------------------------------------------------
                  HL-Gap            0.1352368 Eh            3.6800 eV
             Fermi-level           -0.3489482 Eh           -9.4954 eV

     #   Z        covCN         q      C6AA      α(0)
     1   6 C      3.752    -0.115    22.762     6.803
     2   6 C      3.727     0.105    18.954     6.216
     3   6 C      2.759     0.208    23.593     7.954
     4   8 O      1.778    -0.219    17.617     5.668
     5   8 O      1.733    -0.319    19.317     5.935
     6   8 O      0.856    -0.297    19.729     5.955
     7   1 H      0.805     0.324     0.652     1.269
     8   1 H      0.925     0.065     2.141     2.288
     9   1 H      0.925     0.067     2.120     2.277
    10   1 H      0.922     0.046     2.375     2.410
    11   1 H      0.925     0.057     2.234     2.337
    12   1 H      0.923     0.079     1.994     2.208

 Mol. C6AA /au·bohr⁶  :       1230.398397
 Mol. C8AA /au·bohr⁸  :      26141.925360
 Mol. α(0) /au        :         51.321163


Wiberg/Mayer (AO) data.
largest (>0.10) Wiberg bond orders for each atom
          total WBO             WBO to atom ...
     1  C   3.988        H   11 0.986    H    9 0.983    H    8 0.982    C    2 0.980
     2  C   3.941        C    1 0.980    O    4 0.977    C    3 0.973    H   12 0.925
     3  C   3.915        O    6 1.944    C    2 0.973    H   10 0.929
     4  O   2.013        C    2 0.977    O    5 0.974
     5  O   1.901        O    4 0.974    H    7 0.888
     6  O   2.114        C    3 1.944
     7  H   0.895        O    5 0.888
     8  H   0.996        C    1 0.982
     9  H   0.996        C    1 0.983
    10  H   0.998        C    3 0.929
    11  H   0.997        C    1 0.986
    12  H   0.994        C    2 0.925

molecular dipole:
                 x           y           z       tot (Debye)
 q only:       -0.303       0.614      -0.284
   full:       -0.565       0.806      -0.242       2.578
molecular quadrupole (traceless):
                xx          xy          yy          xz          yz          zz
 q only:       -0.726       0.324      -0.854      -1.038      -1.764       1.580
  q+dip:       -0.646       0.472      -1.466       0.129      -1.628       2.112
   full:       -1.034       0.448      -1.041       0.405      -1.502       2.075

           -------------------------------------------------
          |                Geometry Summary                 |
           -------------------------------------------------

      molecular mass/u    :       90.0780670
   center of mass at/Å    :        0.9110986       1.0271428      -1.2231953
  moments of inertia/u·Å² :        0.6503080E+02   0.2312915E+03   0.2792669E+03
rotational constants/cm⁻¹ :        0.2592254E+00   0.7288478E-01   0.6036388E-01

 * 9 selected distances

     #   Z        #   Z                                     value/Å
     1   6 C      2   6 C                                 1.5307018 (max)
     2   6 C      4   8 O                                 1.4097347
     4   8 O      5   8 O                                 1.4285182
     3   6 C      6   8 O                                 1.1957811
     5   8 O      7   1 H                                 0.9652305 (min)
     1   6 C      8   1 H                                 1.0857851
     1   6 C      9   1 H                                 1.0866342
     1   6 C     11   1 H                                 1.0876326
     2   6 C     12   1 H                                 1.1019161

 * 5 distinct bonds (by element types)

   Z      Z             #   av. dist./Å        max./Å        min./Å
   1 H    6 C           4     1.0904920     1.1019161     1.0857851
   6 C    6 C           1     1.5307018     1.5307018     1.5307018
   1 H    8 O           1     0.9652305     0.9652305     0.9652305
   6 C    8 O           2     1.3027579     1.4097347     1.1957811
   8 O    8 O           1     1.4285182     1.4285182     1.4285182


optimized geometry written to: xtbopt.xyz


           -------------------------------------------------
          | TOTAL ENERGY              -21.566435269459 Eh   |
          | GRADIENT NORM               0.000918873927 Eh/α |
          | HOMO-LUMO GAP               3.679980718456 eV   |
           -------------------------------------------------

------------------------------------------------------------------------
 * finished run on 2020/12/23 at 21:43:45.267     
------------------------------------------------------------------------
 total:
 * wall-time:     0 d,  0 h,  0 min,  2.153 sec
 *  cpu-time:     0 d,  0 h,  0 min,  9.061 sec
 * ratio c/w:     4.209 speedup
 SCF:
 * wall-time:     0 d,  0 h,  0 min,  0.204 sec
 *  cpu-time:     0 d,  0 h,  0 min,  0.956 sec
 * ratio c/w:     4.679 speedup
 ANC optimizer:
 * wall-time:     0 d,  0 h,  0 min,  1.698 sec
 *  cpu-time:     0 d,  0 h,  0 min,  6.745 sec
 * ratio c/w:     3.973 speedup

