      -----------------------------------------------------------      
     |                   =====================                   |     
     |                           x T B                           |     
     |                   =====================                   |     
     |                         S. Grimme                         |     
     |          Mulliken Center for Theoretical Chemistry        |     
     |                    University of Bonn                     |     
      -----------------------------------------------------------      

   * xtb version 6.2.3 (830e466) compiled by 'ehlert@majestix' on 2020-03-16

   xtb is free software: you can redistribute it and/or modify it under
   the terms of the GNU Lesser General Public License as published by
   the Free Software Foundation, either version 3 of the License, or
   (at your option) any later version.
   
   xtb is distributed in the hope that it will be useful,
   but WITHOUT ANY WARRANTY; without even the implied warranty of
   MERCHANTABILITY or FITNESS FOR A PARTICULAR PURPOSE.  See the
   GNU Lesser General Public License for more details.
   
   Cite this work as:
   * S. Grimme, C. Bannwarth, P. Shushkov, J. Chem. Theory Comput., 2017,
     13, 1989-2009. DOI: 10.1021/acs.jctc.7b00118
   * C. Bannwarth, S. Ehlert and S. Grimme., J. Chem. Theory Comput., 2019,
     15, 1652-1671. DOI: 10.1021/acs.jctc.8b01176
   * P. Pracht, E. Caldeweyher, S. Ehlert, S. Grimme, ChemRxiv, 2019, preprint.
     DOI: 10.26434/chemrxiv.8326202.v1
   
   for DFT-D4:
   * E. Caldeweyher, C. Bannwarth and S. Grimme, J. Chem. Phys., 2017,
     147, 034112. DOI: 10.1063/1.4993215
   * E. Caldeweyher, S. Ehlert, A. Hansen, H. Neugebauer, S. Spicher,
     C. Bannwarth and S. Grimme, J. Chem. Phys., 2019, 150, 154122.
     DOI: 10.1063/1.5090222
   
   for sTDA-xTB:
   * S. Grimme and C. Bannwarth, J. Chem. Phys., 2016, 145, 054103.
     DOI: 10.1063/1.4959605
   
   in the mass-spec context:
   * V. Asgeirsson, C. Bauer and S. Grimme, Chem. Sci., 2017, 8, 4879.
     DOI: 10.1039/c7sc00601b
   
   for metadynamics refer to:
   * S. Grimme, J. Chem. Theory Comput., 2019, 155, 2847-2862
     DOI: 10.1021/acs.jctc.9b00143
   
   with help from (in alphabetical order)
   C. Bannwarth, F. Bohle, G. Brandenburg, E. Caldeweyher, M. Checinski,
   S. Dohm, S. Ehlert, S. Ehrlich, F. März, H. Neugebauer, J. Pisarek,
   P. Pracht, P. Shushkov, and S. Spicher.
   
 * started run on 2020/12/23 at 21:42:43.519     

           -------------------------------------------------
          |                Calculation Setup                |
           -------------------------------------------------

          program call               : xtb -c 0 -u 0 -a 1.0 --iterations 100 --opt normal --namespace product_26 /scratch/bell/zhao922/YARP/paper-example/potential_product/test/reaction_channel/pp_0/pp_25_0.xyz
          hostname                   : bell-fe05.rcac.purdue.edu
          calculation namespace      : product_26
          coordinate file            : /scratch/bell/zhao922/YARP/paper-example/potential_product/test/reaction_channel/pp_0/pp_25_0.xyz
          omp threads                :                    32
          number of atoms            :                    12
          number of electrons        :                    36
          charge                     :                     0
          spin                       :                   0.0
          first test random number   :      0.61173320701221


molecular fragmentation (1/2 indicates fragments):
111111211211
# atoms in fragment 1/2:    10     2
 fragment masses (1/2) :       88.06        2.02
CMA distance (Bohr)    :   8.554
constraining FC (au)   :  0.0500
           ------------------------------------------------- 
          |                 G F N 2 - x T B                 |
          | Geometry, Frequencies, Noncovalent interactions |
          |            JCTC 2019 parametrisation            |
           ------------------------------------------------- 
             k(s)              :                1.8500
             k(p)              :                2.2300
             k(d)              :                2.2300
             k(f)              :                2.0000
             kEN (H0ij)        :               -2.0000
             D4 a1             :                0.5200
             D4 a2             :                5.0000
             D4 s6             :                1.0000
             D4 s8             :                2.7000
             D4 s9             :                5.0000
             alphaj            :                2.0000

  Z AO/shell   Hii/eV     exponent
  1     Wed Apr 25 08:07:45 CEST 2018   EN: 2.200 GM2: 0.406  GM3: 0.0800  RAES: 1.40
     1s    -10.707211    1.230000
  6     Wed Apr 25 08:07:45 CEST 2018   EN: 2.550 GM2: 0.538  GM3: 0.1500  RAES: 3.00
     2s    -13.970922    2.096432
     2p    -10.063292    1.800000
  8     Wed Apr 25 08:07:45 CEST 2018   EN: 3.440 GM2: 0.452  GM3:-0.0517  RAES: 1.80
     2s    -20.229985    2.439742
     2p    -15.503117    2.137023

           ------------------------------------------------- 
          |        Self-Consistent Charge Iterations        |
           ------------------------------------------------- 

          ...................................................
          :                      SETUP                      :
          :.................................................:
          :  # basis functions                  30          :
          :  # atomic orbitals                  30          :
          :  # shells                           18          :
          :  # electrons                        36          :
          :  max. iterations                   100          :
          :  Hamiltonian                  GFN2-xTB          :
          :  restarted?                      false          :
          :  GBSA solvation                  false          :
          :  PC potential                    false          :
          :  electronic temp.          300.0000000     K    :
          :  accuracy                    1.0000000          :
          :  -> integral cutoff          0.2500000E+02      :
          :  -> integral neglect         0.1000000E-07      :
          :  -> SCF convergence          0.1000000E-05 Eh   :
          :  -> wf. convergence          0.1000000E-03 e    :
          :  Broyden damping             0.4000000          :
          ...................................................

 iter      E             dE          RMSdq      gap      omega  full diag
   1    -21.6972770 -0.216973E+02  0.514E+00    5.05       0.0  T
   2    -21.7421156 -0.448386E-01  0.291E+00    4.53       1.0  T
   3    -21.7433133 -0.119770E-02  0.152E+00    4.95       1.0  T
   4    -21.7465501 -0.323679E-02  0.140E-01    4.71       1.0  T
   5    -21.7467200 -0.169920E-03  0.558E-02    4.76       1.0  T
   6    -21.7467244 -0.444360E-05  0.261E-02    4.75       1.1  T
   7    -21.7467252 -0.766782E-06  0.940E-03    4.75       3.1  T
   8    -21.7467254 -0.174034E-06  0.261E-03    4.75      11.1  T
   9    -21.7467254 -0.138922E-07  0.149E-03    4.75      19.4  T
  10    -21.7467254 -0.789680E-08  0.385E-04    4.75      74.9  T
  11    -21.7467254 -0.378602E-09  0.199E-04    4.75     145.2  T

   *** convergence criteria satisfied after 11 iterations ***

         #    Occupation            Energy/Eh            Energy/eV
      -------------------------------------------------------------
         1        2.0000           -0.8036812             -21.8693
       ...           ...                  ...                  ...
        12        2.0000           -0.5429326             -14.7739
        13        2.0000           -0.5345093             -14.5447
        14        2.0000           -0.5198693             -14.1464
        15        2.0000           -0.4926919             -13.4068
        16        2.0000           -0.4870885             -13.2544
        17        2.0000           -0.4421816             -12.0324
        18        2.0000           -0.4344211             -11.8212 (HOMO)
        19                         -0.2597723              -7.0688 (LUMO)
        20                         -0.0752068              -2.0465
        21                          0.0010187               0.0277
        22                          0.0479504               1.3048
        23                          0.0807469               2.1972
       ...                                ...                  ...
        30                          0.5770054              15.7011
      -------------------------------------------------------------
                  HL-Gap            0.1746488 Eh            4.7524 eV
             Fermi-level           -0.3470967 Eh           -9.4450 eV

 SCC (total)                   0 d,  0 h,  0 min,  0.098 sec
 SCC setup                      ...        0 min,  0.000 sec (  0.147%)
 Dispersion                     ...        0 min,  0.000 sec (  0.064%)
 integral evaluation            ...        0 min,  0.090 sec ( 92.583%)
 zeroth order Hamiltonian       ...        0 min,  0.000 sec (  0.071%)
 iterations                     ...        0 min,  0.005 sec (  5.425%)
 molecular gradient             ...        0 min,  0.001 sec (  1.370%)
 printout                       ...        0 min,  0.000 sec (  0.124%)

         :::::::::::::::::::::::::::::::::::::::::::::::::::::
         ::                     SUMMARY                     ::
         :::::::::::::::::::::::::::::::::::::::::::::::::::::
         :: total energy             -21.549524232702 Eh    ::
         :: gradient norm              0.168932928199 Eh/a0 ::
         :: HOMO-LUMO gap              4.752436798251 eV    ::
         ::.................................................::
         :: SCC energy               -21.746725377150 Eh    ::
         :: -> isotropic ES            0.044374889732 Eh    ::
         :: -> anisotropic ES          0.011872370439 Eh    ::
         :: -> anisotropic XC         -0.002267301770 Eh    ::
         :: -> dispersion             -0.005697692661 Eh    ::
         :: repulsion energy           0.197196966032 Eh    ::
         :: add. restraining           0.000000000000 Eh    ::
         :::::::::::::::::::::::::::::::::::::::::::::::::::::

      ----------------------------------------------------------- 
     |                   =====================                   |
     |                        A N C O P T                        |
     |                   =====================                   |
     |               Approximate Normal Coordinate               |
     |                Rational Function Optimizer                |
      ----------------------------------------------------------- 

          ...................................................
          :                      SETUP                      :
          :.................................................:
          :   optimization level            normal          :
          :   max. optcycles                   200          :
          :   ANC micro-cycles                  20          :
          :   degrees of freedom                30          :
          :.................................................:
          :   RF solver                   davidson          :
          :   write xtbopt.log                true          :
          :   linear?                        false          :
          :   energy convergence         0.5000000E-05 Eh   :
          :   grad. convergence          0.1000000E-02 Eh/α :
          :   maximium RF displ.         1.0000000          :
          :   Hlow (freq-cutoff)         0.1000000E-01      :
          :   Hmax (freq-cutoff)         5.0000000          :
          :   S6 in model hess.         20.0000000          :
          ...................................................

generating ANC from model Hessian ...
Using Lindh-Hessian (1995)
 Shifting diagonal of input Hessian by   1.005379934836471E-002
 Lowest  eigenvalues of input Hessian
    0.010000   -0.000000   -0.000000    0.000000    0.000000    0.000000
    0.000000    0.010216    0.010376    0.010552    0.010677    0.029660
    0.054234    0.062479    0.064901    0.082307    0.094100    0.102371
 Highest eigenvalues
    1.139160    1.262968    1.408403    1.676814    1.863091    2.386716
 

........................................................................
.............................. CYCLE    1 ..............................
........................................................................
   1    -21.7467254 -0.217467E+02  0.112E-04    4.75       0.0  T
   2    -21.7467254 -0.869456E-10  0.433E-05    4.75     666.2  T
   3    -21.7467254 -0.182467E-10  0.159E-05    4.75    1817.1  T
     SCC iter.                  ...        0 min,  0.001 sec
     gradient                   ...        0 min,  0.001 sec
 * total energy  :   -21.5495242 Eh     change       -0.9310437E-08 Eh
   gradient norm :     0.1689356 Eh/α   predicted     0.0000000E+00 (-100.00%)
   displ. norm   :     0.2485895 α      lambda       -0.2677923E-01
   maximum displ.:     0.1198435 α      in ANC's #12, #9, #16, ...

........................................................................
.............................. CYCLE    2 ..............................
........................................................................
   1    -21.7559770 -0.217560E+02  0.419E-01    4.98       0.0  T
   2    -21.7566496 -0.672665E-03  0.238E-01    4.99       1.0  T
   3    -21.7566646 -0.149248E-04  0.127E-01    4.97       1.0  T
   4    -21.7566668 -0.224497E-05  0.284E-02    4.98       1.0  T
   5    -21.7566711 -0.432425E-05  0.931E-03    4.97       3.1  T
   6    -21.7566713 -0.183716E-06  0.491E-03    4.97       5.9  T
   7    -21.7566714 -0.583514E-07  0.209E-03    4.97      13.8  T
     SCC iter.                  ...        0 min,  0.002 sec
     gradient                   ...        0 min,  0.001 sec
 * total energy  :   -21.5671798 Eh     change       -0.1765553E-01 Eh
   gradient norm :     0.0649844 Eh/α   predicted    -0.1421705E-01 ( -19.48%)
   displ. norm   :     0.1810875 α      lambda       -0.6099006E-02
   maximum displ.:     0.1018552 α      in ANC's #9, #12, #10, ...

........................................................................
.............................. CYCLE    3 ..............................
........................................................................
   1    -21.7600213 -0.217600E+02  0.262E-01    5.09       0.0  T
   2    -21.7603015 -0.280194E-03  0.144E-01    5.09       1.0  T
   3    -21.7603071 -0.560031E-05  0.779E-02    5.08       1.0  T
   4    -21.7603076 -0.449067E-06  0.185E-02    5.09       1.6  T
   5    -21.7603094 -0.186716E-05  0.496E-03    5.08       5.8  T
   6    -21.7603095 -0.508390E-07  0.278E-03    5.08      10.4  T
     SCC iter.                  ...        0 min,  0.002 sec
     gradient                   ...        0 min,  0.001 sec
 * total energy  :   -21.5708212 Eh     change       -0.3641450E-02 Eh
   gradient norm :     0.0143911 Eh/α   predicted    -0.3149506E-02 ( -13.51%)
   displ. norm   :     0.0996810 α      lambda       -0.5855652E-03
   maximum displ.:     0.0588686 α      in ANC's #9, #4, #5, ...

........................................................................
.............................. CYCLE    4 ..............................
........................................................................
   1    -21.7589327 -0.217589E+02  0.102E-01    5.07       0.0  T
   2    -21.7589449 -0.122136E-04  0.617E-02    5.08       1.0  T
   3    -21.7589452 -0.243788E-06  0.242E-02    5.07       1.2  T
   4    -21.7589462 -0.106754E-05  0.513E-03    5.07       5.6  T
   5    -21.7589464 -0.123694E-06  0.233E-03    5.07      12.4  T
   6    -21.7589464 -0.764542E-08  0.801E-04    5.07      36.0  T
     SCC iter.                  ...        0 min,  0.001 sec
     gradient                   ...        0 min,  0.001 sec
 * total energy  :   -21.5711674 Eh     change       -0.3462135E-03 Eh
   gradient norm :     0.0049402 Eh/α   predicted    -0.2956924E-03 ( -14.59%)
   displ. norm   :     0.0661305 α      lambda       -0.1032658E-03
   maximum displ.:     0.0481614 α      in ANC's #5, #4, #9, ...

........................................................................
.............................. CYCLE    5 ..............................
........................................................................
   1    -21.7595632 -0.217596E+02  0.537E-02    5.08       0.0  T
   2    -21.7595640 -0.785451E-06  0.337E-02    5.08       1.0  T
   3    -21.7595643 -0.297452E-06  0.356E-03    5.08       8.1  T
   4    -21.7595643 -0.158831E-07  0.162E-03    5.08      17.8  T
   5    -21.7595643 -0.209715E-08  0.750E-04    5.08      38.5  T
     SCC iter.                  ...        0 min,  0.001 sec
     gradient                   ...        0 min,  0.002 sec
 * total energy  :   -21.5712408 Eh     change       -0.7333420E-04 Eh
   gradient norm :     0.0031991 Eh/α   predicted    -0.5185902E-04 ( -29.28%)
   displ. norm   :     0.1005348 α      lambda       -0.7995337E-04
   maximum displ.:     0.0672967 α      in ANC's #5, #4, #2, ...

........................................................................
.............................. CYCLE    6 ..............................
........................................................................
   1    -21.7598575 -0.217599E+02  0.615E-02    5.09       0.0  T
   2    -21.7598588 -0.130638E-05  0.393E-02    5.09       1.0  T
   3    -21.7598590 -0.279358E-06  0.686E-03    5.09       4.2  T
   4    -21.7598593 -0.210366E-06  0.211E-03    5.09      13.7  T
   5    -21.7598593 -0.996247E-08  0.119E-03    5.09      24.2  T
   6    -21.7598593 -0.193410E-08  0.275E-04    5.09     105.0  T
   7    -21.7598593 -0.205137E-09  0.155E-04    5.09     185.8  T
     SCC iter.                  ...        0 min,  0.002 sec
     gradient                   ...        0 min,  0.001 sec
 * total energy  :   -21.5712993 Eh     change       -0.5854496E-04 Eh
   gradient norm :     0.0032168 Eh/α   predicted    -0.4037874E-04 ( -31.03%)
   displ. norm   :     0.1059378 α      lambda       -0.5699031E-04
   maximum displ.:     0.0705301 α      in ANC's #5, #4, #2, ...

........................................................................
.............................. CYCLE    7 ..............................
........................................................................
   1    -21.7601068 -0.217601E+02  0.505E-02    5.10       0.0  T
   2    -21.7601083 -0.145119E-05  0.320E-02    5.10       1.0  T
   3    -21.7601084 -0.835115E-07  0.910E-03    5.10       3.2  T
   4    -21.7601087 -0.278469E-06  0.204E-03    5.10      14.2  T
   5    -21.7601087 -0.131026E-07  0.114E-03    5.10      25.4  T
   6    -21.7601087 -0.166781E-08  0.235E-04    5.10     123.1  T
   7    -21.7601087 -0.160643E-09  0.143E-04    5.10     201.3  T
     SCC iter.                  ...        0 min,  0.003 sec
     gradient                   ...        0 min,  0.002 sec
 * total energy  :   -21.5713421 Eh     change       -0.4283148E-04 Eh
   gradient norm :     0.0027739 Eh/α   predicted    -0.2881291E-04 ( -32.73%)
   displ. norm   :     0.1124171 α      lambda       -0.4429751E-04
   maximum displ.:     0.0789045 α      in ANC's #5, #4, #2, ...

........................................................................
.............................. CYCLE    8 ..............................
........................................................................
   1    -21.7603315 -0.217603E+02  0.443E-02    5.10       0.0  T
   2    -21.7603324 -0.935062E-06  0.272E-02    5.10       1.1  T
   3    -21.7603325 -0.596060E-07  0.656E-03    5.10       4.4  T
   4    -21.7603326 -0.127285E-06  0.186E-03    5.10      15.5  T
   5    -21.7603326 -0.107854E-07  0.108E-03    5.10      26.7  T
   6    -21.7603326 -0.208883E-08  0.240E-04    5.10     120.4  T
   7    -21.7603326 -0.183128E-09  0.147E-04    5.10     196.1  T
     SCC iter.                  ...        0 min,  0.093 sec
     gradient                   ...        0 min,  0.002 sec
 * total energy  :   -21.5713744 Eh     change       -0.3229628E-04 Eh
   gradient norm :     0.0020605 Eh/α   predicted    -0.2242941E-04 ( -30.55%)
   displ. norm   :     0.1114942 α      lambda       -0.2958421E-04
   maximum displ.:     0.0733796 α      in ANC's #5, #4, #2, ...

........................................................................
.............................. CYCLE    9 ..............................
........................................................................
   1    -21.7600186 -0.217600E+02  0.381E-02    5.11       0.0  T
   2    -21.7600188 -0.111236E-06  0.231E-02    5.11       1.2  T
   3    -21.7600188 -0.692512E-07  0.180E-03    5.11      16.1  T
   4    -21.7600188 -0.483840E-08  0.110E-03    5.11      26.3  T
   5    -21.7600188 -0.274338E-08  0.491E-04    5.11      58.7  T
   6    -21.7600188 -0.107896E-08  0.203E-04    5.11     142.0  T
     SCC iter.                  ...        0 min,  0.003 sec
     gradient                   ...        0 min,  0.002 sec
 * total energy  :   -21.5713945 Eh     change       -0.2003698E-04 Eh
   gradient norm :     0.0027949 Eh/α   predicted    -0.1497636E-04 ( -25.26%)
   displ. norm   :     0.1504079 α      lambda       -0.4340955E-04
   maximum displ.:     0.1161673 α      in ANC's #5, #2, #4, ...

........................................................................
.............................. CYCLE   10 ..............................
........................................................................
   1    -21.7610015 -0.217610E+02  0.633E-02    5.11       0.0  T
   2    -21.7610017 -0.245836E-06  0.386E-02    5.11       1.0  T
   3    -21.7610018 -0.677346E-07  0.340E-03    5.11       8.5  T
   4    -21.7610019 -0.800450E-07  0.170E-03    5.11      17.0  T
   5    -21.7610019 -0.662942E-08  0.637E-04    5.11      45.4  T
   6    -21.7610019 -0.169273E-08  0.289E-04    5.11      99.9  T
     SCC iter.                  ...        0 min,  0.005 sec
     gradient                   ...        0 min,  0.003 sec
 * total energy  :   -21.5714052 Eh     change       -0.1073070E-04 Eh
   gradient norm :     0.0035224 Eh/α   predicted    -0.2219352E-04 ( 106.82%)
   displ. norm   :     0.0720386 α      lambda       -0.2945442E-04
   maximum displ.:     0.0467619 α      in ANC's #4, #5, #2, ...

........................................................................
.............................. CYCLE   11 ..............................
........................................................................
   1    -21.7600293 -0.217600E+02  0.295E-02    5.11       0.0  T
   2    -21.7600295 -0.265566E-06  0.184E-02    5.11       1.6  T
   3    -21.7600295  0.132021E-07  0.356E-03    5.10       8.1  T
   4    -21.7600296 -0.763192E-07  0.102E-03    5.11      28.3  T
   5    -21.7600296 -0.290819E-08  0.617E-04    5.11      46.8  T
   6    -21.7600296 -0.100298E-08  0.158E-04    5.11     182.7  T
     SCC iter.                  ...        0 min,  0.097 sec
     gradient                   ...        0 min,  0.093 sec
 * total energy  :   -21.5714213 Eh     change       -0.1609819E-04 Eh
   gradient norm :     0.0024678 Eh/α   predicted    -0.1480212E-04 (  -8.05%)
   displ. norm   :     0.0128596 α      lambda       -0.1069261E-04
   maximum displ.:     0.0057239 α      in ANC's #3, #2, #15, ...

........................................................................
.............................. CYCLE   12 ..............................
........................................................................
   1    -21.7601777 -0.217602E+02  0.214E-02    5.10       0.0  T
   2    -21.7601779 -0.229631E-06  0.137E-02    5.10       2.1  T
   3    -21.7601779 -0.302010E-07  0.285E-03    5.10      10.1  T
   4    -21.7601780 -0.259626E-07  0.693E-04    5.10      41.7  T
   5    -21.7601780 -0.216726E-08  0.361E-04    5.10      79.9  T
     SCC iter.                  ...        0 min,  0.002 sec
     gradient                   ...        0 min,  0.001 sec
 * total energy  :   -21.5714298 Eh     change       -0.8472968E-05 Eh
   gradient norm :     0.0015892 Eh/α   predicted    -0.5347252E-05 ( -36.89%)
   displ. norm   :     0.0980429 α      lambda       -0.1548168E-04
   maximum displ.:     0.0587540 α      in ANC's #2, #5, #4, ...

........................................................................
.............................. CYCLE   13 ..............................
........................................................................
   1    -21.7601919 -0.217602E+02  0.893E-02    5.09       0.0  T
   2    -21.7601938 -0.190476E-05  0.569E-02    5.09       1.0  T
   3    -21.7601942 -0.425615E-06  0.724E-03    5.09       4.0  T
   4    -21.7601945 -0.312131E-06  0.266E-03    5.09      10.9  T
   5    -21.7601945 -0.156799E-07  0.153E-03    5.09      18.9  T
   6    -21.7601945 -0.262004E-08  0.298E-04    5.09      96.8  T
   7    -21.7601945 -0.239101E-09  0.170E-04    5.09     169.8  T
     SCC iter.                  ...        0 min,  0.002 sec
     gradient                   ...        0 min,  0.001 sec
 * total energy  :   -21.5714399 Eh     change       -0.1011657E-04 Eh
   gradient norm :     0.0017801 Eh/α   predicted    -0.7774591E-05 ( -23.15%)
   displ. norm   :     0.0255264 α      lambda       -0.4078129E-05
   maximum displ.:     0.0163662 α      in ANC's #2, #5, #3, ...

........................................................................
.............................. CYCLE   14 ..............................
........................................................................
   1    -21.7603819 -0.217604E+02  0.141E-02    5.10       0.0  T
   2    -21.7603821 -0.129783E-06  0.826E-03    5.10       3.5  T
   3    -21.7603821  0.339012E-08  0.256E-03    5.10      11.3  T
   4    -21.7603821 -0.189992E-07  0.565E-04    5.10      51.1  T
   5    -21.7603821 -0.132246E-08  0.344E-04    5.10      83.9  T
     SCC iter.                  ...        0 min,  0.002 sec
     gradient                   ...        0 min,  0.001 sec
 * total energy  :   -21.5714445 Eh     change       -0.4551156E-05 Eh
   gradient norm :     0.0007384 Eh/α   predicted    -0.2041068E-05 ( -55.15%)
   displ. norm   :     0.0781453 α      lambda       -0.5520942E-05
   maximum displ.:     0.0459827 α      in ANC's #2, #5, #4, ...

   *** GEOMETRY OPTIMIZATION CONVERGED AFTER 14 ITERATIONS ***

------------------------------------------------------------------------
 total energy gain   :        -0.0219202 Eh      -13.7551 kcal/mol
 total RMSD          :         0.3016715 a0        0.1596 Å
 total power (kW/mol):        -4.1108232 (step)  -64.2813 (real)
------------------------------------------------------------------------

 ANCopt (total)                0 d,  0 h,  0 min,  0.895 sec
 optimizer setup                ...        0 min,  0.000 sec (  0.033%)
 model hessian                  ...        0 min,  0.091 sec ( 10.193%)
 ANC generation                 ...        0 min,  0.000 sec (  0.053%)
 coordinate transformation      ...        0 min,  0.001 sec (  0.061%)
 single point calculation       ...        0 min,  0.795 sec ( 88.812%)
 optimization log               ...        0 min,  0.002 sec (  0.191%)
 hessian update                 ...        0 min,  0.003 sec (  0.283%)
 rational function              ...        0 min,  0.001 sec (  0.116%)

================
 final structure:
================
12
 xtb: 6.2.3 (830e466)
C         0.64178564719705    1.20091745360857   -2.02259870533668
C         0.02833277346848    0.45994591371656   -0.84299556551094
C         0.71099687109022    1.16663369868850    0.32395979832616
O         1.01571384336101    2.46891691473197   -1.50008998110685
O         1.29377064166831    2.29145875016148   -0.12662483065895
O         0.76646024522815    0.83500850218329    1.46603029052697
H         3.39585405097273    1.71578919979972   -4.21730150510156
H         1.52751767267459    0.67901487778170   -2.40888793689599
H        -0.05130192170745    1.40944564539011   -2.83756465730126
H         3.87159831504496    1.10451079495105   -4.28700446248306
H        -1.04847686714510    0.61437183855640   -0.75501630546970
H         0.23673872814627   -0.60640358957035   -0.82770613898656
 
 Bond Distances (Angstroems)
 ---------------------------
C1-C2=1.5221         C1-O4=1.4215         C1-H8=1.0982         C1-H9=1.0900         C2-C1=1.5221         C2-C3=1.5255         
C2-H11=1.0914        C2-H12=1.0866        C3-C2=1.5255         C3-O5=1.3446         C3-O6=1.1905         O4-C1=1.4215         
O4-O5=1.4125         O5-C3=1.3446         O5-O4=1.4125         O6-C3=1.1905         H7-H10=0.7777        H8-C1=1.0982         
H9-C1=1.0900         H10-H7=0.7777        H11-C2=1.0914        H12-C2=1.0866        
 H  H  Rav=0.7777 sigma=0.0000  Rmin=0.7777  Rmax=0.7777     1
 C  H  Rav=1.0916 sigma=0.0042  Rmin=1.0866  Rmax=1.0982     4
 C  C  Rav=1.5238 sigma=0.0017  Rmin=1.5221  Rmax=1.5255     2
 O  C  Rav=1.3189 sigma=0.0960  Rmin=1.1905  Rmax=1.4215     3
 O  O  Rav=1.4125 sigma=0.0000  Rmin=1.4125  Rmax=1.4125     1
 
 selected bond angles (degree)
 --------------------
O4-C1-C2=104.80                H8-C1-C2=111.49                H8-C1-O4=109.94                H9-C1-C2=114.60                
H9-C1-O4=105.75                H9-C1-H8=109.92                C3-C2-C1=100.78                H11-C2-C1=113.03               
H11-C2-C3=108.32               H12-C2-C1=114.29               H12-C2-C3=110.98               H12-C2-H11=109.08              
O5-C3-C2=108.97                O6-C3-C2=128.73                O6-C3-O5=122.30                O5-O4-C1=107.29                
O4-O5-C3=110.22                
 
 selected dihedral angles (degree)
 ---------------------------------
C3-C2-C1-O4=334.87            C3-C2-C1-H8= 93.75            C3-C2-C1-H9=219.42            H11-C2-C1-O4= 90.24           
H11-C2-C1-H8=209.13           H11-C2-C1-H9=334.79           H12-C2-C1-O4=215.81           H12-C2-C1-H8=334.69           
H12-C2-C1-H9=100.36           O5-C3-C2-C1= 13.74            O5-C3-C2-H11=254.89           O5-C3-C2-H12=135.16           
O6-C3-C2-C1=194.10            O6-C3-C2-H11= 75.25           O6-C3-C2-H12=315.52           O5-O4-C1-C2= 28.51            
O5-O4-C1-H8=268.58            O5-O4-C1-H9=149.96            O4-O5-C3-C2=  3.12            O4-O5-C3-O6=182.78            
C3-O5-O4-C1=339.59            
 
 CMA Distance (Angstroems)
 ---------------------------
R(CMA):  4.7659
           -------------------------------------------------
          |                Final Singlepoint                |
           -------------------------------------------------

          ...................................................
          :                      SETUP                      :
          :.................................................:
          :  # basis functions                  30          :
          :  # atomic orbitals                  30          :
          :  # shells                           18          :
          :  # electrons                        36          :
          :  max. iterations                   100          :
          :  Hamiltonian                  GFN2-xTB          :
          :  restarted?                      false          :
          :  GBSA solvation                  false          :
          :  PC potential                    false          :
          :  electronic temp.          300.0000000     K    :
          :  accuracy                    1.0000000          :
          :  -> integral cutoff          0.2500000E+02      :
          :  -> integral neglect         0.1000000E-07      :
          :  -> SCF convergence          0.1000000E-05 Eh   :
          :  -> wf. convergence          0.1000000E-03 e    :
          :  Broyden damping             0.4000000          :
          ...................................................

 iter      E             dE          RMSdq      gap      omega  full diag
   1    -21.7603821 -0.217604E+02  0.118E-04    5.10       0.0  T
   2    -21.7603821 -0.309903E-10  0.871E-05    5.10     331.3  T
   3    -21.7603821 -0.356266E-10  0.266E-05    5.10    1084.6  T

   *** convergence criteria satisfied after 3 iterations ***

         #    Occupation            Energy/Eh            Energy/eV
      -------------------------------------------------------------
         1        2.0000           -0.7867406             -21.4083
       ...           ...                  ...                  ...
        12        2.0000           -0.5450735             -14.8322
        13        2.0000           -0.5380857             -14.6421
        14        2.0000           -0.5187612             -14.1162
        15        2.0000           -0.4967185             -13.5164
        16        2.0000           -0.4729823             -12.8705
        17        2.0000           -0.4501072             -12.2480
        18        2.0000           -0.4447092             -12.1012 (HOMO)
        19                         -0.2574453              -7.0054 (LUMO)
        20                         -0.1839765              -5.0063
        21                          0.0010111               0.0275
        22                          0.0467327               1.2717
        23                          0.0728247               1.9817
       ...                                ...                  ...
        30                          0.6521147              17.7449
      -------------------------------------------------------------
                  HL-Gap            0.1872639 Eh            5.0957 eV
             Fermi-level           -0.3510773 Eh           -9.5533 eV

 SCC (total)                   0 d,  0 h,  0 min,  0.003 sec
 SCC setup                      ...        0 min,  0.000 sec (  7.371%)
 Dispersion                     ...        0 min,  0.000 sec (  1.543%)
 integral evaluation            ...        0 min,  0.000 sec ( 15.622%)
 zeroth order Hamiltonian       ...        0 min,  0.000 sec (  2.374%)
 iterations                     ...        0 min,  0.001 sec ( 25.815%)
 molecular gradient             ...        0 min,  0.001 sec ( 33.563%)
 printout                       ...        0 min,  0.000 sec (  6.404%)

         :::::::::::::::::::::::::::::::::::::::::::::::::::::
         ::                     SUMMARY                     ::
         :::::::::::::::::::::::::::::::::::::::::::::::::::::
         :: total energy             -21.571444456908 Eh    ::
         :: gradient norm              0.000739440356 Eh/a0 ::
         :: HOMO-LUMO gap              5.095709177997 eV    ::
         ::.................................................::
         :: SCC energy               -21.760382074589 Eh    ::
         :: -> isotropic ES            0.043814644457 Eh    ::
         :: -> anisotropic ES          0.009764082835 Eh    ::
         :: -> anisotropic XC          0.003047907880 Eh    ::
         :: -> dispersion             -0.005570635935 Eh    ::
         :: repulsion energy           0.188932835357 Eh    ::
         :: add. restraining           0.000000000000 Eh    ::
         :::::::::::::::::::::::::::::::::::::::::::::::::::::

           -------------------------------------------------
          |                Property Printout                |
           -------------------------------------------------

    * Orbital Energies and Occupations

         #    Occupation            Energy/Eh            Energy/eV
      -------------------------------------------------------------
         1        2.0000           -0.7867406             -21.4083
       ...           ...                  ...                  ...
         6        2.0000           -0.6474493             -17.6180
         7        2.0000           -0.6348131             -17.2741
         8        2.0000           -0.6156033             -16.7514
         9        2.0000           -0.5837954             -15.8859
        10        2.0000           -0.5697916             -15.5048
        11        2.0000           -0.5638995             -15.3445
        12        2.0000           -0.5450735             -14.8322
        13        2.0000           -0.5380857             -14.6421
        14        2.0000           -0.5187612             -14.1162
        15        2.0000           -0.4967185             -13.5164
        16        2.0000           -0.4729823             -12.8705
        17        2.0000           -0.4501072             -12.2480
        18        2.0000           -0.4447092             -12.1012 (HOMO)
        19                         -0.2574453              -7.0054 (LUMO)
        20                         -0.1839765              -5.0063
        21                          0.0010111               0.0275
        22                          0.0467327               1.2717
        23                          0.0728247               1.9817
        24                          0.1027125               2.7949
        25                          0.1153971               3.1401
        26                          0.1224875               3.3331
        27                          0.1879418               5.1142
        28                          0.2411203               6.5612
        29                          0.2490101               6.7759
        30                          0.6521147              17.7449
      -------------------------------------------------------------
                  HL-Gap            0.1872639 Eh            5.0957 eV
             Fermi-level           -0.3510773 Eh           -9.5533 eV

     #   Z        covCN         q      C6AA      α(0)
     1   6 C      3.709     0.072    19.502     6.312
     2   6 C      3.803    -0.099    22.377     6.735
     3   6 C      2.723     0.365    20.814     7.469
     4   8 O      1.793    -0.173    16.904     5.552
     5   8 O      1.797    -0.131    16.269     5.447
     6   8 O      0.856    -0.348    20.677     6.097
     7   1 H      0.811     0.002     3.067     2.750
     8   1 H      0.923     0.058     2.217     2.328
     9   1 H      0.925     0.082     1.959     2.189
    10   1 H      0.811    -0.002     3.138     2.782
    11   1 H      0.924     0.088     1.894     2.152
    12   1 H      0.925     0.085     1.931     2.173

 Mol. C6AA /au·bohr⁶  :       1257.438184
 Mol. C8AA /au·bohr⁸  :      26293.561891
 Mol. α(0) /au        :         51.983971


Wiberg/Mayer (AO) data.
largest (>0.10) Wiberg bond orders for each atom
          total WBO             WBO to atom ...
     1  C   3.934        C    2 1.007    H    8 0.969    O    4 0.968    H    9 0.960
     2  C   3.993        C    1 1.007    H   12 0.963    C    3 0.954    H   11 0.951
     3  C   3.915        O    6 1.798    O    5 1.111    C    2 0.954
     4  O   2.025        C    1 0.968    O    5 0.951
     5  O   2.303        C    3 1.111    O    4 0.951    O    6 0.170
     6  O   2.102        C    3 1.798    O    5 0.170
     7  H   1.000        H   10 0.999
     8  H   0.997        C    1 0.969
     9  H   0.993        C    1 0.960
    10  H   1.000        H    7 0.999
    11  H   0.992        C    2 0.951
    12  H   0.993        C    2 0.963

molecular dipole:
                 x           y           z       tot (Debye)
 q only:       -0.560      -0.741      -1.308
   full:       -0.607      -0.820      -1.481       4.571
molecular quadrupole (traceless):
                xx          xy          yy          xz          yz          zz
 q only:        1.087      -3.738      -4.265      -1.431      -0.946       3.178
  q+dip:        3.634      -6.083      -4.665      -2.038      -0.324       1.031
   full:        3.173      -5.638      -4.849      -2.004      -0.379       1.676

           -------------------------------------------------
          |                Geometry Summary                 |
           -------------------------------------------------

      molecular mass/u    :       90.0780670
   center of mass at/Å    :        0.8192495       1.4258622      -0.5390102
  moments of inertia/u·Å² :        0.7873166E+02   0.1819787E+03   0.2228354E+03
rotational constants/cm⁻¹ :        0.2141150E+00   0.9263518E-01   0.7565062E-01

 * 10 selected distances

     #   Z        #   Z                                     value/Å
     1   6 C      2   6 C                                 1.5221126 (max)
     1   6 C      4   8 O                                 1.4214993
     3   6 C      5   8 O                                 1.3445755
     4   8 O      5   8 O                                 1.4125203
     3   6 C      6   8 O                                 1.1905362
     1   6 C      8   1 H                                 1.0982363
     1   6 C      9   1 H                                 1.0899651
     7   1 H     10   1 H                                 0.7777226 (min)
     2   6 C     11   1 H                                 1.0913784
     2   6 C     12   1 H                                 1.0866315

 * 5 distinct bonds (by element types)

   Z      Z             #   av. dist./Å        max./Å        min./Å
   1 H    1 H           1     0.7777226     0.7777226     0.7777226
   1 H    6 C           4     1.0915528     1.0982363     1.0866315
   6 C    6 C           1     1.5221126     1.5221126     1.5221126
   6 C    8 O           3     1.3188703     1.4214993     1.1905362
   8 O    8 O           1     1.4125203     1.4125203     1.4125203


optimized geometry written to: xtbopt.xyz


           -------------------------------------------------
          | TOTAL ENERGY              -21.571444456908 Eh   |
          | GRADIENT NORM               0.000739440356 Eh/α |
          | HOMO-LUMO GAP               5.095709177997 eV   |
           -------------------------------------------------

------------------------------------------------------------------------
 * finished run on 2020/12/23 at 21:42:44.863     
------------------------------------------------------------------------
 total:
 * wall-time:     0 d,  0 h,  0 min,  1.343 sec
 *  cpu-time:     0 d,  0 h,  0 min,  5.746 sec
 * ratio c/w:     4.277 speedup
 SCF:
 * wall-time:     0 d,  0 h,  0 min,  0.098 sec
 *  cpu-time:     0 d,  0 h,  0 min,  0.317 sec
 * ratio c/w:     3.238 speedup
 ANC optimizer:
 * wall-time:     0 d,  0 h,  0 min,  0.902 sec
 *  cpu-time:     0 d,  0 h,  0 min,  3.664 sec
 * ratio c/w:     4.062 speedup

