12
 energy: -21.511997397121 gnorm: 0.102415123402 xtb: 6.2.3 (830e466)
C         0.67110000000000    1.54633000000000   -2.60036000000000
C         0.64790000000000    0.37949000000000   -1.60859000000000
C         1.75969000000000    0.68620000000000   -0.60086000000000
O         0.77376000000000    2.80323000000000   -1.93618000000000
O         0.61014000000000    2.61843000000000   -0.62493000000000
O         1.73038000000000    2.04722000000000   -0.17870000000000
H         2.73623000000000    0.51883000000000   -1.10457000000000
H         1.57412000000000    1.43691000000000   -3.23909000000000
H        -0.23034000000000    1.51584000000000   -3.24798000000000
H         1.68538000000000    0.00211000000000    0.27060000000000
H         0.75677000000000   -0.61330000000000   -2.09495000000000
H        -0.32612000000000    0.39831000000000   -1.07019000000000
12
 energy: -21.520935297024 gnorm: 0.033790431576 xtb: 6.2.3 (830e466)
C         0.66046991441476    1.53410786769969   -2.63133191098380
C         0.64630002458321    0.40571185422398   -1.59644006542367
C         1.77220647187630    0.65568382800469   -0.58930264056343
O         0.74488997210211    2.80024584534546   -1.97433168703645
O         0.61542750516137    2.64212072972817   -0.61761063932534
O         1.74016011408808    2.01369952703739   -0.14586152133069
H         2.75194871237057    0.50075775531851   -1.06790020699105
H         1.55088337585148    1.44964021923711   -3.27397292804970
H        -0.23889715718335    1.51267069767137   -3.26281943819274
H         1.69015566146484   -0.01158178471537    0.28025062497749
H         0.77610400110009   -0.56163718082577   -2.08323958800739
H        -0.32063859582946    0.39818064127477   -1.07323999907322
12
 energy: -21.522077858466 gnorm: 0.003558311496 xtb: 6.2.3 (830e466)
C         0.65687589601274    1.52810085820896   -2.63216909505153
C         0.65013084465388    0.40007932438127   -1.60094909167582
C         1.76876523028035    0.64955495346280   -0.58985754301566
O         0.73651436936835    2.80909106696963   -1.99321374389497
O         0.62960870415750    2.67561109269635   -0.61092037546847
O         1.75181010422976    2.00672195887734   -0.12795894233121
H         2.74852897334132    0.49614559149105   -1.05572820014968
H         1.53842580904130    1.45217702511261   -3.27839337499763
H        -0.24702432025884    1.50287034275468   -3.24812562148873
H         1.67138369652584   -0.01296268091458    0.27539279706626
H         0.79383218941966   -0.55888726703742   -2.09170244663651
H        -0.30984149677186    0.39109773399732   -1.08217436235605
12
 energy: -21.522097607364 gnorm: 0.000928038121 xtb: 6.2.3 (830e466)
C         0.65575797051099    1.52807587412571   -2.63484911061222
C         0.65129254658025    0.40172644446513   -1.60087282098179
C         1.77005590706936    0.64762639188450   -0.58811191473055
O         0.73602413566322    2.80879561101479   -1.99565038974190
O         0.62968608336022    2.67410040209127   -0.61161299105005
O         1.75321050551855    2.00492997258324   -0.12691440654612
H         2.75102308356055    0.49419086879358   -1.05181187473223
H         1.53642455940368    1.45377319809110   -3.28273553035812
H        -0.25134012342417    1.50420461365585   -3.24770102924348
H         1.66890586567537   -0.01308086610024    0.27919161650636
H         0.79740142466762   -0.55697663038801   -2.09282373271640
H        -0.30943195858564    0.39223411978307   -1.08190781579352
12
 energy: -21.522099686616 gnorm: 0.000399211799 xtb: 6.2.3 (830e466)
C         0.65551739415480    1.52873055576418   -2.63520888397931
C         0.65231043135657    0.40197239521171   -1.60132096427234
C         1.77038281434115    0.64783276090119   -0.58742868887981
O         0.73688824322050    2.80945920881198   -1.99621239770308
O         0.62977164590541    2.67383717805567   -0.61177422223429
O         1.75434656374542    2.00537380581171   -0.12696236499695
H         2.75208294738627    0.49239758664675   -1.04894105980091
H         1.53438125830480    1.45442672353537   -3.28556367614171
H        -0.25322659391924    1.50411267045413   -3.24610515596995
H         1.66657432380582   -0.01282191417143    0.27996492126346
H         0.79897108263892   -0.55679929960858   -2.09360187728144
H        -0.30899011094042    0.39107832858733   -1.08264563000367
