      -----------------------------------------------------------      
     |                   =====================                   |     
     |                           x T B                           |     
     |                   =====================                   |     
     |                         S. Grimme                         |     
     |          Mulliken Center for Theoretical Chemistry        |     
     |                    University of Bonn                     |     
      -----------------------------------------------------------      

   * xtb version 6.2.3 (830e466) compiled by 'ehlert@majestix' on 2020-03-16

   xtb is free software: you can redistribute it and/or modify it under
   the terms of the GNU Lesser General Public License as published by
   the Free Software Foundation, either version 3 of the License, or
   (at your option) any later version.
   
   xtb is distributed in the hope that it will be useful,
   but WITHOUT ANY WARRANTY; without even the implied warranty of
   MERCHANTABILITY or FITNESS FOR A PARTICULAR PURPOSE.  See the
   GNU Lesser General Public License for more details.
   
   Cite this work as:
   * S. Grimme, C. Bannwarth, P. Shushkov, J. Chem. Theory Comput., 2017,
     13, 1989-2009. DOI: 10.1021/acs.jctc.7b00118
   * C. Bannwarth, S. Ehlert and S. Grimme., J. Chem. Theory Comput., 2019,
     15, 1652-1671. DOI: 10.1021/acs.jctc.8b01176
   * P. Pracht, E. Caldeweyher, S. Ehlert, S. Grimme, ChemRxiv, 2019, preprint.
     DOI: 10.26434/chemrxiv.8326202.v1
   
   for DFT-D4:
   * E. Caldeweyher, C. Bannwarth and S. Grimme, J. Chem. Phys., 2017,
     147, 034112. DOI: 10.1063/1.4993215
   * E. Caldeweyher, S. Ehlert, A. Hansen, H. Neugebauer, S. Spicher,
     C. Bannwarth and S. Grimme, J. Chem. Phys., 2019, 150, 154122.
     DOI: 10.1063/1.5090222
   
   for sTDA-xTB:
   * S. Grimme and C. Bannwarth, J. Chem. Phys., 2016, 145, 054103.
     DOI: 10.1063/1.4959605
   
   in the mass-spec context:
   * V. Asgeirsson, C. Bauer and S. Grimme, Chem. Sci., 2017, 8, 4879.
     DOI: 10.1039/c7sc00601b
   
   for metadynamics refer to:
   * S. Grimme, J. Chem. Theory Comput., 2019, 155, 2847-2862
     DOI: 10.1021/acs.jctc.9b00143
   
   with help from (in alphabetical order)
   C. Bannwarth, F. Bohle, G. Brandenburg, E. Caldeweyher, M. Checinski,
   S. Dohm, S. Ehlert, S. Ehrlich, F. März, H. Neugebauer, J. Pisarek,
   P. Pracht, P. Shushkov, and S. Spicher.
   
 * started run on 2020/12/23 at 21:42:17.355     

           -------------------------------------------------
          |                Calculation Setup                |
           -------------------------------------------------

          program call               : xtb -c 0 -u 0 -a 1.0 --iterations 100 --opt normal --namespace product_21 /scratch/bell/zhao922/YARP/paper-example/potential_product/test/reaction_channel/pp_0/pp_21_1.xyz
          hostname                   : bell-fe05.rcac.purdue.edu
          calculation namespace      : product_21
          coordinate file            : /scratch/bell/zhao922/YARP/paper-example/potential_product/test/reaction_channel/pp_0/pp_21_1.xyz
          omp threads                :                    32
          number of atoms            :                    12
          number of electrons        :                    36
          charge                     :                     0
          spin                       :                   0.0
          first test random number   :      0.14031409841343

           ------------------------------------------------- 
          |                 G F N 2 - x T B                 |
          | Geometry, Frequencies, Noncovalent interactions |
          |            JCTC 2019 parametrisation            |
           ------------------------------------------------- 
             k(s)              :                1.8500
             k(p)              :                2.2300
             k(d)              :                2.2300
             k(f)              :                2.0000
             kEN (H0ij)        :               -2.0000
             D4 a1             :                0.5200
             D4 a2             :                5.0000
             D4 s6             :                1.0000
             D4 s8             :                2.7000
             D4 s9             :                5.0000
             alphaj            :                2.0000

  Z AO/shell   Hii/eV     exponent
  1     Wed Apr 25 08:07:45 CEST 2018   EN: 2.200 GM2: 0.406  GM3: 0.0800  RAES: 1.40
     1s    -10.707211    1.230000
  6     Wed Apr 25 08:07:45 CEST 2018   EN: 2.550 GM2: 0.538  GM3: 0.1500  RAES: 3.00
     2s    -13.970922    2.096432
     2p    -10.063292    1.800000
  8     Wed Apr 25 08:07:45 CEST 2018   EN: 3.440 GM2: 0.452  GM3:-0.0517  RAES: 1.80
     2s    -20.229985    2.439742
     2p    -15.503117    2.137023

           ------------------------------------------------- 
          |        Self-Consistent Charge Iterations        |
           ------------------------------------------------- 

          ...................................................
          :                      SETUP                      :
          :.................................................:
          :  # basis functions                  30          :
          :  # atomic orbitals                  30          :
          :  # shells                           18          :
          :  # electrons                        36          :
          :  max. iterations                   100          :
          :  Hamiltonian                  GFN2-xTB          :
          :  restarted?                      false          :
          :  GBSA solvation                  false          :
          :  PC potential                    false          :
          :  electronic temp.          300.0000000     K    :
          :  accuracy                    1.0000000          :
          :  -> integral cutoff          0.2500000E+02      :
          :  -> integral neglect         0.1000000E-07      :
          :  -> SCF convergence          0.1000000E-05 Eh   :
          :  -> wf. convergence          0.1000000E-03 e    :
          :  Broyden damping             0.4000000          :
          ...................................................

 iter      E             dE          RMSdq      gap      omega  full diag
   1    -21.7349108 -0.217349E+02  0.514E+00    4.10       0.0  T
   2    -21.7718392 -0.369284E-01  0.256E+00    3.25       1.0  T
   3    -21.7729626 -0.112336E-02  0.168E+00    3.65       1.0  T
   4    -21.7805059 -0.754330E-02  0.231E-01    3.36       1.0  T
   5    -21.7806147 -0.108799E-03  0.913E-02    3.44       1.0  T
   6    -21.7806315 -0.168298E-04  0.340E-02    3.44       1.0  T
   7    -21.7806319 -0.430035E-06  0.842E-03    3.43       3.4  T
   8    -21.7806323 -0.387156E-06  0.275E-03    3.44      10.5  T
   9    -21.7806323 -0.344900E-08  0.112E-03    3.44      25.8  T
  10    -21.7806323 -0.572826E-08  0.393E-04    3.44      73.4  T
  11    -21.7806323 -0.966381E-09  0.920E-05    3.44     313.8  T

   *** convergence criteria satisfied after 11 iterations ***

         #    Occupation            Energy/Eh            Energy/eV
      -------------------------------------------------------------
         1        2.0000           -0.7242890             -19.7089
       ...           ...                  ...                  ...
        12        2.0000           -0.5317393             -14.4694
        13        2.0000           -0.5284169             -14.3790
        14        2.0000           -0.4909591             -13.3597
        15        2.0000           -0.4753177             -12.9341
        16        2.0000           -0.4616280             -12.5615
        17        2.0000           -0.4295783             -11.6894
        18        2.0000           -0.4103095             -11.1651 (HOMO)
        19                         -0.2840421              -7.7292 (LUMO)
        20                         -0.0010801              -0.0294
        21                          0.0199212               0.5421
        22                          0.0673183               1.8318
        23                          0.0841296               2.2893
       ...                                ...                  ...
        30                          0.5248597              14.2822
      -------------------------------------------------------------
                  HL-Gap            0.1262674 Eh            3.4359 eV
             Fermi-level           -0.3471758 Eh           -9.4471 eV

 SCC (total)                   0 d,  0 h,  0 min,  0.010 sec
 SCC setup                      ...        0 min,  0.000 sec (  1.231%)
 Dispersion                     ...        0 min,  0.000 sec (  0.566%)
 integral evaluation            ...        0 min,  0.001 sec (  7.971%)
 zeroth order Hamiltonian       ...        0 min,  0.000 sec (  0.675%)
 iterations                     ...        0 min,  0.006 sec ( 63.380%)
 molecular gradient             ...        0 min,  0.002 sec ( 23.726%)
 printout                       ...        0 min,  0.000 sec (  0.696%)

         :::::::::::::::::::::::::::::::::::::::::::::::::::::
         ::                     SUMMARY                     ::
         :::::::::::::::::::::::::::::::::::::::::::::::::::::
         :: total energy             -21.619190070413 Eh    ::
         :: gradient norm              0.085255148152 Eh/a0 ::
         :: HOMO-LUMO gap              3.435911676377 eV    ::
         ::.................................................::
         :: SCC energy               -21.780632330002 Eh    ::
         :: -> isotropic ES            0.065781956772 Eh    ::
         :: -> anisotropic ES          0.006354753344 Eh    ::
         :: -> anisotropic XC         -0.001297499231 Eh    ::
         :: -> dispersion             -0.006053919992 Eh    ::
         :: repulsion energy           0.161436394203 Eh    ::
         :: add. restraining           0.000000000000 Eh    ::
         :::::::::::::::::::::::::::::::::::::::::::::::::::::

      ----------------------------------------------------------- 
     |                   =====================                   |
     |                        A N C O P T                        |
     |                   =====================                   |
     |               Approximate Normal Coordinate               |
     |                Rational Function Optimizer                |
      ----------------------------------------------------------- 

          ...................................................
          :                      SETUP                      :
          :.................................................:
          :   optimization level            normal          :
          :   max. optcycles                   200          :
          :   ANC micro-cycles                  20          :
          :   degrees of freedom                30          :
          :.................................................:
          :   RF solver                   davidson          :
          :   write xtbopt.log                true          :
          :   linear?                        false          :
          :   energy convergence         0.5000000E-05 Eh   :
          :   grad. convergence          0.1000000E-02 Eh/α :
          :   maximium RF displ.         1.0000000          :
          :   Hlow (freq-cutoff)         0.1000000E-01      :
          :   Hmax (freq-cutoff)         5.0000000          :
          :   S6 in model hess.         20.0000000          :
          ...................................................

generating ANC from model Hessian ...
Using Lindh-Hessian (1995)
 Shifting diagonal of input Hessian by   4.097523534062097E-003
 Lowest  eigenvalues of input Hessian
    0.000000    0.000000    0.000000    0.000000    0.000000    0.000000
    0.010000    0.013577    0.016396    0.021029    0.024292    0.038625
    0.053461    0.058498    0.068268    0.072718    0.085403    0.096024
 Highest eigenvalues
    1.183801    1.205660    1.297120    1.465557    1.528516    2.102422
 

........................................................................
.............................. CYCLE    1 ..............................
........................................................................
   1    -21.7806323 -0.217806E+02  0.237E-05    3.44       0.0  T
   2    -21.7806323 -0.262901E-11  0.148E-05    3.44    1956.2  T
   3    -21.7806323 -0.126477E-11  0.681E-06    3.44    4242.0  T
     SCC iter.                  ...        0 min,  0.001 sec
     gradient                   ...        0 min,  0.001 sec
 * total energy  :   -21.6191901 Eh     change        0.1090047E-08 Eh
   gradient norm :     0.0852563 Eh/α   predicted     0.0000000E+00 (-100.00%)
   displ. norm   :     0.2155561 α      lambda       -0.7445760E-02
   maximum displ.:     0.1039860 α      in ANC's #8, #11, #1, ...

........................................................................
.............................. CYCLE    2 ..............................
........................................................................
   1    -21.7963584 -0.217964E+02  0.324E-01    3.65       0.0  T
   2    -21.7964974 -0.139032E-03  0.193E-01    3.60       1.0  T
   3    -21.7965068 -0.940698E-05  0.673E-02    3.59       1.0  T
   4    -21.7965132 -0.630799E-05  0.194E-02    3.58       1.5  T
   5    -21.7965142 -0.100463E-05  0.765E-03    3.59       3.8  T
   6    -21.7965143 -0.167974E-06  0.421E-03    3.59       6.9  T
   7    -21.7965143 -0.238084E-07  0.882E-04    3.59      32.7  T
     SCC iter.                  ...        0 min,  0.002 sec
     gradient                   ...        0 min,  0.086 sec
 * total energy  :   -21.6244607 Eh     change       -0.5270638E-02 Eh
   gradient norm :     0.0347145 Eh/α   predicted    -0.3895861E-02 ( -26.08%)
   displ. norm   :     0.2625037 α      lambda       -0.3170779E-02
   maximum displ.:     0.1419074 α      in ANC's #1, #4, #3, ...

........................................................................
.............................. CYCLE    3 ..............................
........................................................................
   1    -21.8035887 -0.218036E+02  0.378E-01    3.73       0.0  T
   2    -21.8036759 -0.872525E-04  0.229E-01    3.69       1.0  T
   3    -21.8036816 -0.571804E-05  0.504E-02    3.69       1.0  T
   4    -21.8036865 -0.487562E-05  0.134E-02    3.68       2.1  T
   5    -21.8036871 -0.552564E-06  0.463E-03    3.69       6.2  T
   6    -21.8036871 -0.133058E-07  0.233E-03    3.69      12.4  T
     SCC iter.                  ...        0 min,  0.002 sec
     gradient                   ...        0 min,  0.001 sec
 * total energy  :   -21.6264112 Eh     change       -0.1950456E-02 Eh
   gradient norm :     0.0145838 Eh/α   predicted    -0.1694636E-02 ( -13.12%)
   displ. norm   :     0.2483891 α      lambda       -0.1076539E-02
   maximum displ.:     0.1370682 α      in ANC's #4, #3, #1, ...

........................................................................
.............................. CYCLE    4 ..............................
........................................................................
   1    -21.8025550 -0.218026E+02  0.326E-01    3.75       0.0  T
   2    -21.8025736 -0.186131E-04  0.201E-01    3.74       1.0  T
   3    -21.8025780 -0.437445E-05  0.196E-02    3.74       1.5  T
   4    -21.8025792 -0.113180E-05  0.846E-03    3.74       3.4  T
   5    -21.8025792 -0.922867E-07  0.385E-03    3.74       7.5  T
   6    -21.8025793 -0.169404E-07  0.168E-03    3.74      17.2  T
   7    -21.8025793 -0.771162E-08  0.310E-04    3.74      93.0  T
     SCC iter.                  ...        0 min,  0.002 sec
     gradient                   ...        0 min,  0.001 sec
 * total energy  :   -21.6269137 Eh     change       -0.5025410E-03 Eh
   gradient norm :     0.0265277 Eh/α   predicted    -0.5714770E-03 (  13.72%)
   displ. norm   :     0.1623764 α      lambda       -0.8694074E-03
   maximum displ.:     0.1199114 α      in ANC's #1, #4, #2, ...

........................................................................
.............................. CYCLE    5 ..............................
........................................................................
   1    -21.8031961 -0.218032E+02  0.190E-01    3.74       0.0  T
   2    -21.8032009 -0.478146E-05  0.117E-01    3.74       1.0  T
   3    -21.8032026 -0.172892E-05  0.116E-02    3.74       2.5  T
   4    -21.8032031 -0.505154E-06  0.604E-03    3.75       4.8  T
   5    -21.8032031 -0.377315E-07  0.201E-03    3.75      14.3  T
   6    -21.8032031 -0.266818E-08  0.752E-04    3.75      38.4  T
     SCC iter.                  ...        0 min,  0.002 sec
     gradient                   ...        0 min,  0.086 sec
 * total energy  :   -21.6275419 Eh     change       -0.6282389E-03 Eh
   gradient norm :     0.0160585 Eh/α   predicted    -0.4461650E-03 ( -28.98%)
   displ. norm   :     0.2190554 α      lambda       -0.8176040E-03
   maximum displ.:     0.1488319 α      in ANC's #1, #4, #2, ...

........................................................................
.............................. CYCLE    6 ..............................
........................................................................
   1    -21.8048052 -0.218048E+02  0.256E-01    3.76       0.0  T
   2    -21.8048129 -0.765636E-05  0.158E-01    3.76       1.0  T
   3    -21.8048158 -0.296428E-05  0.152E-02    3.77       1.9  T
   4    -21.8048167 -0.871452E-06  0.824E-03    3.77       3.5  T
   5    -21.8048168 -0.644630E-07  0.299E-03    3.77       9.6  T
   6    -21.8048168 -0.220685E-07  0.109E-03    3.77      26.5  T
     SCC iter.                  ...        0 min,  0.002 sec
     gradient                   ...        0 min,  0.001 sec
 * total energy  :   -21.6281418 Eh     change       -0.5998464E-03 Eh
   gradient norm :     0.0096174 Eh/α   predicted    -0.4284176E-03 ( -28.58%)
   displ. norm   :     0.2544513 α      lambda       -0.6022809E-03
   maximum displ.:     0.1549828 α      in ANC's #1, #4, #5, ...

........................................................................
.............................. CYCLE    7 ..............................
........................................................................
   1    -21.8037775 -0.218038E+02  0.326E-01    3.76       0.0  T
   2    -21.8037875 -0.100051E-04  0.201E-01    3.76       1.0  T
   3    -21.8037931 -0.556125E-05  0.148E-02    3.76       1.9  T
   4    -21.8037933 -0.184421E-06  0.701E-03    3.76       4.1  T
   5    -21.8037934 -0.683997E-07  0.239E-03    3.76      12.1  T
   6    -21.8037934 -0.621316E-08  0.501E-04    3.76      57.6  T
     SCC iter.                  ...        0 min,  0.002 sec
     gradient                   ...        0 min,  0.001 sec
 * total energy  :   -21.6284254 Eh     change       -0.2836003E-03 Eh
   gradient norm :     0.0190497 Eh/α   predicted    -0.3206403E-03 (  13.06%)
   displ. norm   :     0.1710668 α      lambda       -0.9887982E-03
   maximum displ.:     0.0900887 α      in ANC's #1, #5, #6, ...

........................................................................
.............................. CYCLE    8 ..............................
........................................................................
   1    -21.8097995 -0.218098E+02  0.227E-01    3.74       0.0  T
   2    -21.8098310 -0.315140E-04  0.136E-01    3.74       1.0  T
   3    -21.8098362 -0.518970E-05  0.301E-02    3.75       1.0  T
   4    -21.8098379 -0.170570E-05  0.127E-02    3.74       2.3  T
   5    -21.8098383 -0.464338E-06  0.526E-03    3.75       5.5  T
   6    -21.8098384 -0.398803E-07  0.260E-03    3.74      11.1  T
   7    -21.8098384 -0.953993E-08  0.480E-04    3.74      60.1  T
     SCC iter.                  ...        0 min,  0.002 sec
     gradient                   ...        0 min,  0.001 sec
 * total energy  :   -21.6285036 Eh     change       -0.7821229E-04 Eh
   gradient norm :     0.0203698 Eh/α   predicted    -0.5088665E-03 ( 550.62%)
   displ. norm   :     0.0658554 α      lambda       -0.6160415E-03
   maximum displ.:     0.0296795 α      in ANC's #4, #5, #8, ...

........................................................................
.............................. CYCLE    9 ..............................
........................................................................
   1    -21.8069126 -0.218069E+02  0.113E-01    3.75       0.0  T
   2    -21.8069210 -0.832760E-05  0.686E-02    3.75       1.0  T
   3    -21.8069220 -0.105068E-05  0.169E-02    3.74       1.7  T
   4    -21.8069227 -0.664596E-06  0.651E-03    3.74       4.4  T
   5    -21.8069228 -0.126842E-06  0.256E-03    3.74      11.3  T
   6    -21.8069228 -0.119598E-07  0.126E-03    3.74      22.8  T
     SCC iter.                  ...        0 min,  0.002 sec
     gradient                   ...        0 min,  0.091 sec
 * total energy  :   -21.6288397 Eh     change       -0.3361152E-03 Eh
   gradient norm :     0.0080718 Eh/α   predicted    -0.3093571E-03 (  -7.96%)
   displ. norm   :     0.0766779 α      lambda       -0.1532141E-03
   maximum displ.:     0.0578705 α      in ANC's #1, #3, #2, ...

........................................................................
.............................. CYCLE   10 ..............................
........................................................................
   1    -21.8068647 -0.218069E+02  0.744E-02    3.75       0.0  T
   2    -21.8068662 -0.153868E-05  0.457E-02    3.75       1.0  T
   3    -21.8068665 -0.236143E-06  0.717E-03    3.75       4.0  T
   4    -21.8068667 -0.251217E-06  0.326E-03    3.75       8.9  T
   5    -21.8068667 -0.174040E-07  0.155E-03    3.75      18.6  T
   6    -21.8068667 -0.483728E-08  0.695E-04    3.75      41.5  T
     SCC iter.                  ...        0 min,  0.002 sec
     gradient                   ...        0 min,  0.001 sec
 * total energy  :   -21.6289319 Eh     change       -0.9215293E-04 Eh
   gradient norm :     0.0042433 Eh/α   predicted    -0.7705835E-04 ( -16.38%)
   displ. norm   :     0.0784832 α      lambda       -0.1201375E-03
   maximum displ.:     0.0368756 α      in ANC's #5, #1, #7, ...

........................................................................
.............................. CYCLE   11 ..............................
........................................................................
   1    -21.8064694 -0.218065E+02  0.124E-01    3.74       0.0  T
   2    -21.8064707 -0.138986E-05  0.767E-02    3.74       1.0  T
   3    -21.8064714 -0.658368E-06  0.593E-03    3.74       4.9  T
   4    -21.8064715 -0.143960E-06  0.315E-03    3.74       9.2  T
   5    -21.8064715 -0.684855E-08  0.111E-03    3.74      26.0  T
   6    -21.8064716 -0.324104E-08  0.370E-04    3.74      78.0  T
     SCC iter.                  ...        0 min,  0.002 sec
     gradient                   ...        0 min,  0.001 sec
 * total energy  :   -21.6290271 Eh     change       -0.9520323E-04 Eh
   gradient norm :     0.0056909 Eh/α   predicted    -0.6043748E-04 ( -36.52%)
   displ. norm   :     0.1725772 α      lambda       -0.2002091E-03
   maximum displ.:     0.1040351 α      in ANC's #1, #5, #7, ...

........................................................................
.............................. CYCLE   12 ..............................
........................................................................
   1    -21.8055224 -0.218055E+02  0.249E-01    3.71       0.0  T
   2    -21.8055291 -0.663047E-05  0.155E-01    3.71       1.0  T
   3    -21.8055324 -0.336012E-05  0.119E-02    3.71       2.4  T
   4    -21.8055326 -0.210418E-06  0.637E-03    3.71       4.5  T
   5    -21.8055327 -0.125988E-06  0.275E-03    3.71      10.5  T
   6    -21.8055328 -0.680754E-08  0.718E-04    3.71      40.2  T
     SCC iter.                  ...        0 min,  0.002 sec
     gradient                   ...        0 min,  0.001 sec
 * total energy  :   -21.6291661 Eh     change       -0.1390056E-03 Eh
   gradient norm :     0.0076715 Eh/α   predicted    -0.1030862E-03 ( -25.84%)
   displ. norm   :     0.1607620 α      lambda       -0.1527867E-03
   maximum displ.:     0.1231834 α      in ANC's #1, #3, #4, ...

........................................................................
.............................. CYCLE   13 ..............................
........................................................................
   1    -21.8052655 -0.218053E+02  0.200E-01    3.69       0.0  T
   2    -21.8052709 -0.531847E-05  0.124E-01    3.69       1.0  T
   3    -21.8052733 -0.247900E-05  0.105E-02    3.69       2.8  T
   4    -21.8052735 -0.171903E-06  0.494E-03    3.69       5.8  T
   5    -21.8052735 -0.375709E-07  0.234E-03    3.69      12.3  T
   6    -21.8052736 -0.599290E-08  0.828E-04    3.69      34.9  T
     SCC iter.                  ...        0 min,  0.002 sec
     gradient                   ...        0 min,  0.001 sec
 * total energy  :   -21.6292900 Eh     change       -0.1239530E-03 Eh
   gradient norm :     0.0067421 Eh/α   predicted    -0.7836848E-04 ( -36.78%)
   displ. norm   :     0.1922743 α      lambda       -0.1970656E-03
   maximum displ.:     0.1380476 α      in ANC's #1, #4, #3, ...

........................................................................
.............................. CYCLE   14 ..............................
........................................................................
   1    -21.8053110 -0.218053E+02  0.245E-01    3.66       0.0  T
   2    -21.8053183 -0.726007E-05  0.152E-01    3.66       1.0  T
   3    -21.8053222 -0.389771E-05  0.119E-02    3.66       2.4  T
   4    -21.8053224 -0.193737E-06  0.578E-03    3.66       5.0  T
   5    -21.8053224 -0.403714E-07  0.232E-03    3.66      12.4  T
   6    -21.8053224 -0.608257E-08  0.694E-04    3.66      41.6  T
     SCC iter.                  ...        0 min,  0.004 sec
     gradient                   ...        0 min,  0.001 sec
 * total energy  :   -21.6294437 Eh     change       -0.1537134E-03 Eh
   gradient norm :     0.0058623 Eh/α   predicted    -0.1021737E-03 ( -33.53%)
   displ. norm   :     0.2111031 α      lambda       -0.2082684E-03
   maximum displ.:     0.1774253 α      in ANC's #1, #4, #3, ...

........................................................................
.............................. CYCLE   15 ..............................
........................................................................
   1    -21.8067707 -0.218068E+02  0.224E-01    3.65       0.0  T
   2    -21.8067773 -0.652938E-05  0.138E-01    3.65       1.0  T
   3    -21.8067802 -0.295713E-05  0.124E-02    3.65       2.3  T
   4    -21.8067805 -0.250159E-06  0.605E-03    3.65       4.8  T
   5    -21.8067805 -0.635856E-07  0.266E-03    3.65      10.9  T
   6    -21.8067806 -0.843121E-08  0.932E-04    3.65      31.0  T
     SCC iter.                  ...        0 min,  0.002 sec
     gradient                   ...        0 min,  0.292 sec
 * total energy  :   -21.6295397 Eh     change       -0.9595651E-04 Eh
   gradient norm :     0.0075366 Eh/α   predicted    -0.1087746E-03 (  13.36%)
   displ. norm   :     0.2635839 α      lambda       -0.1800880E-03
   maximum displ.:     0.1883924 α      in ANC's #1, #4, #3, ...

........................................................................
.............................. CYCLE   16 ..............................
........................................................................
   1    -21.8037349 -0.218037E+02  0.340E-01    3.59       0.0  T
   2    -21.8037489 -0.140618E-04  0.211E-01    3.60       1.0  T
   3    -21.8037561 -0.713686E-05  0.196E-02    3.60       1.5  T
   4    -21.8037573 -0.118418E-05  0.106E-02    3.60       2.7  T
   5    -21.8037575 -0.238757E-06  0.387E-03    3.60       7.5  T
   6    -21.8037575 -0.127143E-07  0.112E-03    3.60      25.8  T
   7    -21.8037575 -0.466573E-08  0.443E-04    3.60      65.2  T
     SCC iter.                  ...        0 min,  0.002 sec
     gradient                   ...        0 min,  0.001 sec
 * total energy  :   -21.6295544 Eh     change       -0.1467771E-04 Eh
   gradient norm :     0.0104275 Eh/α   predicted    -0.9630013E-04 ( 556.10%)
   displ. norm   :     0.1185457 α      lambda       -0.1619784E-03
   maximum displ.:     0.0709447 α      in ANC's #1, #4, #3, ...

........................................................................
.............................. CYCLE   17 ..............................
........................................................................
   1    -21.8069947 -0.218070E+02  0.165E-01    3.64       0.0  T
   2    -21.8069989 -0.420300E-05  0.102E-01    3.64       1.0  T
   3    -21.8070006 -0.170814E-05  0.114E-02    3.64       2.5  T
   4    -21.8070010 -0.441050E-06  0.563E-03    3.64       5.1  T
   5    -21.8070011 -0.868115E-07  0.224E-03    3.64      12.9  T
   6    -21.8070011 -0.386853E-08  0.574E-04    3.64      50.3  T
     SCC iter.                  ...        0 min,  0.001 sec
     gradient                   ...        0 min,  0.091 sec
 * total energy  :   -21.6296189 Eh     change       -0.6454849E-04 Eh
   gradient norm :     0.0023369 Eh/α   predicted    -0.8212727E-04 (  27.23%)
   displ. norm   :     0.0628970 α      lambda       -0.2209826E-04
   maximum displ.:     0.0524325 α      in ANC's #1, #3, #4, ...

........................................................................
.............................. CYCLE   18 ..............................
........................................................................
   1    -21.8064254 -0.218064E+02  0.711E-02    3.62       0.0  T
   2    -21.8064261 -0.717454E-06  0.438E-02    3.63       1.0  T
   3    -21.8064264 -0.300468E-06  0.433E-03    3.63       6.7  T
   4    -21.8064264 -0.355242E-07  0.223E-03    3.63      12.9  T
   5    -21.8064265 -0.172690E-07  0.105E-03    3.63      27.6  T
   6    -21.8064265 -0.105484E-08  0.272E-04    3.63     106.2  T
   7    -21.8064265 -0.226514E-09  0.861E-05    3.63     335.4  T
     SCC iter.                  ...        0 min,  0.002 sec
     gradient                   ...        0 min,  0.001 sec
 * total energy  :   -21.6296348 Eh     change       -0.1590775E-04 Eh
   gradient norm :     0.0018386 Eh/α   predicted    -0.1109363E-04 ( -30.26%)
   displ. norm   :     0.1441948 α      lambda       -0.2353780E-04
   maximum displ.:     0.1195108 α      in ANC's #1, #3, #4, ...

........................................................................
.............................. CYCLE   19 ..............................
........................................................................
   1    -21.8059833 -0.218060E+02  0.166E-01    3.61       0.0  T
   2    -21.8059864 -0.313469E-05  0.103E-01    3.61       1.0  T
   3    -21.8059879 -0.154143E-05  0.841E-03    3.61       3.4  T
   4    -21.8059881 -0.125961E-06  0.435E-03    3.61       6.6  T
   5    -21.8059881 -0.348469E-07  0.185E-03    3.61      15.6  T
   6    -21.8059881 -0.267811E-08  0.607E-04    3.61      47.6  T
   7    -21.8059881 -0.199961E-08  0.210E-04    3.61     137.5  T
     SCC iter.                  ...        0 min,  0.002 sec
     gradient                   ...        0 min,  0.091 sec
 * total energy  :   -21.6296526 Eh     change       -0.1775757E-04 Eh
   gradient norm :     0.0026515 Eh/α   predicted    -0.1187827E-04 ( -33.11%)
   displ. norm   :     0.0182620 α      lambda       -0.6398335E-05
   maximum displ.:     0.0164791 α      in ANC's #1, #6, #2, ...

........................................................................
.............................. CYCLE   20 ..............................
........................................................................
   1    -21.8064319 -0.218064E+02  0.180E-02    3.61       0.0  T
   2    -21.8064320 -0.636873E-07  0.110E-02    3.61       2.6  T
   3    -21.8064320 -0.620624E-09  0.189E-03    3.61      15.2  T
   4    -21.8064320 -0.213237E-07  0.696E-04    3.61      41.5  T
   5    -21.8064320 -0.107978E-08  0.277E-04    3.61     104.1  T
     SCC iter.                  ...        0 min,  0.001 sec
     gradient                   ...        0 min,  0.001 sec
 * total energy  :   -21.6296571 Eh     change       -0.4477557E-05 Eh
   gradient norm :     0.0011267 Eh/α   predicted    -0.3199707E-05 ( -28.54%)
   displ. norm   :     0.0403083 α      lambda       -0.3045412E-05
   maximum displ.:     0.0326451 α      in ANC's #1, #3, #6, ...
 * RMSD in coord.:     0.4512313 α      energy gain  -0.1046700E-01 Eh

generating ANC from model Hessian ...
Using Lindh-Hessian (1995)
 Shifting diagonal of input Hessian by   4.170732220664511E-003
 Lowest  eigenvalues of input Hessian
   -0.000000   -0.000000    0.000000    0.000000    0.000000    0.000000
    0.010000    0.012939    0.015732    0.022237    0.024273    0.031636
    0.054494    0.061270    0.067341    0.075523    0.091030    0.108853
 Highest eigenvalues
    1.227480    1.262093    1.281109    1.509910    1.557777    2.231656
 

........................................................................
.............................. CYCLE   21 ..............................
........................................................................
   1    -21.8067533 -0.218068E+02  0.456E-02    3.61       0.0  T
   2    -21.8067536 -0.298935E-06  0.282E-02    3.61       1.0  T
   3    -21.8067537 -0.989226E-07  0.290E-03    3.61       9.9  T
   4    -21.8067537 -0.313151E-07  0.146E-03    3.61      19.7  T
   5    -21.8067537 -0.491218E-08  0.631E-04    3.61      45.7  T
   6    -21.8067537 -0.657096E-09  0.234E-04    3.61     123.5  T
     SCC iter.                  ...        0 min,  0.092 sec
     gradient                   ...        0 min,  0.001 sec
 * total energy  :   -21.6296594 Eh     change       -0.2309118E-05 Eh
   gradient norm :     0.0004716 Eh/α   predicted     0.0000000E+00 (-100.00%)
   displ. norm   :     0.0128016 α      lambda       -0.1572247E-05
   maximum displ.:     0.0102064 α      in ANC's #1, #5, #6, ...

   *** GEOMETRY OPTIMIZATION CONVERGED AFTER 21 ITERATIONS ***

------------------------------------------------------------------------
 total energy gain   :        -0.0104693 Eh       -6.5696 kcal/mol
 total RMSD          :         0.4512313 a0        0.2388 Å
 total power (kW/mol):        -1.3089128 (step)  -21.3613 (real)
------------------------------------------------------------------------

 ANCopt (total)                0 d,  0 h,  0 min,  1.287 sec
 optimizer setup                ...        0 min,  0.086 sec (  6.685%)
 model hessian                  ...        0 min,  0.007 sec (  0.553%)
 ANC generation                 ...        0 min,  0.001 sec (  0.056%)
 coordinate transformation      ...        0 min,  0.001 sec (  0.068%)
 single point calculation       ...        0 min,  1.092 sec ( 84.852%)
 optimization log               ...        0 min,  0.002 sec (  0.192%)
 hessian update                 ...        0 min,  0.092 sec (  7.180%)
 rational function              ...        0 min,  0.002 sec (  0.141%)

================
 final structure:
================
12
 xtb: 6.2.3 (830e466)
C         0.87309650147999    1.39161448669456   -2.43267629551257
C         0.95550603644613    0.95334518499757   -0.95093964020258
C         1.82316446174676   -0.28584622708548   -0.85826230612759
O         0.20145800222770    2.61823366742704   -2.54251445190526
O         1.45587915854676    1.99259946340268   -0.16145703860535
O         2.93422447544318   -0.33453877959331   -0.42833294307633
H         1.34176839527182    2.82213493267153   -0.64761585978992
H         1.88262701843980    1.57401165809830   -2.80941580480759
H         0.39794322000769    0.60891731010094   -3.03608181621296
H         1.30910026418469   -1.18385432809116   -1.26111010902522
H        -0.06049970772017    0.67878460151435   -0.60721881356491
H        -0.72527782607434    2.50419802986298   -2.30018492116973
 
 Bond Distances (Angstroems)
 ---------------------------
C1-C2=1.5474         C1-O4=1.4028         C1-H8=1.0929         C1-H9=1.0966         C2-C1=1.5474         C2-C3=1.5156         
C2-O5=1.3978         C2-H11=1.1072        C3-C2=1.5156         C3-O6=1.1923         C3-H10=1.1104        O4-C1=1.4028         
O4-H12=0.9647        O5-C2=1.3978         O5-H7=0.9682         O6-C3=1.1923         H7-O5=0.9682         H8-C1=1.0929         
H9-C1=1.0966         H10-C3=1.1104        H11-C2=1.1072        H12-O4=0.9647        
 C  H  Rav=1.1017 sigma=0.0072  Rmin=1.0929  Rmax=1.1104     4
 C  C  Rav=1.5315 sigma=0.0159  Rmin=1.5156  Rmax=1.5474     2
 O  H  Rav=0.9665 sigma=0.0018  Rmin=0.9647  Rmax=0.9682     2
 O  C  Rav=1.3310 sigma=0.0980  Rmin=1.1923  Rmax=1.4028     3
 
 selected bond angles (degree)
 --------------------
O4-C1-C2=110.37                H8-C1-C2=109.16                H8-C1-O4=105.63                H9-C1-C2=110.35                
H9-C1-O4=111.94                H9-C1-H8=109.25                C3-C2-C1=108.70                O5-C2-C1=110.45                
O5-C2-C3=111.62                H11-C2-C1=108.58               H11-C2-C3=107.67               H11-C2-O5=109.73               
O6-C3-C2=126.08                H10-C3-C2=111.96               H10-C3-O6=121.95               H12-O4-C1=109.69               
H7-O5-C2=108.13                
 
 selected dihedral angles (degree)
 ---------------------------------
C3-C2-C1-O4=186.51            C3-C2-C1-H8=302.18            C3-C2-C1-H9= 62.26            O5-C2-C1-O4=309.28            
O5-C2-C1-H8= 64.95            O5-C2-C1-H9=185.03            H11-C2-C1-O4= 69.64           H11-C2-C1-H8=185.31           
H11-C2-C1-H9=305.39           O6-C3-C2-C1=106.52            O6-C3-C2-O5=344.45            O6-C3-C2-H11=223.97           
H10-C3-C2-C1=287.42           H10-C3-C2-O5=165.35           H10-C3-C2-H11= 44.86          H12-O4-C1-C2=292.67           
H12-O4-C1-H8=174.80           H12-O4-C1-H9= 56.01           H7-O5-C2-C1= 19.68            H7-O5-C2-C3=140.73            
H7-O5-C2-H11=260.01           
           -------------------------------------------------
          |                Final Singlepoint                |
           -------------------------------------------------

          ...................................................
          :                      SETUP                      :
          :.................................................:
          :  # basis functions                  30          :
          :  # atomic orbitals                  30          :
          :  # shells                           18          :
          :  # electrons                        36          :
          :  max. iterations                   100          :
          :  Hamiltonian                  GFN2-xTB          :
          :  restarted?                      false          :
          :  GBSA solvation                  false          :
          :  PC potential                    false          :
          :  electronic temp.          300.0000000     K    :
          :  accuracy                    1.0000000          :
          :  -> integral cutoff          0.2500000E+02      :
          :  -> integral neglect         0.1000000E-07      :
          :  -> SCF convergence          0.1000000E-05 Eh   :
          :  -> wf. convergence          0.1000000E-03 e    :
          :  Broyden damping             0.4000000          :
          ...................................................

 iter      E             dE          RMSdq      gap      omega  full diag
   1    -21.8067537 -0.218068E+02  0.560E-05    3.61       0.0  T
   2    -21.8067537 -0.243716E-11  0.339E-05    3.61     851.4  T
   3    -21.8067537 -0.806466E-12  0.105E-05    3.61    2745.7  T

   *** convergence criteria satisfied after 3 iterations ***

         #    Occupation            Energy/Eh            Energy/eV
      -------------------------------------------------------------
         1        2.0000           -0.7324760             -19.9317
       ...           ...                  ...                  ...
        12        2.0000           -0.5404158             -14.7055
        13        2.0000           -0.5268445             -14.3362
        14        2.0000           -0.5006361             -13.6230
        15        2.0000           -0.4851504             -13.2016
        16        2.0000           -0.4575189             -12.4497
        17        2.0000           -0.4350090             -11.8372
        18        2.0000           -0.4104172             -11.1680 (HOMO)
        19                         -0.2778205              -7.5599 (LUMO)
        20                          0.0159417               0.4338
        21                          0.0304775               0.8293
        22                          0.0619359               1.6854
        23                          0.0980882               2.6691
       ...                                ...                  ...
        30                          0.6269135              17.0592
      -------------------------------------------------------------
                  HL-Gap            0.1325966 Eh            3.6081 eV
             Fermi-level           -0.3441189 Eh           -9.3640 eV

 SCC (total)                   0 d,  0 h,  0 min,  0.003 sec
 SCC setup                      ...        0 min,  0.000 sec (  7.441%)
 Dispersion                     ...        0 min,  0.000 sec (  1.638%)
 integral evaluation            ...        0 min,  0.000 sec ( 15.585%)
 zeroth order Hamiltonian       ...        0 min,  0.000 sec (  2.446%)
 iterations                     ...        0 min,  0.001 sec ( 26.215%)
 molecular gradient             ...        0 min,  0.001 sec ( 33.056%)
 printout                       ...        0 min,  0.000 sec (  6.538%)

         :::::::::::::::::::::::::::::::::::::::::::::::::::::
         ::                     SUMMARY                     ::
         :::::::::::::::::::::::::::::::::::::::::::::::::::::
         :: total energy             -21.629659375784 Eh    ::
         :: gradient norm              0.000471206410 Eh/a0 ::
         :: HOMO-LUMO gap              3.608137586731 eV    ::
         ::.................................................::
         :: SCC energy               -21.806753689487 Eh    ::
         :: -> isotropic ES            0.063511247256 Eh    ::
         :: -> anisotropic ES          0.004201284421 Eh    ::
         :: -> anisotropic XC         -0.001577365249 Eh    ::
         :: -> dispersion             -0.006098118076 Eh    ::
         :: repulsion energy           0.177089290402 Eh    ::
         :: add. restraining           0.000000000000 Eh    ::
         :::::::::::::::::::::::::::::::::::::::::::::::::::::

           -------------------------------------------------
          |                Property Printout                |
           -------------------------------------------------

    * Orbital Energies and Occupations

         #    Occupation            Energy/Eh            Energy/eV
      -------------------------------------------------------------
         1        2.0000           -0.7324760             -19.9317
       ...           ...                  ...                  ...
         6        2.0000           -0.6164828             -16.7753
         7        2.0000           -0.6077468             -16.5376
         8        2.0000           -0.5863339             -15.9550
         9        2.0000           -0.5841395             -15.8952
        10        2.0000           -0.5575636             -15.1721
        11        2.0000           -0.5539253             -15.0731
        12        2.0000           -0.5404158             -14.7055
        13        2.0000           -0.5268445             -14.3362
        14        2.0000           -0.5006361             -13.6230
        15        2.0000           -0.4851504             -13.2016
        16        2.0000           -0.4575189             -12.4497
        17        2.0000           -0.4350090             -11.8372
        18        2.0000           -0.4104172             -11.1680 (HOMO)
        19                         -0.2778205              -7.5599 (LUMO)
        20                          0.0159417               0.4338
        21                          0.0304775               0.8293
        22                          0.0619359               1.6854
        23                          0.0980882               2.6691
        24                          0.1123683               3.0577
        25                          0.1412709               3.8442
        26                          0.1519407               4.1345
        27                          0.2009152               5.4672
        28                          0.2158642               5.8740
        29                          0.2474481               6.7334
        30                          0.6269135              17.0592
      -------------------------------------------------------------
                  HL-Gap            0.1325966 Eh            3.6081 eV
             Fermi-level           -0.3441189 Eh           -9.3640 eV

     #   Z        covCN         q      C6AA      α(0)
     1   6 C      3.676     0.068    19.651     6.351
     2   6 C      3.723     0.086    19.250     6.266
     3   6 C      2.758     0.202    23.702     7.972
     4   8 O      1.656    -0.426    21.362     6.239
     5   8 O      1.656    -0.423    21.299     6.230
     6   8 O      0.856    -0.274    19.313     5.892
     7   1 H      0.805     0.314     0.680     1.295
     8   1 H      0.924     0.069     2.094     2.263
     9   1 H      0.924     0.029     2.599     2.521
    10   1 H      0.922     0.019     2.756     2.596
    11   1 H      0.922     0.037     2.491     2.468
    12   1 H      0.805     0.298     0.728     1.340

 Mol. C6AA /au·bohr⁶  :       1237.628547
 Mol. C8AA /au·bohr⁸  :      26273.497266
 Mol. α(0) /au        :         51.434143


Wiberg/Mayer (AO) data.
largest (>0.10) Wiberg bond orders for each atom
          total WBO             WBO to atom ...
     1  C   3.956        O    4 1.011    H    9 0.971    H    8 0.969    C    2 0.944
     2  C   3.970        O    5 1.016    C    3 0.973    C    1 0.944    H   11 0.938
     3  C   3.925        O    6 1.961    C    2 0.973    H   10 0.928
     4  O   1.990        C    1 1.011    H   12 0.896
     5  O   1.973        C    2 1.016    H    7 0.875
     6  O   2.132        C    3 1.961
     7  H   0.901        O    5 0.875
     8  H   0.995        C    1 0.969
     9  H   0.999        C    1 0.971
    10  H   1.000        C    3 0.928
    11  H   0.999        C    2 0.938
    12  H   0.911        O    4 0.896

molecular dipole:
                 x           y           z       tot (Debye)
 q only:       -1.180       0.029      -0.700
   full:       -1.630      -0.103      -0.910       4.752
molecular quadrupole (traceless):
                xx          xy          yy          xz          yz          zz
 q only:       -6.248      -1.584       2.617      -0.456       0.192       3.631
  q+dip:       -7.281      -2.069       2.384      -0.763       0.719       4.897
   full:       -7.951      -2.338       2.541      -1.012       0.492       5.410

           -------------------------------------------------
          |                Geometry Summary                 |
           -------------------------------------------------

      molecular mass/u    :       90.0780670
   center of mass at/Å    :        1.3488438       1.1124733      -1.2412497
  moments of inertia/u·Å² :        0.6525430E+02   0.2262324E+03   0.2641202E+03
rotational constants/cm⁻¹ :        0.2583375E+00   0.7451468E-01   0.6382562E-01

 * 8 selected distances

     #   Z        #   Z                                     value/Å
     1   6 C      4   8 O                                 1.4027677 (max)
     2   6 C      5   8 O                                 1.3977502
     3   6 C      6   8 O                                 1.1923358
     5   8 O      7   1 H                                 0.9682462
     1   6 C      8   1 H                                 1.0928647
     1   6 C      9   1 H                                 1.0965782
     2   6 C     11   1 H                                 1.1071564
     4   8 O     12   1 H                                 0.9646590 (min)

 * 3 distinct bonds (by element types)

   Z      Z             #   av. dist./Å        max./Å        min./Å
   1 H    6 C           3     1.0988664     1.1071564     1.0928647
   1 H    8 O           2     0.9664526     0.9682462     0.9646590
   6 C    8 O           3     1.3309512     1.4027677     1.1923358


optimized geometry written to: xtbopt.xyz


           -------------------------------------------------
          | TOTAL ENERGY              -21.629659375784 Eh   |
          | GRADIENT NORM               0.000471206410 Eh/α |
          | HOMO-LUMO GAP               3.608137586731 eV   |
           -------------------------------------------------

------------------------------------------------------------------------
 * finished run on 2020/12/23 at 21:42:18.962     
------------------------------------------------------------------------
 total:
 * wall-time:     0 d,  0 h,  0 min,  1.606 sec
 *  cpu-time:     0 d,  0 h,  0 min,  6.553 sec
 * ratio c/w:     4.080 speedup
 SCF:
 * wall-time:     0 d,  0 h,  0 min,  0.011 sec
 *  cpu-time:     0 d,  0 h,  0 min,  0.246 sec
 * ratio c/w:    22.941 speedup
 ANC optimizer:
 * wall-time:     0 d,  0 h,  0 min,  1.293 sec
 *  cpu-time:     0 d,  0 h,  0 min,  5.109 sec
 * ratio c/w:     3.951 speedup

