      -----------------------------------------------------------      
     |                   =====================                   |     
     |                           x T B                           |     
     |                   =====================                   |     
     |                         S. Grimme                         |     
     |          Mulliken Center for Theoretical Chemistry        |     
     |                    University of Bonn                     |     
      -----------------------------------------------------------      

   * xtb version 6.2.3 (830e466) compiled by 'ehlert@majestix' on 2020-03-16

   xtb is free software: you can redistribute it and/or modify it under
   the terms of the GNU Lesser General Public License as published by
   the Free Software Foundation, either version 3 of the License, or
   (at your option) any later version.
   
   xtb is distributed in the hope that it will be useful,
   but WITHOUT ANY WARRANTY; without even the implied warranty of
   MERCHANTABILITY or FITNESS FOR A PARTICULAR PURPOSE.  See the
   GNU Lesser General Public License for more details.
   
   Cite this work as:
   * S. Grimme, C. Bannwarth, P. Shushkov, J. Chem. Theory Comput., 2017,
     13, 1989-2009. DOI: 10.1021/acs.jctc.7b00118
   * C. Bannwarth, S. Ehlert and S. Grimme., J. Chem. Theory Comput., 2019,
     15, 1652-1671. DOI: 10.1021/acs.jctc.8b01176
   * P. Pracht, E. Caldeweyher, S. Ehlert, S. Grimme, ChemRxiv, 2019, preprint.
     DOI: 10.26434/chemrxiv.8326202.v1
   
   for DFT-D4:
   * E. Caldeweyher, C. Bannwarth and S. Grimme, J. Chem. Phys., 2017,
     147, 034112. DOI: 10.1063/1.4993215
   * E. Caldeweyher, S. Ehlert, A. Hansen, H. Neugebauer, S. Spicher,
     C. Bannwarth and S. Grimme, J. Chem. Phys., 2019, 150, 154122.
     DOI: 10.1063/1.5090222
   
   for sTDA-xTB:
   * S. Grimme and C. Bannwarth, J. Chem. Phys., 2016, 145, 054103.
     DOI: 10.1063/1.4959605
   
   in the mass-spec context:
   * V. Asgeirsson, C. Bauer and S. Grimme, Chem. Sci., 2017, 8, 4879.
     DOI: 10.1039/c7sc00601b
   
   for metadynamics refer to:
   * S. Grimme, J. Chem. Theory Comput., 2019, 155, 2847-2862
     DOI: 10.1021/acs.jctc.9b00143
   
   with help from (in alphabetical order)
   C. Bannwarth, F. Bohle, G. Brandenburg, E. Caldeweyher, M. Checinski,
   S. Dohm, S. Ehlert, S. Ehrlich, F. März, H. Neugebauer, J. Pisarek,
   P. Pracht, P. Shushkov, and S. Spicher.
   
 * started run on 2020/12/23 at 21:40:46.309     

           -------------------------------------------------
          |                Calculation Setup                |
           -------------------------------------------------

          program call               : xtb -c 0 -u 0 -a 1.0 --iterations 100 --opt normal --namespace product_7 /scratch/bell/zhao922/YARP/paper-example/potential_product/test/reaction_channel/pp_0/pp_13_3.xyz
          hostname                   : bell-fe05.rcac.purdue.edu
          calculation namespace      : product_7
          coordinate file            : /scratch/bell/zhao922/YARP/paper-example/potential_product/test/reaction_channel/pp_0/pp_13_3.xyz
          omp threads                :                    32
          number of atoms            :                    12
          number of electrons        :                    36
          charge                     :                     0
          spin                       :                   0.0
          first test random number   :      0.37328778706932


molecular fragmentation (1/2 indicates fragments):
111111112112
# atoms in fragment 1/2:    10     2
 fragment masses (1/2) :       88.06        2.02
CMA distance (Bohr)    :   6.938
constraining FC (au)   :  0.0500
           ------------------------------------------------- 
          |                 G F N 2 - x T B                 |
          | Geometry, Frequencies, Noncovalent interactions |
          |            JCTC 2019 parametrisation            |
           ------------------------------------------------- 
             k(s)              :                1.8500
             k(p)              :                2.2300
             k(d)              :                2.2300
             k(f)              :                2.0000
             kEN (H0ij)        :               -2.0000
             D4 a1             :                0.5200
             D4 a2             :                5.0000
             D4 s6             :                1.0000
             D4 s8             :                2.7000
             D4 s9             :                5.0000
             alphaj            :                2.0000

  Z AO/shell   Hii/eV     exponent
  1     Wed Apr 25 08:07:45 CEST 2018   EN: 2.200 GM2: 0.406  GM3: 0.0800  RAES: 1.40
     1s    -10.707211    1.230000
  6     Wed Apr 25 08:07:45 CEST 2018   EN: 2.550 GM2: 0.538  GM3: 0.1500  RAES: 3.00
     2s    -13.970922    2.096432
     2p    -10.063292    1.800000
  8     Wed Apr 25 08:07:45 CEST 2018   EN: 3.440 GM2: 0.452  GM3:-0.0517  RAES: 1.80
     2s    -20.229985    2.439742
     2p    -15.503117    2.137023

           ------------------------------------------------- 
          |        Self-Consistent Charge Iterations        |
           ------------------------------------------------- 

          ...................................................
          :                      SETUP                      :
          :.................................................:
          :  # basis functions                  30          :
          :  # atomic orbitals                  30          :
          :  # shells                           18          :
          :  # electrons                        36          :
          :  max. iterations                   100          :
          :  Hamiltonian                  GFN2-xTB          :
          :  restarted?                      false          :
          :  GBSA solvation                  false          :
          :  PC potential                    false          :
          :  electronic temp.          300.0000000     K    :
          :  accuracy                    1.0000000          :
          :  -> integral cutoff          0.2500000E+02      :
          :  -> integral neglect         0.1000000E-07      :
          :  -> SCF convergence          0.1000000E-05 Eh   :
          :  -> wf. convergence          0.1000000E-03 e    :
          :  Broyden damping             0.4000000          :
          ...................................................

 iter      E             dE          RMSdq      gap      omega  full diag
   1    -21.6658381 -0.216658E+02  0.572E+00    3.54       0.0  T
   2    -21.7023103 -0.364722E-01  0.336E+00    2.82       1.0  T
   3    -21.7019999  0.310401E-03  0.206E+00    3.34       1.0  T
   4    -21.7137924 -0.117925E-01  0.529E-01    3.02       1.0  T
   5    -21.7161280 -0.233556E-02  0.131E-01    3.04       1.0  T
   6    -21.7162001 -0.721004E-04  0.556E-02    3.07       1.0  T
   7    -21.7162109 -0.108738E-04  0.177E-02    3.06       1.6  T
   8    -21.7162113 -0.351062E-06  0.471E-03    3.06       6.1  T
   9    -21.7162114 -0.111460E-06  0.167E-03    3.06      17.3  T
  10    -21.7162114 -0.174216E-07  0.396E-04    3.06      73.0  T
  11    -21.7162114 -0.378861E-09  0.255E-04    3.06     113.2  T

   *** convergence criteria satisfied after 11 iterations ***

         #    Occupation            Energy/Eh            Energy/eV
      -------------------------------------------------------------
         1        2.0000           -0.7834685             -21.3193
       ...           ...                  ...                  ...
        12        2.0000           -0.5236615             -14.2496
        13        2.0000           -0.5143369             -13.9958
        14        2.0000           -0.4842197             -13.1763
        15        2.0000           -0.4809778             -13.0881
        16        2.0000           -0.4655290             -12.6677
        17        2.0000           -0.4158652             -11.3163
        18        2.0000           -0.4037620             -10.9869 (HOMO)
        19                         -0.2913076              -7.9269 (LUMO)
        20                         -0.1835333              -4.9942
        21                         -0.0708441              -1.9278
        22                          0.0658664               1.7923
        23                          0.0933839               2.5411
       ...                                ...                  ...
        30                          0.6146074              16.7243
      -------------------------------------------------------------
                  HL-Gap            0.1124544 Eh            3.0600 eV
             Fermi-level           -0.3475348 Eh           -9.4569 eV

 SCC (total)                   0 d,  0 h,  0 min,  0.012 sec
 SCC setup                      ...        0 min,  0.000 sec (  0.984%)
 Dispersion                     ...        0 min,  0.000 sec (  0.386%)
 integral evaluation            ...        0 min,  0.001 sec (  6.654%)
 zeroth order Hamiltonian       ...        0 min,  0.000 sec (  0.566%)
 iterations                     ...        0 min,  0.007 sec ( 61.241%)
 molecular gradient             ...        0 min,  0.003 sec ( 28.252%)
 printout                       ...        0 min,  0.000 sec (  0.657%)

         :::::::::::::::::::::::::::::::::::::::::::::::::::::
         ::                     SUMMARY                     ::
         :::::::::::::::::::::::::::::::::::::::::::::::::::::
         :: total energy             -21.490318154291 Eh    ::
         :: gradient norm              0.164931380975 Eh/a0 ::
         :: HOMO-LUMO gap              3.060041198419 eV    ::
         ::.................................................::
         :: SCC energy               -21.716211427338 Eh    ::
         :: -> isotropic ES            0.043207817701 Eh    ::
         :: -> anisotropic ES          0.008414585660 Eh    ::
         :: -> anisotropic XC         -0.001212344792 Eh    ::
         :: -> dispersion             -0.005539503835 Eh    ::
         :: repulsion energy           0.225888587649 Eh    ::
         :: add. restraining           0.000000000000 Eh    ::
         :::::::::::::::::::::::::::::::::::::::::::::::::::::

      ----------------------------------------------------------- 
     |                   =====================                   |
     |                        A N C O P T                        |
     |                   =====================                   |
     |               Approximate Normal Coordinate               |
     |                Rational Function Optimizer                |
      ----------------------------------------------------------- 

          ...................................................
          :                      SETUP                      :
          :.................................................:
          :   optimization level            normal          :
          :   max. optcycles                   200          :
          :   ANC micro-cycles                  20          :
          :   degrees of freedom                30          :
          :.................................................:
          :   RF solver                   davidson          :
          :   write xtbopt.log                true          :
          :   linear?                        false          :
          :   energy convergence         0.5000000E-05 Eh   :
          :   grad. convergence          0.1000000E-02 Eh/α :
          :   maximium RF displ.         1.0000000          :
          :   Hlow (freq-cutoff)         0.1000000E-01      :
          :   Hmax (freq-cutoff)         5.0000000          :
          :   S6 in model hess.         20.0000000          :
          ...................................................

generating ANC from model Hessian ...
Using Lindh-Hessian (1995)
 Shifting diagonal of input Hessian by   9.925783879165304E-003
 Lowest  eigenvalues of input Hessian
   -0.000000   -0.000000   -0.000000   -0.000000    0.000000    0.000000
    0.010000    0.010129    0.010286    0.010682    0.010791    0.014932
    0.019111    0.023250    0.033344    0.037847    0.060479    0.071680
 Highest eigenvalues
    1.206811    1.349474    1.627819    1.786103    2.103956    2.159263
 

........................................................................
.............................. CYCLE    1 ..............................
........................................................................
   1    -21.7162114 -0.217162E+02  0.861E-05    3.06       0.0  T
   2    -21.7162114 -0.185771E-10  0.642E-05    3.06     449.9  T
   3    -21.7162114 -0.140865E-10  0.457E-05    3.06     631.8  T
     SCC iter.                  ...        0 min,  0.001 sec
     gradient                   ...        0 min,  0.001 sec
 * total energy  :   -21.4903181 Eh     change        0.5189822E-08 Eh
   gradient norm :     0.1649314 Eh/α   predicted     0.0000000E+00 (-100.00%)
   displ. norm   :     0.1867440 α      lambda       -0.2079157E-01
   maximum displ.:     0.0735571 α      in ANC's #23, #12, #19, ...

........................................................................
.............................. CYCLE    2 ..............................
........................................................................
   1    -21.7211974 -0.217212E+02  0.386E-01    3.04       0.0  T
   2    -21.7213700 -0.172642E-03  0.248E-01    3.05       1.0  T
   3    -21.7213413  0.286792E-04  0.936E-02    3.04       1.0  T
   4    -21.7213770 -0.356575E-04  0.472E-02    3.05       1.0  T
   5    -21.7213957 -0.187334E-04  0.103E-02    3.04       2.8  T
   6    -21.7213959 -0.201640E-06  0.557E-03    3.05       5.2  T
   7    -21.7213960 -0.460638E-07  0.236E-03    3.05      12.2  T
     SCC iter.                  ...        0 min,  0.002 sec
     gradient                   ...        0 min,  0.001 sec
 * total energy  :   -21.5040113 Eh     change       -0.1369317E-01 Eh
   gradient norm :     0.0602879 Eh/α   predicted    -0.1075831E-01 ( -21.43%)
   displ. norm   :     0.1950481 α      lambda       -0.5102525E-02
   maximum displ.:     0.0911530 α      in ANC's #12, #5, #15, ...

........................................................................
.............................. CYCLE    3 ..............................
........................................................................
   1    -21.7239156 -0.217239E+02  0.389E-01    3.03       0.0  T
   2    -21.7239798 -0.642226E-04  0.247E-01    3.03       1.0  T
   3    -21.7239869 -0.706684E-05  0.453E-02    3.04       1.0  T
   4    -21.7239913 -0.442034E-05  0.269E-02    3.03       1.1  T
   5    -21.7239982 -0.688006E-05  0.902E-03    3.04       3.2  T
   6    -21.7239983 -0.156431E-06  0.367E-03    3.04       7.9  T
   7    -21.7239984 -0.299076E-07  0.138E-03    3.04      21.0  T
     SCC iter.                  ...        0 min,  0.089 sec
     gradient                   ...        0 min,  0.001 sec
 * total energy  :   -21.5071604 Eh     change       -0.3149115E-02 Eh
   gradient norm :     0.0121468 Eh/α   predicted    -0.2648321E-02 ( -15.90%)
   displ. norm   :     0.1738131 α      lambda       -0.9269649E-03
   maximum displ.:     0.1016252 α      in ANC's #5, #10, #4, ...

........................................................................
.............................. CYCLE    4 ..............................
........................................................................
   1    -21.7239562 -0.217240E+02  0.259E-01    3.04       0.0  T
   2    -21.7239680 -0.118842E-04  0.164E-01    3.04       1.0  T
   3    -21.7239398  0.282203E-04  0.615E-02    3.05       1.0  T
   4    -21.7239774 -0.376177E-04  0.987E-03    3.04       2.9  T
   5    -21.7239775 -0.982665E-07  0.468E-03    3.04       6.2  T
   6    -21.7239776 -0.311094E-07  0.103E-03    3.04      28.1  T
   7    -21.7239776 -0.289876E-08  0.633E-04    3.04      45.6  T
     SCC iter.                  ...        0 min,  0.002 sec
     gradient                   ...        0 min,  0.001 sec
 * total energy  :   -21.5076062 Eh     change       -0.4458065E-03 Eh
   gradient norm :     0.0112407 Eh/α   predicted    -0.4774831E-03 (   7.11%)
   displ. norm   :     0.1770470 α      lambda       -0.6169715E-03
   maximum displ.:     0.1204749 α      in ANC's #5, #12, #7, ...

........................................................................
.............................. CYCLE    5 ..............................
........................................................................
   1    -21.7244419 -0.217244E+02  0.201E-01    3.05       0.0  T
   2    -21.7244478 -0.586727E-05  0.126E-01    3.05       1.0  T
   3    -21.7244205  0.273148E-04  0.587E-02    3.06       1.0  T
   4    -21.7244541 -0.336609E-04  0.703E-03    3.05       4.1  T
   5    -21.7244542 -0.238836E-07  0.304E-03    3.05       9.5  T
   6    -21.7244542 -0.104457E-07  0.655E-04    3.05      44.1  T
   7    -21.7244542 -0.144745E-08  0.331E-04    3.05      87.2  T
     SCC iter.                  ...        0 min,  0.002 sec
     gradient                   ...        0 min,  0.001 sec
 * total energy  :   -21.5078726 Eh     change       -0.2663558E-03 Eh
   gradient norm :     0.0155689 Eh/α   predicted    -0.3181540E-03 (  19.45%)
   displ. norm   :     0.1043836 α      lambda       -0.3442869E-03
   maximum displ.:     0.0803729 α      in ANC's #5, #10, #7, ...

........................................................................
.............................. CYCLE    6 ..............................
........................................................................
   1    -21.7257264 -0.217257E+02  0.101E-01    3.06       0.0  T
   2    -21.7257294 -0.300548E-05  0.638E-02    3.06       1.0  T
   3    -21.7257242  0.524864E-05  0.282E-02    3.07       1.0  T
   4    -21.7257315 -0.727316E-05  0.516E-03    3.06       5.6  T
   5    -21.7257315 -0.760341E-07  0.283E-03    3.06      10.2  T
   6    -21.7257316 -0.118117E-07  0.869E-04    3.06      33.2  T
     SCC iter.                  ...        0 min,  0.006 sec
     gradient                   ...        0 min,  0.001 sec
 * total energy  :   -21.5081519 Eh     change       -0.2793270E-03 Eh
   gradient norm :     0.0088086 Eh/α   predicted    -0.1740172E-03 ( -37.70%)
   displ. norm   :     0.3076208 α      lambda       -0.5806991E-03
   maximum displ.:     0.2096668 α      in ANC's #5, #10, #4, ...

........................................................................
.............................. CYCLE    7 ..............................
........................................................................
   1    -21.7249025 -0.217249E+02  0.283E-01    3.08       0.0  T
   2    -21.7249155 -0.129932E-04  0.175E-01    3.07       1.0  T
   3    -21.7248764  0.390842E-04  0.697E-02    3.08       1.0  T
   4    -21.7249245 -0.480621E-04  0.101E-02    3.07       2.9  T
   5    -21.7249246 -0.162697E-06  0.531E-03    3.07       5.4  T
   6    -21.7249247 -0.281062E-07  0.182E-03    3.07      15.9  T
   7    -21.7249247 -0.944824E-08  0.561E-04    3.07      51.5  T
     SCC iter.                  ...        0 min,  0.093 sec
     gradient                   ...        0 min,  0.001 sec
 * total energy  :   -21.5085037 Eh     change       -0.3518025E-03 Eh
   gradient norm :     0.0106093 Eh/α   predicted    -0.3178256E-03 (  -9.66%)
   displ. norm   :     0.2016337 α      lambda       -0.2336759E-03
   maximum displ.:     0.1448222 α      in ANC's #5, #4, #6, ...

........................................................................
.............................. CYCLE    8 ..............................
........................................................................
   1    -21.7253316 -0.217253E+02  0.156E-01    3.07       0.0  T
   2    -21.7253363 -0.464977E-05  0.984E-02    3.07       1.0  T
   3    -21.7253380 -0.178204E-05  0.156E-02    3.08       1.9  T
   4    -21.7253396 -0.157924E-05  0.721E-03    3.07       4.0  T
   5    -21.7253397 -0.125639E-06  0.323E-03    3.07       8.9  T
   6    -21.7253398 -0.236764E-07  0.920E-04    3.07      31.4  T
   7    -21.7253398 -0.303702E-08  0.554E-04    3.07      52.1  T
     SCC iter.                  ...        0 min,  0.002 sec
     gradient                   ...        0 min,  0.001 sec
 * total energy  :   -21.5086505 Eh     change       -0.1467356E-03 Eh
   gradient norm :     0.0063550 Eh/α   predicted    -0.1215889E-03 ( -17.14%)
   displ. norm   :     0.2275675 α      lambda       -0.1970165E-03
   maximum displ.:     0.1745344 α      in ANC's #5, #6, #10, ...

........................................................................
.............................. CYCLE    9 ..............................
........................................................................
   1    -21.7275510 -0.217276E+02  0.183E-01    3.08       0.0  T
   2    -21.7275538 -0.279796E-05  0.113E-01    3.07       1.0  T
   3    -21.7275452  0.868304E-05  0.333E-02    3.08       1.0  T
   4    -21.7275565 -0.113209E-04  0.601E-03    3.08       4.8  T
   5    -21.7275565 -0.128908E-07  0.165E-03    3.08      17.5  T
   6    -21.7275565 -0.994947E-08  0.591E-04    3.08      48.8  T
     SCC iter.                  ...        0 min,  0.092 sec
     gradient                   ...        0 min,  0.001 sec
 * total energy  :   -21.5087352 Eh     change       -0.8472279E-04 Eh
   gradient norm :     0.0075984 Eh/α   predicted    -0.1036088E-03 (  22.29%)
   displ. norm   :     0.1891794 α      lambda       -0.1613825E-03
   maximum displ.:     0.1169282 α      in ANC's #5, #6, #4, ...

........................................................................
.............................. CYCLE   10 ..............................
........................................................................
   1    -21.7256620 -0.217257E+02  0.138E-01    3.08       0.0  T
   2    -21.7256634 -0.142337E-05  0.848E-02    3.08       1.0  T
   3    -21.7256529  0.104354E-04  0.340E-02    3.08       1.0  T
   4    -21.7256651 -0.121668E-04  0.402E-03    3.08       7.2  T
   5    -21.7256651 -0.335627E-08  0.161E-03    3.08      17.9  T
   6    -21.7256651 -0.529571E-08  0.571E-04    3.08      50.6  T
     SCC iter.                  ...        0 min,  0.003 sec
     gradient                   ...        0 min,  0.001 sec
 * total energy  :   -21.5088275 Eh     change       -0.9226838E-04 Eh
   gradient norm :     0.0087442 Eh/α   predicted    -0.8357871E-04 (  -9.42%)
   displ. norm   :     0.1096743 α      lambda       -0.1665759E-03
   maximum displ.:     0.0518100 α      in ANC's #5, #2, #6, ...

........................................................................
.............................. CYCLE   11 ..............................
........................................................................
   1    -21.7269252 -0.217269E+02  0.966E-02    3.08       0.0  T
   2    -21.7269269 -0.163459E-05  0.588E-02    3.07       1.0  T
   3    -21.7269233  0.351852E-05  0.206E-02    3.08       1.4  T
   4    -21.7269277 -0.431656E-05  0.448E-03    3.07       6.4  T
   5    -21.7269277 -0.769871E-07  0.173E-03    3.07      16.7  T
   6    -21.7269277 -0.141349E-08  0.679E-04    3.07      42.5  T
     SCC iter.                  ...        0 min,  0.002 sec
     gradient                   ...        0 min,  0.002 sec
 * total energy  :   -21.5088943 Eh     change       -0.6683087E-04 Eh
   gradient norm :     0.0066140 Eh/α   predicted    -0.8429018E-04 (  26.12%)
   displ. norm   :     0.1608097 α      lambda       -0.1299675E-03
   maximum displ.:     0.1117627 α      in ANC's #5, #6, #2, ...

........................................................................
.............................. CYCLE   12 ..............................
........................................................................
   1    -21.7268221 -0.217268E+02  0.139E-01    3.08       0.0  T
   2    -21.7268234 -0.127351E-05  0.851E-02    3.07       1.0  T
   3    -21.7268213  0.208116E-05  0.167E-02    3.08       1.7  T
   4    -21.7268242 -0.287038E-05  0.378E-03    3.07       7.6  T
   5    -21.7268242 -0.233798E-07  0.183E-03    3.07      15.8  T
   6    -21.7268242 -0.285973E-08  0.519E-04    3.07      55.6  T
     SCC iter.                  ...        0 min,  0.002 sec
     gradient                   ...        0 min,  0.001 sec
 * total energy  :   -21.5089972 Eh     change       -0.1029338E-03 Eh
   gradient norm :     0.0046771 Eh/α   predicted    -0.6666282E-04 ( -35.24%)
   displ. norm   :     0.3104526 α      lambda       -0.1812535E-03
   maximum displ.:     0.2035322 α      in ANC's #5, #2, #6, ...

........................................................................
.............................. CYCLE   13 ..............................
........................................................................
   1    -21.7253788 -0.217254E+02  0.270E-01    3.07       0.0  T
   2    -21.7253830 -0.420341E-05  0.164E-01    3.07       1.0  T
   3    -21.7253847 -0.172028E-05  0.896E-03    3.07       3.2  T
   4    -21.7253848 -0.103422E-06  0.545E-03    3.07       5.3  T
   5    -21.7253848 -0.542840E-07  0.352E-03    3.07       8.2  T
   6    -21.7253849 -0.540123E-07  0.789E-04    3.07      36.6  T
   7    -21.7253849 -0.172314E-08  0.286E-04    3.07     100.9  T
     SCC iter.                  ...        0 min,  0.002 sec
     gradient                   ...        0 min,  0.001 sec
 * total energy  :   -21.5090737 Eh     change       -0.7648019E-04 Eh
   gradient norm :     0.0115322 Eh/α   predicted    -0.9936359E-04 (  29.92%)
   displ. norm   :     0.0880436 α      lambda       -0.1309997E-03
   maximum displ.:     0.0502594 α      in ANC's #6, #5, #7, ...

........................................................................
.............................. CYCLE   14 ..............................
........................................................................
   1    -21.7273465 -0.217273E+02  0.775E-02    3.06       0.0  T
   2    -21.7273484 -0.189324E-05  0.475E-02    3.07       1.0  T
   3    -21.7273435  0.493455E-05  0.245E-02    3.06       1.2  T
   4    -21.7273495 -0.598941E-05  0.353E-03    3.07       8.2  T
   5    -21.7273495 -0.418596E-07  0.140E-03    3.06      20.6  T
   6    -21.7273495 -0.349735E-08  0.746E-04    3.06      38.7  T
     SCC iter.                  ...        0 min,  0.002 sec
     gradient                   ...        0 min,  0.001 sec
 * total energy  :   -21.5091357 Eh     change       -0.6204106E-04 Eh
   gradient norm :     0.0054141 Eh/α   predicted    -0.6600849E-04 (   6.39%)
   displ. norm   :     0.1077840 α      lambda       -0.8664414E-04
   maximum displ.:     0.0577752 α      in ANC's #2, #5, #4, ...

........................................................................
.............................. CYCLE   15 ..............................
........................................................................
   1    -21.7263999 -0.217264E+02  0.889E-02    3.07       0.0  T
   2    -21.7264003 -0.441068E-06  0.541E-02    3.07       1.0  T
   3    -21.7264005 -0.192600E-06  0.341E-03    3.07       8.5  T
   4    -21.7264005 -0.179157E-07  0.238E-03    3.07      12.1  T
   5    -21.7264006 -0.310464E-07  0.961E-04    3.07      30.1  T
     SCC iter.                  ...        0 min,  0.091 sec
     gradient                   ...        0 min,  0.001 sec
 * total energy  :   -21.5091881 Eh     change       -0.5237022E-04 Eh
   gradient norm :     0.0034222 Eh/α   predicted    -0.4382677E-04 ( -16.31%)
   displ. norm   :     0.1764766 α      lambda       -0.5834566E-04
   maximum displ.:     0.1049094 α      in ANC's #5, #2, #7, ...

........................................................................
.............................. CYCLE   16 ..............................
........................................................................
   1    -21.7260883 -0.217261E+02  0.163E-01    3.07       0.0  T
   2    -21.7260898 -0.142682E-05  0.995E-02    3.07       1.0  T
   3    -21.7260880  0.174439E-05  0.164E-02    3.07       1.8  T
   4    -21.7260909 -0.283865E-05  0.431E-03    3.07       6.7  T
   5    -21.7260909 -0.195059E-07  0.150E-03    3.07      19.2  T
   6    -21.7260909 -0.200377E-08  0.391E-04    3.07      73.9  T
   7    -21.7260909 -0.363876E-09  0.211E-04    3.07     136.6  T
     SCC iter.                  ...        0 min,  0.003 sec
     gradient                   ...        0 min,  0.001 sec
 * total energy  :   -21.5092293 Eh     change       -0.4115200E-04 Eh
   gradient norm :     0.0048378 Eh/α   predicted    -0.3008108E-04 ( -26.90%)
   displ. norm   :     0.1623880 α      lambda       -0.6084966E-04
   maximum displ.:     0.0973577 α      in ANC's #5, #2, #7, ...

........................................................................
.............................. CYCLE   17 ..............................
........................................................................
   1    -21.7268398 -0.217268E+02  0.158E-01    3.07       0.0  T
   2    -21.7268414 -0.160362E-05  0.971E-02    3.07       1.0  T
   3    -21.7268379  0.357488E-05  0.213E-02    3.07       1.4  T
   4    -21.7268428 -0.492915E-05  0.437E-03    3.07       6.6  T
   5    -21.7268428 -0.175501E-07  0.193E-03    3.07      15.0  T
   6    -21.7268428 -0.568330E-08  0.430E-04    3.07      67.2  T
     SCC iter.                  ...        0 min,  0.003 sec
     gradient                   ...        0 min,  0.001 sec
 * total energy  :   -21.5092740 Eh     change       -0.4469510E-04 Eh
   gradient norm :     0.0046262 Eh/α   predicted    -0.3122772E-04 ( -30.13%)
   displ. norm   :     0.1695967 α      lambda       -0.6852121E-04
   maximum displ.:     0.1053952 α      in ANC's #2, #5, #3, ...

........................................................................
.............................. CYCLE   18 ..............................
........................................................................
   1    -21.7275564 -0.217276E+02  0.174E-01    3.07       0.0  T
   2    -21.7275585 -0.213016E-05  0.107E-01    3.07       1.0  T
   3    -21.7275580  0.521952E-06  0.150E-02    3.07       1.9  T
   4    -21.7275602 -0.215107E-05  0.515E-03    3.07       5.6  T
   5    -21.7275602 -0.291523E-07  0.205E-03    3.07      14.1  T
   6    -21.7275602 -0.857181E-08  0.507E-04    3.07      56.9  T
     SCC iter.                  ...        0 min,  0.002 sec
     gradient                   ...        0 min,  0.001 sec
 * total energy  :   -21.5093237 Eh     change       -0.4973306E-04 Eh
   gradient norm :     0.0027644 Eh/α   predicted    -0.3524360E-04 ( -29.13%)
   displ. norm   :     0.2343187 α      lambda       -0.5387328E-04
   maximum displ.:     0.1468843 α      in ANC's #2, #5, #3, ...

........................................................................
.............................. CYCLE   19 ..............................
........................................................................
   1    -21.7262986 -0.217263E+02  0.241E-01    3.07       0.0  T
   2    -21.7263021 -0.351773E-05  0.148E-01    3.07       1.0  T
   3    -21.7263042 -0.216862E-05  0.100E-02    3.07       2.9  T
   4    -21.7263045 -0.305521E-06  0.632E-03    3.07       4.6  T
   5    -21.7263046 -0.916517E-07  0.270E-03    3.07      10.7  T
   6    -21.7263047 -0.354095E-07  0.673E-04    3.07      42.9  T
   7    -21.7263047 -0.163575E-08  0.287E-04    3.07     100.7  T
     SCC iter.                  ...        0 min,  0.003 sec
     gradient                   ...        0 min,  0.001 sec
 * total energy  :   -21.5093533 Eh     change       -0.2962350E-04 Eh
   gradient norm :     0.0051506 Eh/α   predicted    -0.2841321E-04 (  -4.09%)
   displ. norm   :     0.1167808 α      lambda       -0.7248900E-04
   maximum displ.:     0.0777304 α      in ANC's #2, #8, #3, ...

........................................................................
.............................. CYCLE   20 ..............................
........................................................................
   1    -21.7280440 -0.217280E+02  0.138E-01    3.07       0.0  T
   2    -21.7280463 -0.231681E-05  0.854E-02    3.07       1.0  T
   3    -21.7280458  0.517851E-06  0.156E-02    3.07       1.9  T
   4    -21.7280478 -0.199580E-05  0.534E-03    3.07       5.4  T
   5    -21.7280479 -0.625197E-07  0.299E-03    3.07       9.7  T
   6    -21.7280479 -0.200539E-07  0.996E-04    3.07      29.0  T
     SCC iter.                  ...        0 min,  0.002 sec
     gradient                   ...        0 min,  0.001 sec
 * total energy  :   -21.5093800 Eh     change       -0.2672880E-04 Eh
   gradient norm :     0.0031344 Eh/α   predicted    -0.3673936E-04 (  37.45%)
   displ. norm   :     0.1000574 α      lambda       -0.3065835E-04
   maximum displ.:     0.0681354 α      in ANC's #2, #5, #6, ...
 * RMSD in coord.:     0.7836239 α      energy gain  -0.1906189E-01 Eh

generating ANC from model Hessian ...
Using Lindh-Hessian (1995)
 Shifting diagonal of input Hessian by   9.996128498665019E-003
 Lowest  eigenvalues of input Hessian
   -0.000000   -0.000000    0.000000    0.000000    0.000000    0.000000
    0.010000    0.010070    0.010079    0.010175    0.010516    0.014855
    0.021477    0.023717    0.033541    0.034925    0.060533    0.067081
 Highest eigenvalues
    1.188493    1.309445    1.459633    1.727793    2.080239    2.248756
 

........................................................................
.............................. CYCLE   21 ..............................
........................................................................
   1    -21.7271272 -0.217271E+02  0.105E-01    3.07       0.0  T
   2    -21.7271279 -0.712927E-06  0.645E-02    3.07       1.0  T
   3    -21.7271270  0.911858E-06  0.119E-02    3.07       2.4  T
   4    -21.7271284 -0.147139E-05  0.306E-03    3.07       9.4  T
   5    -21.7271284 -0.891905E-08  0.128E-03    3.07      22.6  T
   6    -21.7271284 -0.249072E-08  0.367E-04    3.07      78.6  T
   7    -21.7271284 -0.456865E-09  0.143E-04    3.07     202.3  T
     SCC iter.                  ...        0 min,  0.002 sec
     gradient                   ...        0 min,  0.002 sec
 * total energy  :   -21.5094007 Eh     change       -0.2066839E-04 Eh
   gradient norm :     0.0018207 Eh/α   predicted     0.0000000E+00 (-100.00%)
   displ. norm   :     0.0425293 α      lambda       -0.1986756E-04
   maximum displ.:     0.0288376 α      in ANC's #4, #9, #6, ...

........................................................................
.............................. CYCLE   22 ..............................
........................................................................
   1    -21.7279016 -0.217279E+02  0.791E-02    3.07       0.0  T
   2    -21.7279027 -0.102514E-05  0.509E-02    3.07       1.0  T
   3    -21.7279033 -0.668945E-06  0.350E-03    3.07       8.2  T
   4    -21.7279034 -0.494418E-07  0.185E-03    3.07      15.6  T
   5    -21.7279034 -0.333904E-08  0.819E-04    3.07      35.3  T
   6    -21.7279034 -0.157155E-08  0.425E-04    3.07      67.9  T
     SCC iter.                  ...        0 min,  0.002 sec
     gradient                   ...        0 min,  0.001 sec
 * total energy  :   -21.5094209 Eh     change       -0.2022365E-04 Eh
   gradient norm :     0.0011653 Eh/α   predicted    -0.9940547E-05 ( -50.85%)
   displ. norm   :     0.1023665 α      lambda       -0.3381619E-04
   maximum displ.:     0.0738738 α      in ANC's #4, #9, #6, ...

........................................................................
.............................. CYCLE   23 ..............................
........................................................................
   1    -21.7282868 -0.217283E+02  0.189E-01    3.08       0.0  T
   2    -21.7282923 -0.546923E-05  0.121E-01    3.08       1.0  T
   3    -21.7282962 -0.394502E-05  0.727E-03    3.08       4.0  T
   4    -21.7282963 -0.638575E-07  0.445E-03    3.08       6.5  T
   5    -21.7282963 -0.274760E-07  0.140E-03    3.08      20.6  T
   6    -21.7282963 -0.136941E-07  0.493E-04    3.08      58.5  T
   7    -21.7282963 -0.209897E-08  0.128E-04    3.08     226.2  T
     SCC iter.                  ...        0 min,  0.002 sec
     gradient                   ...        0 min,  0.001 sec
 * total energy  :   -21.5094319 Eh     change       -0.1094357E-04 Eh
   gradient norm :     0.0032959 Eh/α   predicted    -0.1698744E-04 (  55.23%)
   displ. norm   :     0.0314581 α      lambda       -0.2702648E-04
   maximum displ.:     0.0246333 α      in ANC's #4, #9, #10, ...

........................................................................
.............................. CYCLE   24 ..............................
........................................................................
   1    -21.7277166 -0.217277E+02  0.309E-02    3.08       0.0  T
   2    -21.7277167 -0.149242E-06  0.194E-02    3.07       1.5  T
   3    -21.7277163  0.499482E-06  0.734E-03    3.08       3.9  T
   4    -21.7277169 -0.606993E-06  0.109E-03    3.07      26.4  T
   5    -21.7277169 -0.196926E-08  0.584E-04    3.07      49.4  T
   6    -21.7277169 -0.312525E-09  0.271E-04    3.07     106.4  T
     SCC iter.                  ...        0 min,  0.002 sec
     gradient                   ...        0 min,  0.001 sec
 * total energy  :   -21.5094521 Eh     change       -0.2025410E-04 Eh
   gradient norm :     0.0021664 Eh/α   predicted    -0.1352567E-04 ( -33.22%)
   displ. norm   :     0.0474697 α      lambda       -0.2771021E-04
   maximum displ.:     0.0391056 α      in ANC's #4, #10, #5, ...

........................................................................
.............................. CYCLE   25 ..............................
........................................................................
   1    -21.7274844 -0.217275E+02  0.407E-02    3.07       0.0  T
   2    -21.7274846 -0.183739E-06  0.249E-02    3.07       1.2  T
   3    -21.7274837  0.922135E-06  0.968E-03    3.07       3.0  T
   4    -21.7274848 -0.105354E-05  0.920E-04    3.07      31.4  T
   5    -21.7274848 -0.254859E-08  0.434E-04    3.07      66.6  T
   6    -21.7274848 -0.212715E-09  0.231E-04    3.07     125.0  T
     SCC iter.                  ...        0 min,  0.002 sec
     gradient                   ...        0 min,  0.001 sec
 * total energy  :   -21.5094706 Eh     change       -0.1841404E-04 Eh
   gradient norm :     0.0011943 Eh/α   predicted    -0.1388822E-04 ( -24.58%)
   displ. norm   :     0.0997679 α      lambda       -0.1663428E-04
   maximum displ.:     0.0824328 α      in ANC's #4, #10, #5, ...

........................................................................
.............................. CYCLE   26 ..............................
........................................................................
   1    -21.7268751 -0.217269E+02  0.892E-02    3.07       0.0  T
   2    -21.7268756 -0.546955E-06  0.552E-02    3.07       1.0  T
   3    -21.7268757 -0.180511E-07  0.630E-03    3.07       4.6  T
   4    -21.7268760 -0.355386E-06  0.266E-03    3.07      10.9  T
   5    -21.7268760 -0.882372E-08  0.699E-04    3.07      41.3  T
   6    -21.7268760 -0.911204E-09  0.249E-04    3.07     115.9  T
     SCC iter.                  ...        0 min,  0.002 sec
     gradient                   ...        0 min,  0.001 sec
 * total energy  :   -21.5094879 Eh     change       -0.1735864E-04 Eh
   gradient norm :     0.0029263 Eh/α   predicted    -0.8352948E-05 ( -51.88%)
   displ. norm   :     0.1021812 α      lambda       -0.2876807E-04
   maximum displ.:     0.0844083 α      in ANC's #4, #10, #5, ...

........................................................................
.............................. CYCLE   27 ..............................
........................................................................
   1    -21.7270355 -0.217270E+02  0.813E-02    3.07       0.0  T
   2    -21.7270358 -0.299993E-06  0.498E-02    3.07       1.0  T
   3    -21.7270359 -0.169196E-06  0.309E-03    3.07       9.4  T
   4    -21.7270360 -0.218466E-07  0.200E-03    3.07      14.4  T
   5    -21.7270360 -0.110397E-07  0.551E-04    3.07      52.3  T
   6    -21.7270360 -0.138247E-08  0.163E-04    3.07     176.8  T
     SCC iter.                  ...        0 min,  0.092 sec
     gradient                   ...        0 min,  0.001 sec
 * total energy  :   -21.5095102 Eh     change       -0.2226469E-04 Eh
   gradient norm :     0.0028363 Eh/α   predicted    -0.1453405E-04 ( -34.72%)
   displ. norm   :     0.2067552 α      lambda       -0.4581376E-04
   maximum displ.:     0.1786977 α      in ANC's #4, #5, #10, ...

........................................................................
.............................. CYCLE   28 ..............................
........................................................................
   1    -21.7262934 -0.217263E+02  0.142E-01    3.07       0.0  T
   2    -21.7262947 -0.129117E-05  0.873E-02    3.07       1.0  T
   3    -21.7262941  0.585400E-06  0.125E-02    3.07       2.3  T
   4    -21.7262957 -0.152037E-05  0.425E-03    3.07       6.8  T
   5    -21.7262957 -0.175272E-07  0.135E-03    3.07      21.4  T
   6    -21.7262957 -0.133954E-08  0.208E-04    3.07     138.5  T
   7    -21.7262957 -0.232323E-09  0.105E-04    3.07     276.1  T
     SCC iter.                  ...        0 min,  0.002 sec
     gradient                   ...        0 min,  0.001 sec
 * total energy  :   -21.5095332 Eh     change       -0.2301201E-04 Eh
   gradient norm :     0.0049211 Eh/α   predicted    -0.2388762E-04 (   3.81%)
   displ. norm   :     0.1244463 α      lambda       -0.5903463E-04
   maximum displ.:     0.1004794 α      in ANC's #4, #3, #5, ...

........................................................................
.............................. CYCLE   29 ..............................
........................................................................
   1    -21.7279515 -0.217280E+02  0.503E-02    3.07       0.0  T
   2    -21.7279518 -0.375391E-06  0.305E-02    3.07       1.0  T
   3    -21.7279503  0.152989E-05  0.128E-02    3.07       2.2  T
   4    -21.7279521 -0.178883E-05  0.172E-03    3.07      16.8  T
   5    -21.7279521 -0.820351E-08  0.732E-04    3.07      39.5  T
     SCC iter.                  ...        0 min,  0.091 sec
     gradient                   ...        0 min,  0.003 sec
 * total energy  :   -21.5095643 Eh     change       -0.3109112E-04 Eh
   gradient norm :     0.0016127 Eh/α   predicted    -0.2997480E-04 (  -3.59%)
   displ. norm   :     0.3240839 α      lambda       -0.3865040E-04
   maximum displ.:     0.2762245 α      in ANC's #4, #5, #3, ...

........................................................................
.............................. CYCLE   30 ..............................
........................................................................
   1    -21.7266134 -0.217266E+02  0.222E-01    3.07       0.0  T
   2    -21.7266195 -0.603990E-05  0.140E-01    3.07       1.0  T
   3    -21.7266215 -0.203565E-05  0.170E-02    3.07       1.7  T
   4    -21.7266235 -0.202630E-05  0.825E-03    3.07       3.5  T
   5    -21.7266237 -0.175201E-06  0.306E-03    3.07       9.4  T
   6    -21.7266237 -0.800101E-08  0.381E-04    3.07      75.7  T
   7    -21.7266237 -0.623483E-09  0.189E-04    3.07     152.7  T
     SCC iter.                  ...        0 min,  0.002 sec
     gradient                   ...        0 min,  0.092 sec
 * total energy  :   -21.5095803 Eh     change       -0.1599153E-04 Eh
   gradient norm :     0.0068196 Eh/α   predicted    -0.2022506E-04 (  26.47%)
   displ. norm   :     0.0735288 α      lambda       -0.6457946E-04
   maximum displ.:     0.0651409 α      in ANC's #4, #3, #10, ...

........................................................................
.............................. CYCLE   31 ..............................
........................................................................
   1    -21.7270934 -0.217271E+02  0.368E-02    3.07       0.0  T
   2    -21.7270941 -0.693821E-06  0.221E-02    3.07       1.3  T
   3    -21.7270942 -0.924000E-07  0.518E-03    3.07       5.6  T
   4    -21.7270942 -0.273147E-07  0.315E-03    3.07       9.2  T
   5    -21.7270943 -0.861460E-07  0.103E-03    3.07      28.0  T
   6    -21.7270943 -0.186653E-08  0.382E-04    3.07      75.6  T
     SCC iter.                  ...        0 min,  0.002 sec
     gradient                   ...        0 min,  0.001 sec
 * total energy  :   -21.5096171 Eh     change       -0.3682921E-04 Eh
   gradient norm :     0.0040445 Eh/α   predicted    -0.3246273E-04 ( -11.86%)
   displ. norm   :     0.0631073 α      lambda       -0.6445368E-04
   maximum displ.:     0.0384484 α      in ANC's #3, #10, #2, ...

........................................................................
.............................. CYCLE   32 ..............................
........................................................................
   1    -21.7292073 -0.217292E+02  0.847E-02    3.07       0.0  T
   2    -21.7292081 -0.818256E-06  0.531E-02    3.07       1.0  T
   3    -21.7292077  0.399965E-06  0.974E-03    3.07       3.0  T
   4    -21.7292087 -0.956049E-06  0.296E-03    3.07       9.8  T
   5    -21.7292087 -0.213177E-07  0.127E-03    3.07      22.7  T
     SCC iter.                  ...        0 min,  0.002 sec
     gradient                   ...        0 min,  0.001 sec
 * total energy  :   -21.5096149 Eh     change        0.2232681E-05 Eh
   gradient norm :     0.0052944 Eh/α   predicted    -0.3235460E-04 (*******%)
   displ. norm   :     0.1550936 α      lambda       -0.5710888E-04
   maximum displ.:     0.1373409 α      in ANC's #4, #5, #3, ...

........................................................................
.............................. CYCLE   33 ..............................
........................................................................
   1    -21.7279353 -0.217279E+02  0.717E-02    3.07       0.0  T
   2    -21.7279356 -0.309273E-06  0.439E-02    3.07       1.0  T
   3    -21.7279358 -0.153728E-06  0.322E-03    3.07       9.0  T
   4    -21.7279358 -0.335901E-07  0.214E-03    3.07      13.5  T
   5    -21.7279359 -0.173733E-07  0.562E-04    3.07      51.4  T
     SCC iter.                  ...        0 min,  0.002 sec
     gradient                   ...        0 min,  0.001 sec
 * total energy  :   -21.5096539 Eh     change       -0.3904286E-04 Eh
   gradient norm :     0.0023841 Eh/α   predicted    -0.2923899E-04 ( -25.11%)
   displ. norm   :     0.2043080 α      lambda       -0.2352306E-04
   maximum displ.:     0.1780239 α      in ANC's #4, #3, #5, ...

........................................................................
.............................. CYCLE   34 ..............................
........................................................................
   1    -21.7270272 -0.217270E+02  0.905E-02    3.07       0.0  T
   2    -21.7270283 -0.108773E-05  0.570E-02    3.07       1.0  T
   3    -21.7270288 -0.510205E-06  0.622E-03    3.07       4.6  T
   4    -21.7270290 -0.252468E-06  0.346E-03    3.07       8.3  T
   5    -21.7270291 -0.293161E-07  0.784E-04    3.07      36.8  T
   6    -21.7270291 -0.789399E-09  0.247E-04    3.07     116.8  T
     SCC iter.                  ...        0 min,  0.002 sec
     gradient                   ...        0 min,  0.001 sec
 * total energy  :   -21.5096633 Eh     change       -0.9414078E-05 Eh
   gradient norm :     0.0036124 Eh/α   predicted    -0.1225216E-04 (  30.15%)
   displ. norm   :     0.0267143 α      lambda       -0.1969646E-04
   maximum displ.:     0.0179725 α      in ANC's #6, #2, #3, ...

........................................................................
.............................. CYCLE   35 ..............................
........................................................................
   1    -21.7275991 -0.217276E+02  0.248E-02    3.07       0.0  T
   2    -21.7275991 -0.859319E-07  0.152E-02    3.07       1.9  T
   3    -21.7275988  0.367437E-06  0.645E-03    3.07       4.5  T
   4    -21.7275992 -0.433186E-06  0.854E-04    3.07      33.8  T
   5    -21.7275992 -0.220990E-08  0.433E-04    3.07      66.7  T
     SCC iter.                  ...        0 min,  0.002 sec
     gradient                   ...        0 min,  0.002 sec
 * total energy  :   -21.5096778 Eh     change       -0.1445416E-04 Eh
   gradient norm :     0.0016749 Eh/α   predicted    -0.9856236E-05 ( -31.81%)
   displ. norm   :     0.1900299 α      lambda       -0.2209217E-04
   maximum displ.:     0.1376125 α      in ANC's #4, #2, #5, ...

........................................................................
.............................. CYCLE   36 ..............................
........................................................................
   1    -21.7280878 -0.217281E+02  0.129E-01    3.07       0.0  T
   2    -21.7280902 -0.240359E-05  0.818E-02    3.07       1.0  T
   3    -21.7280912 -0.941320E-06  0.976E-03    3.07       3.0  T
   4    -21.7280920 -0.849203E-06  0.437E-03    3.07       6.6  T
   5    -21.7280921 -0.401019E-07  0.121E-03    3.07      23.9  T
   6    -21.7280921 -0.148697E-08  0.325E-04    3.07      88.8  T
   7    -21.7280921 -0.518558E-09  0.187E-04    3.07     154.3  T
     SCC iter.                  ...        0 min,  0.002 sec
     gradient                   ...        0 min,  0.091 sec
 * total energy  :   -21.5096959 Eh     change       -0.1811278E-04 Eh
   gradient norm :     0.0016586 Eh/α   predicted    -0.1122251E-04 ( -38.04%)
   displ. norm   :     0.0846020 α      lambda       -0.1028843E-04
   maximum displ.:     0.0577153 α      in ANC's #2, #4, #5, ...

........................................................................
.............................. CYCLE   37 ..............................
........................................................................
   1    -21.7278802 -0.217279E+02  0.610E-02    3.07       0.0  T
   2    -21.7278807 -0.447701E-06  0.383E-02    3.07       1.0  T
   3    -21.7278806  0.460102E-07  0.646E-03    3.07       4.5  T
   4    -21.7278810 -0.385240E-06  0.212E-03    3.07      13.6  T
   5    -21.7278810 -0.443959E-08  0.729E-04    3.07      39.6  T
   6    -21.7278810 -0.832170E-09  0.195E-04    3.07     147.8  T
     SCC iter.                  ...        0 min,  0.002 sec
     gradient                   ...        0 min,  0.002 sec
 * total energy  :   -21.5097099 Eh     change       -0.1398965E-04 Eh
   gradient norm :     0.0014339 Eh/α   predicted    -0.5161804E-05 ( -63.10%)
   displ. norm   :     0.5151401 α      lambda       -0.7382572E-04
   maximum displ.:     0.4104351 α      in ANC's #2, #5, #6, ...

........................................................................
.............................. CYCLE   38 ..............................
........................................................................
   1    -21.7251606 -0.217252E+02  0.373E-01    3.06       0.0  T
   2    -21.7251731 -0.124997E-04  0.230E-01    3.07       1.0  T
   3    -21.7251484  0.246254E-04  0.585E-02    3.06       1.0  T
   4    -21.7251833 -0.348730E-04  0.122E-02    3.07       2.4  T
   5    -21.7251834 -0.111743E-06  0.585E-03    3.07       4.9  T
   6    -21.7251835 -0.562366E-07  0.174E-03    3.07      16.6  T
   7    -21.7251835 -0.161679E-07  0.713E-04    3.07      40.5  T
   8    -21.7251835 -0.154618E-08  0.314E-04    3.07      92.0  T
     SCC iter.                  ...        0 min,  0.092 sec
     gradient                   ...        0 min,  0.001 sec
 * total energy  :   -21.5097390 Eh     change       -0.2908588E-04 Eh
   gradient norm :     0.0066719 Eh/α   predicted    -0.4126940E-04 (  41.89%)
   displ. norm   :     0.1314145 α      lambda       -0.6888060E-04
   maximum displ.:     0.0938473 α      in ANC's #4, #2, #5, ...

........................................................................
.............................. CYCLE   39 ..............................
........................................................................
   1    -21.7269901 -0.217270E+02  0.880E-02    3.08       0.0  T
   2    -21.7269915 -0.144437E-05  0.562E-02    3.07       1.0  T
   3    -21.7269890  0.255239E-05  0.193E-02    3.08       1.5  T
   4    -21.7269927 -0.372223E-05  0.295E-03    3.07       9.8  T
   5    -21.7269927 -0.115905E-07  0.156E-03    3.07      18.5  T
   6    -21.7269927 -0.530506E-08  0.517E-04    3.07      55.9  T
     SCC iter.                  ...        0 min,  0.002 sec
     gradient                   ...        0 min,  0.001 sec
 * total energy  :   -21.5097783 Eh     change       -0.3931716E-04 Eh
   gradient norm :     0.0035183 Eh/α   predicted    -0.3503544E-04 ( -10.89%)
   displ. norm   :     0.0793382 α      lambda       -0.4369882E-04
   maximum displ.:     0.0491282 α      in ANC's #4, #2, #5, ...

........................................................................
.............................. CYCLE   40 ..............................
........................................................................
   1    -21.7274974 -0.217275E+02  0.644E-02    3.08       0.0  T
   2    -21.7274985 -0.110745E-05  0.404E-02    3.07       1.0  T
   3    -21.7274947  0.380744E-05  0.235E-02    3.08       1.2  T
   4    -21.7274995 -0.480371E-05  0.246E-03    3.07      11.8  T
   5    -21.7274995 -0.177124E-07  0.122E-03    3.07      23.7  T
   6    -21.7274995 -0.287724E-09  0.358E-04    3.07      80.7  T
   7    -21.7274995 -0.468738E-09  0.825E-05    3.07     350.0  T
     SCC iter.                  ...        0 min,  0.092 sec
     gradient                   ...        0 min,  0.001 sec
 * total energy  :   -21.5098110 Eh     change       -0.3276319E-04 Eh
   gradient norm :     0.0028323 Eh/α   predicted    -0.2198792E-04 ( -32.89%)
   displ. norm   :     0.2996605 α      lambda       -0.8453302E-04
   maximum displ.:     0.2448132 α      in ANC's #2, #5, #3, ...

........................................................................
.............................. CYCLE   41 ..............................
........................................................................
   1    -21.7271908 -0.217272E+02  0.180E-01    3.07       0.0  T
   2    -21.7271930 -0.217806E-05  0.110E-01    3.07       1.0  T
   3    -21.7271905  0.245545E-05  0.189E-02    3.07       1.5  T
   4    -21.7271943 -0.381900E-05  0.553E-03    3.07       5.2  T
   5    -21.7271944 -0.707778E-07  0.255E-03    3.07      11.3  T
   6    -21.7271944 -0.572809E-08  0.695E-04    3.07      41.5  T
   7    -21.7271944 -0.141900E-08  0.273E-04    3.07     105.6  T
     SCC iter.                  ...        0 min,  0.002 sec
     gradient                   ...        0 min,  0.001 sec
 * total energy  :   -21.5098742 Eh     change       -0.6315162E-04 Eh
   gradient norm :     0.0030860 Eh/α   predicted    -0.4606227E-04 ( -27.06%)
   displ. norm   :     0.3704106 α      lambda       -0.6316292E-04
   maximum displ.:     0.3160607 α      in ANC's #2, #5, #3, ...

........................................................................
.............................. CYCLE   42 ..............................
........................................................................
   1    -21.7257576 -0.217258E+02  0.226E-01    3.06       0.0  T
   2    -21.7257604 -0.282878E-05  0.138E-01    3.07       1.0  T
   3    -21.7257618 -0.135534E-05  0.113E-02    3.06       2.6  T
   4    -21.7257623 -0.545423E-06  0.608E-03    3.07       4.8  T
   5    -21.7257623 -0.262938E-07  0.277E-03    3.07      10.4  T
   6    -21.7257624 -0.527388E-07  0.729E-04    3.07      39.6  T
   7    -21.7257624 -0.124669E-08  0.355E-04    3.07      81.2  T
     SCC iter.                  ...        0 min,  0.002 sec
     gradient                   ...        0 min,  0.001 sec
 * total energy  :   -21.5099059 Eh     change       -0.3168113E-04 Eh
   gradient norm :     0.0058523 Eh/α   predicted    -0.3592172E-04 (  13.39%)
   displ. norm   :     0.0353856 α      lambda       -0.3634864E-04
   maximum displ.:     0.0229475 α      in ANC's #4, #2, #1, ...
 * RMSD in coord.:     0.6527671 α      energy gain  -0.5258308E-03 Eh

generating ANC from model Hessian ...
Using Lindh-Hessian (1995)
 Shifting diagonal of input Hessian by   1.005520584790921E-002
 Lowest  eigenvalues of input Hessian
    0.010000   -0.000000   -0.000000   -0.000000    0.000000    0.000000
    0.000000    0.010103    0.010310    0.010463    0.010975    0.014903
    0.021610    0.023793    0.033629    0.034713    0.060210    0.067070
 Highest eigenvalues
    1.184711    1.305595    1.459671    1.727172    2.080380    2.248467
 

........................................................................
.............................. CYCLE   43 ..............................
........................................................................
   1    -21.7274510 -0.217275E+02  0.263E-02    3.07       0.0  T
   2    -21.7274511 -0.151472E-06  0.164E-02    3.07       1.8  T
   3    -21.7274510  0.145688E-06  0.532E-03    3.07       5.4  T
   4    -21.7274512 -0.211130E-06  0.119E-03    3.07      24.2  T
   5    -21.7274512 -0.681154E-08  0.661E-04    3.07      43.7  T
   6    -21.7274512 -0.138120E-08  0.275E-04    3.07     105.1  T
     SCC iter.                  ...        0 min,  0.002 sec
     gradient                   ...        0 min,  0.001 sec
 * total energy  :   -21.5099256 Eh     change       -0.1976317E-04 Eh
   gradient norm :     0.0030980 Eh/α   predicted     0.0000000E+00 (-100.00%)
   displ. norm   :     0.0521392 α      lambda       -0.4022747E-04
   maximum displ.:     0.0496054 α      in ANC's #1, #7, #10, ...

........................................................................
.............................. CYCLE   44 ..............................
........................................................................
   1    -21.7277801 -0.217278E+02  0.279E-02    3.07       0.0  T
   2    -21.7277802 -0.175612E-06  0.174E-02    3.07       1.7  T
   3    -21.7277802 -0.485384E-08  0.338E-03    3.07       8.5  T
   4    -21.7277803 -0.729318E-07  0.143E-03    3.07      20.1  T
   5    -21.7277803 -0.101450E-07  0.686E-04    3.07      42.1  T
   6    -21.7277803 -0.112973E-08  0.354E-04    3.07      81.6  T
     SCC iter.                  ...        0 min,  0.002 sec
     gradient                   ...        0 min,  0.001 sec
 * total energy  :   -21.5099586 Eh     change       -0.3297387E-04 Eh
   gradient norm :     0.0012470 Eh/α   predicted    -0.2016808E-04 ( -38.84%)
   displ. norm   :     0.1126367 α      lambda       -0.4553724E-04
   maximum displ.:     0.0971818 α      in ANC's #1, #7, #9, ...

........................................................................
.............................. CYCLE   45 ..............................
........................................................................
   1    -21.7276379 -0.217276E+02  0.574E-02    3.07       0.0  T
   2    -21.7276384 -0.544916E-06  0.353E-02    3.07       1.0  T
   3    -21.7276380  0.404160E-06  0.867E-03    3.08       3.3  T
   4    -21.7276387 -0.658340E-06  0.259E-03    3.07      11.2  T
   5    -21.7276387 -0.320263E-07  0.119E-03    3.07      24.3  T
   6    -21.7276387 -0.189242E-08  0.590E-04    3.07      49.0  T
   7    -21.7276387 -0.104774E-08  0.164E-04    3.07     176.4  T
     SCC iter.                  ...        0 min,  0.003 sec
     gradient                   ...        0 min,  0.001 sec
 * total energy  :   -21.5099825 Eh     change       -0.2389421E-04 Eh
   gradient norm :     0.0052766 Eh/α   predicted    -0.2289806E-04 (  -4.17%)
   displ. norm   :     0.0277774 α      lambda       -0.3563872E-04
   maximum displ.:     0.0176226 α      in ANC's #1, #3, #10, ...

........................................................................
.............................. CYCLE   46 ..............................
........................................................................
   1    -21.7278055 -0.217278E+02  0.355E-02    3.07       0.0  T
   2    -21.7278056 -0.162873E-06  0.220E-02    3.07       1.3  T
   3    -21.7278056  0.219471E-07  0.366E-03    3.07       7.9  T
   4    -21.7278057 -0.124583E-06  0.139E-03    3.07      20.8  T
   5    -21.7278057 -0.561528E-08  0.736E-04    3.07      39.2  T
     SCC iter.                  ...        0 min,  0.002 sec
     gradient                   ...        0 min,  0.001 sec
 * total energy  :   -21.5100091 Eh     change       -0.2662432E-04 Eh
   gradient norm :     0.0031648 Eh/α   predicted    -0.1783320E-04 ( -33.02%)
   displ. norm   :     0.0585619 α      lambda       -0.3290272E-04
   maximum displ.:     0.0362300 α      in ANC's #1, #6, #3, ...

........................................................................
.............................. CYCLE   47 ..............................
........................................................................
   1    -21.7280772 -0.217281E+02  0.585E-02    3.07       0.0  T
   2    -21.7280775 -0.334442E-06  0.360E-02    3.07       1.0  T
   3    -21.7280776 -0.894510E-07  0.417E-03    3.07       6.9  T
   4    -21.7280777 -0.125068E-06  0.210E-03    3.07      13.7  T
   5    -21.7280777 -0.133278E-07  0.991E-04    3.07      29.1  T
   6    -21.7280777 -0.172530E-08  0.331E-04    3.07      87.3  T
     SCC iter.                  ...        0 min,  0.001 sec
     gradient                   ...        0 min,  0.001 sec
 * total energy  :   -21.5100310 Eh     change       -0.2188054E-04 Eh
   gradient norm :     0.0007813 Eh/α   predicted    -0.1650568E-04 ( -24.56%)
   displ. norm   :     0.1488147 α      lambda       -0.2313271E-04
   maximum displ.:     0.1134974 α      in ANC's #1, #6, #3, ...

........................................................................
.............................. CYCLE   48 ..............................
........................................................................
   1    -21.7263822 -0.217264E+02  0.115E-01    3.07       0.0  T
   2    -21.7263834 -0.111538E-05  0.707E-02    3.07       1.0  T
   3    -21.7263837 -0.320907E-06  0.761E-03    3.07       3.8  T
   4    -21.7263841 -0.414780E-06  0.386E-03    3.07       7.5  T
   5    -21.7263841 -0.413897E-07  0.181E-03    3.07      16.0  T
   6    -21.7263841 -0.558869E-08  0.535E-04    3.07      53.9  T
   7    -21.7263841 -0.998430E-09  0.137E-04    3.07     210.4  T
     SCC iter.                  ...        0 min,  0.092 sec
     gradient                   ...        0 min,  0.001 sec
 * total energy  :   -21.5100270 Eh     change        0.4004414E-05 Eh
   gradient norm :     0.0052846 Eh/α   predicted    -0.1167910E-04 (-391.66%)
   displ. norm   :     0.0261711 α      lambda       -0.4403491E-04
   maximum displ.:     0.0220837 α      in ANC's #1, #4, #6, ...

........................................................................
.............................. CYCLE   49 ..............................
........................................................................
   1    -21.7276592 -0.217277E+02  0.183E-02    3.07       0.0  T
   2    -21.7276593 -0.106400E-06  0.113E-02    3.07       2.6  T
   3    -21.7276591  0.138531E-06  0.437E-03    3.07       6.6  T
   4    -21.7276593 -0.179997E-06  0.100E-03    3.07      28.8  T
   5    -21.7276593 -0.536908E-08  0.451E-04    3.07      64.0  T
     SCC iter.                  ...        0 min,  0.001 sec
     gradient                   ...        0 min,  0.001 sec
 * total energy  :   -21.5100515 Eh     change       -0.2447995E-04 Eh
   gradient norm :     0.0017730 Eh/α   predicted    -0.2203182E-04 ( -10.00%)
   displ. norm   :     0.0311867 α      lambda       -0.5871669E-05
   maximum displ.:     0.0164022 α      in ANC's #3, #1, #6, ...

........................................................................
.............................. CYCLE   50 ..............................
........................................................................
   1    -21.7281929 -0.217282E+02  0.217E-02    3.07       0.0  T
   2    -21.7281930 -0.641738E-07  0.132E-02    3.07       2.2  T
   3    -21.7281929  0.587987E-07  0.274E-03    3.07      10.6  T
   4    -21.7281930 -0.763983E-07  0.862E-04    3.07      33.5  T
   5    -21.7281930 -0.413006E-08  0.390E-04    3.07      74.0  T
     SCC iter.                  ...        0 min,  0.091 sec
     gradient                   ...        0 min,  0.001 sec
 * total energy  :   -21.5100570 Eh     change       -0.5548207E-05 Eh
   gradient norm :     0.0004594 Eh/α   predicted    -0.2937968E-05 ( -47.05%)
   displ. norm   :     0.0523657 α      lambda       -0.3806489E-05
   maximum displ.:     0.0297317 α      in ANC's #1, #3, #2, ...

........................................................................
.............................. CYCLE   51 ..............................
........................................................................
   1    -21.7281419 -0.217281E+02  0.368E-02    3.07       0.0  T
   2    -21.7281420 -0.569477E-07  0.223E-02    3.07       1.3  T
   3    -21.7281420 -0.374431E-07  0.132E-03    3.07      21.8  T
   4    -21.7281420  0.810729E-11  0.964E-04    3.07      30.0  T
   5    -21.7281420 -0.443779E-08  0.193E-04    3.07     149.6  T
     SCC iter.                  ...        0 min,  0.001 sec
     gradient                   ...        0 min,  0.001 sec
 * total energy  :   -21.5100613 Eh     change       -0.4268285E-05 Eh
   gradient norm :     0.0004354 Eh/α   predicted    -0.1906431E-05 ( -55.33%)
   displ. norm   :     0.0663136 α      lambda       -0.3449387E-05
   maximum displ.:     0.0379635 α      in ANC's #3, #1, #2, ...

   *** GEOMETRY OPTIMIZATION CONVERGED AFTER 51 ITERATIONS ***

------------------------------------------------------------------------
 total energy gain   :        -0.0197432 Eh      -12.3890 kcal/mol
 total RMSD          :         0.6199739 a0        0.3281 Å
 total power (kW/mol):        -1.0163850 (step)  -17.3171 (real)
------------------------------------------------------------------------

 ANCopt (total)                0 d,  0 h,  0 min,  2.993 sec
 optimizer setup                ...        0 min,  0.000 sec (  0.010%)
 model hessian                  ...        0 min,  0.087 sec (  2.917%)
 ANC generation                 ...        0 min,  0.001 sec (  0.034%)
 coordinate transformation      ...        0 min,  0.002 sec (  0.070%)
 single point calculation       ...        0 min,  2.793 sec ( 93.301%)
 optimization log               ...        0 min,  0.004 sec (  0.141%)
 hessian update                 ...        0 min,  0.094 sec (  3.152%)
 rational function              ...        0 min,  0.004 sec (  0.122%)

================
 final structure:
================
12
 xtb: 6.2.3 (830e466)
C         1.67750413534446    1.35449250508241   -1.33656622247595
C         1.14675808544200    0.12340345917871   -1.36206322192740
C         1.89574971015659   -0.99548697865240   -0.81670216205467
O         1.03140169561488    2.41626554477085   -1.82033963303191
O         1.79154381954601    3.60758848290093   -1.67851316720679
O         2.99899937781828   -0.93289694622601   -0.33031091075105
H         1.22041246517245    4.28020378167537   -2.07602020689263
H         2.66101485910001    1.53073048090408   -0.91569288308252
H        -2.15665513670695    1.97973597157407   -2.62233146715886
H         1.35741398490010   -1.95980449482029   -0.87887196460722
H         0.16936040645825   -0.05863312577103   -1.77828396203537
H        -1.40450340284901    1.99400131937996   -2.42010419877800
 
 Bond Distances (Angstroems)
 ---------------------------
C1-C2=1.3409         C1-O4=1.3337         C1-H8=1.0842         C2-C1=1.3409         C2-C3=1.4527         C2-H11=1.0778        
C3-C2=1.4527         C3-O6=1.2073         C3-H10=1.1062        O4-C1=1.3337         O4-O5=1.4203         O5-O4=1.4203         
O5-H7=0.9678         O6-C3=1.2073         H7-O5=0.9678         H8-C1=1.0842         H9-H12=0.7790        H10-C3=1.1062        
H11-C2=1.0778        H12-H9=0.7790        
 H  H  Rav=0.7790 sigma=0.0000  Rmin=0.7790  Rmax=0.7790     1
 C  H  Rav=1.0894 sigma=0.0121  Rmin=1.0778  Rmax=1.1062     3
 C  C  Rav=1.3968 sigma=0.0559  Rmin=1.3409  Rmax=1.4527     2
 O  H  Rav=0.9678 sigma=0.0000  Rmin=0.9678  Rmax=0.9678     1
 O  C  Rav=1.2705 sigma=0.0632  Rmin=1.2073  Rmax=1.3337     2
 O  O  Rav=1.4203 sigma=0.0000  Rmin=1.4203  Rmax=1.4203     1
 
 selected bond angles (degree)
 --------------------
O4-C1-C2=122.16                H8-C1-C2=121.04                H8-C1-O4=116.80                C3-C2-C1=119.73                
H11-C2-C1=121.42               H11-C2-C3=118.84               O6-C3-C2=125.62                H10-C3-C2=113.54               
H10-C3-O6=120.83               O5-O4-C1=111.86                H7-O5-O4=103.07                
 
 selected dihedral angles (degree)
 ---------------------------------
C3-C2-C1-O4=180.18            C3-C2-C1-H8=  0.10            H11-C2-C1-O4=  0.03           H11-C2-C1-H8=179.95           
O6-C3-C2-C1=359.38            O6-C3-C2-H11=179.52           H10-C3-C2-C1=179.27           H10-C3-C2-H11=359.41          
O5-O4-C1-C2=179.84            O5-O4-C1-H8=359.91            H7-O5-O4-C1=179.10            
 
 CMA Distance (Angstroems)
 ---------------------------
R(CMA):  3.8871
           -------------------------------------------------
          |                Final Singlepoint                |
           -------------------------------------------------

          ...................................................
          :                      SETUP                      :
          :.................................................:
          :  # basis functions                  30          :
          :  # atomic orbitals                  30          :
          :  # shells                           18          :
          :  # electrons                        36          :
          :  max. iterations                   100          :
          :  Hamiltonian                  GFN2-xTB          :
          :  restarted?                      false          :
          :  GBSA solvation                  false          :
          :  PC potential                    false          :
          :  electronic temp.          300.0000000     K    :
          :  accuracy                    1.0000000          :
          :  -> integral cutoff          0.2500000E+02      :
          :  -> integral neglect         0.1000000E-07      :
          :  -> SCF convergence          0.1000000E-05 Eh   :
          :  -> wf. convergence          0.1000000E-03 e    :
          :  Broyden damping             0.4000000          :
          ...................................................

 iter      E             dE          RMSdq      gap      omega  full diag
   1    -21.7281420 -0.217281E+02  0.512E-05    3.07       0.0  T
   2    -21.7281420 -0.347455E-11  0.304E-05    3.07     950.9  T
   3    -21.7281420 -0.122924E-11  0.129E-05    3.07    2236.6  T

   *** convergence criteria satisfied after 3 iterations ***

         #    Occupation            Energy/Eh            Energy/eV
      -------------------------------------------------------------
         1        2.0000           -0.7724195             -21.0186
       ...           ...                  ...                  ...
        12        2.0000           -0.5320170             -14.4769
        13        2.0000           -0.5186335             -14.1127
        14        2.0000           -0.4951016             -13.4724
        15        2.0000           -0.4797543             -13.0548
        16        2.0000           -0.4678159             -12.7299
        17        2.0000           -0.4185183             -11.3885
        18        2.0000           -0.4023754             -10.9492 (HOMO)
        19                         -0.2894854              -7.8773 (LUMO)
        20                         -0.1926311              -5.2418
        21                         -0.1782142              -4.8495
        22                          0.0939625               2.5568
        23                          0.0961238               2.6157
       ...                                ...                  ...
        30                          0.6559468              17.8492
      -------------------------------------------------------------
                  HL-Gap            0.1128900 Eh            3.0719 eV
             Fermi-level           -0.3459304 Eh           -9.4132 eV

 SCC (total)                   0 d,  0 h,  0 min,  0.093 sec
 SCC setup                      ...        0 min,  0.000 sec (  0.108%)
 Dispersion                     ...        0 min,  0.000 sec (  0.043%)
 integral evaluation            ...        0 min,  0.001 sec (  0.824%)
 zeroth order Hamiltonian       ...        0 min,  0.000 sec (  0.118%)
 iterations                     ...        0 min,  0.001 sec (  1.126%)
 molecular gradient             ...        0 min,  0.001 sec (  1.148%)
 printout                       ...        0 min,  0.000 sec (  0.212%)

         :::::::::::::::::::::::::::::::::::::::::::::::::::::
         ::                     SUMMARY                     ::
         :::::::::::::::::::::::::::::::::::::::::::::::::::::
         :: total energy             -21.510061298070 Eh    ::
         :: gradient norm              0.000435896686 Eh/a0 ::
         :: HOMO-LUMO gap              3.071893170829 eV    ::
         ::.................................................::
         :: SCC energy               -21.728142022402 Eh    ::
         :: -> isotropic ES            0.042806099437 Eh    ::
         :: -> anisotropic ES          0.005886257299 Eh    ::
         :: -> anisotropic XC          0.004897949210 Eh    ::
         :: -> dispersion             -0.005469269557 Eh    ::
         :: repulsion energy           0.218078645915 Eh    ::
         :: add. restraining           0.000000000000 Eh    ::
         :::::::::::::::::::::::::::::::::::::::::::::::::::::

           -------------------------------------------------
          |                Property Printout                |
           -------------------------------------------------

    * Orbital Energies and Occupations

         #    Occupation            Energy/Eh            Energy/eV
      -------------------------------------------------------------
         1        2.0000           -0.7724195             -21.0186
       ...           ...                  ...                  ...
         6        2.0000           -0.6412326             -17.4488
         7        2.0000           -0.6092453             -16.5784
         8        2.0000           -0.6025982             -16.3975
         9        2.0000           -0.5748571             -15.6427
        10        2.0000           -0.5537510             -15.0683
        11        2.0000           -0.5353339             -14.5672
        12        2.0000           -0.5320170             -14.4769
        13        2.0000           -0.5186335             -14.1127
        14        2.0000           -0.4951016             -13.4724
        15        2.0000           -0.4797543             -13.0548
        16        2.0000           -0.4678159             -12.7299
        17        2.0000           -0.4185183             -11.3885
        18        2.0000           -0.4023754             -10.9492 (HOMO)
        19                         -0.2894854              -7.8773 (LUMO)
        20                         -0.1926311              -5.2418
        21                         -0.1782142              -4.8495
        22                          0.0939625               2.5568
        23                          0.0961238               2.6157
        24                          0.1045762               2.8457
        25                          0.1404239               3.8211
        26                          0.1833615               4.9895
        27                          0.2055364               5.5929
        28                          0.4244383              11.5496
        29                          0.4782238              13.0131
        30                          0.6559468              17.8492
      -------------------------------------------------------------
                  HL-Gap            0.1128900 Eh            3.0719 eV
             Fermi-level           -0.3459304 Eh           -9.4132 eV

     #   Z        covCN         q      C6AA      α(0)
     1   6 C      2.778     0.136    25.017     8.192
     2   6 C      2.888    -0.097    30.434     9.044
     3   6 C      2.770     0.207    23.611     7.958
     4   8 O      1.787    -0.116    16.051     5.410
     5   8 O      1.740    -0.300    18.986     5.883
     6   8 O      0.857    -0.348    20.675     6.096
     7   1 H      0.805     0.334     0.628     1.245
     8   1 H      0.925     0.101     1.775     2.084
     9   1 H      0.807    -0.004     3.191     2.806
    10   1 H      0.922     0.021     2.725     2.582
    11   1 H      0.926     0.064     2.150     2.293
    12   1 H      0.807     0.004     3.048     2.742

 Mol. C6AA /au·bohr⁶  :       1363.283937
 Mol. C8AA /au·bohr⁸  :      29098.525003
 Mol. α(0) /au        :         56.335339


Wiberg/Mayer (AO) data.
largest (>0.10) Wiberg bond orders for each atom
          total WBO             WBO to atom ...
     1  C   3.915        C    2 1.695    O    4 1.136    H    8 0.944
     2  C   3.976        C    1 1.695    C    3 1.108    H   11 0.964    O    4 0.105
     3  C   3.938        O    6 1.834    C    2 1.108    H   10 0.933
     4  O   2.275        C    1 1.136    O    5 0.963    C    2 0.105
     5  O   1.916        O    4 0.963    H    7 0.881
     6  O   2.072        C    3 1.834
     7  H   0.889        O    5 0.881
     8  H   0.990        C    1 0.944
     9  H   1.000        H   12 0.996
    10  H   0.998        C    3 0.933
    11  H   0.996        C    2 0.964
    12  H   1.000        H    9 0.996

molecular dipole:
                 x           y           z       tot (Debye)
 q only:       -0.894       0.878      -0.572
   full:       -1.165       0.998      -0.719       4.306
molecular quadrupole (traceless):
                xx          xy          yy          xz          yz          zz
 q only:      -11.819       4.061       9.460      -0.840      -4.814       2.360
  q+dip:      -14.063       4.291      11.291      -0.369      -5.862       2.772
   full:      -15.024       4.110      11.282      -1.264      -5.683       3.742

           -------------------------------------------------
          |                Geometry Summary                 |
           -------------------------------------------------

      molecular mass/u    :       90.0780670
   center of mass at/Å    :        1.6840968       1.0554653      -1.2684804
  moments of inertia/u·Å² :        0.5910996E+02   0.3185318E+03   0.3771306E+03
rotational constants/cm⁻¹ :        0.2851910E+00   0.5292292E-01   0.4469972E-01

 * 8 selected distances

     #   Z        #   Z                                     value/Å
     1   6 C      2   6 C                                 1.3408660
     1   6 C      4   8 O                                 1.3337343
     4   8 O      5   8 O                                 1.4202750 (max)
     3   6 C      6   8 O                                 1.2073333
     5   8 O      7   1 H                                 0.9677883
     1   6 C      8   1 H                                 1.0841990
     2   6 C     11   1 H                                 1.0778141
     9   1 H     12   1 H                                 0.7789940 (min)

 * 6 distinct bonds (by element types)

   Z      Z             #   av. dist./Å        max./Å        min./Å
   1 H    1 H           1     0.7789940     0.7789940     0.7789940
   1 H    6 C           2     1.0810066     1.0841990     1.0778141
   6 C    6 C           1     1.3408660     1.3408660     1.3408660
   1 H    8 O           1     0.9677883     0.9677883     0.9677883
   6 C    8 O           2     1.2705338     1.3337343     1.2073333
   8 O    8 O           1     1.4202750     1.4202750     1.4202750


optimized geometry written to: xtbopt.xyz


           -------------------------------------------------
          | TOTAL ENERGY              -21.510061298070 Eh   |
          | GRADIENT NORM               0.000435896686 Eh/α |
          | HOMO-LUMO GAP               3.071893170829 eV   |
           -------------------------------------------------

------------------------------------------------------------------------
 * finished run on 2020/12/23 at 21:40:49.669     
------------------------------------------------------------------------
 total:
 * wall-time:     0 d,  0 h,  0 min,  3.360 sec
 *  cpu-time:     0 d,  0 h,  0 min, 13.915 sec
 * ratio c/w:     4.142 speedup
 SCF:
 * wall-time:     0 d,  0 h,  0 min,  0.012 sec
 *  cpu-time:     0 d,  0 h,  0 min,  0.246 sec
 * ratio c/w:    20.210 speedup
 ANC optimizer:
 * wall-time:     0 d,  0 h,  0 min,  3.090 sec
 *  cpu-time:     0 d,  0 h,  0 min, 12.263 sec
 * ratio c/w:     3.968 speedup

