12
 energy: -21.550243667541 gnorm: 0.124593481645 xtb: 6.2.3 (830e466)
C         1.51446000000000    0.95463000000000   -2.60854000000000
C         1.13736000000000    1.13337000000000   -1.13753000000000
C         0.94459000000000   -0.20818000000000   -0.49365000000000
O        -0.06939000000000    1.85419000000000   -1.03306000000000
O         0.24969000000000    3.13485000000000   -0.96499000000000
O         1.63727000000000   -0.54785000000000    0.45288000000000
H        -0.01500000000000    3.51181000000000   -1.84281000000000
H         2.45807000000000    0.37400000000000   -2.69461000000000
H         1.66886000000000    1.94568000000000   -3.08482000000000
H         0.18241000000000   -0.88488000000000   -0.86713000000000
H         0.70911000000000    0.41845000000000   -3.15566000000000
H         1.97158000000000    1.65352000000000   -0.60587000000000
12
 energy: -21.560079087522 gnorm: 0.043783116511 xtb: 6.2.3 (830e466)
C         1.52692141523142    0.94238562736681   -2.61392463635975
C         1.14874740002427    1.11980552753116   -1.14014742987830
C         0.96172752968721   -0.22100347796837   -0.47496550120000
O        -0.06139028520974    1.85168368768228   -1.00826520025532
O         0.21654926001215    3.19915001278621   -0.97425588868252
O         1.65052360217568   -0.59055248748620    0.44097688611886
H        -0.03963935123024    3.54707863280040   -1.85243388620803
H         2.45246125828988    0.37145298287071   -2.70669885405809
H         1.67804377318661    1.91812538075954   -3.08333497663136
H         0.17130745555529   -0.86802496075340   -0.87094518146316
H         0.72931222863176    0.41966520744502   -3.14761707775046
H         1.95444571364571    1.64982386696584   -0.60417825363187
12
 energy: -21.561999987208 gnorm: 0.009697987189 xtb: 6.2.3 (830e466)
C         1.53809664680749    0.93503144128231   -2.61235829490444
C         1.17613284029335    1.12535070816320   -1.13556565590228
C         0.97583647349214   -0.22440565419187   -0.47426586356846
O        -0.04587257636440    1.84359866314717   -0.98465143333875
O         0.19439980107452    3.23029786791544   -0.99016659602203
O         1.66108133856777   -0.63884942761193    0.41479703873224
H        -0.09465340675061    3.54357810477778   -1.86223647323664
H         2.45162948343388    0.35769857985762   -2.69807516268133
H         1.69431516353563    1.90390781334296   -3.07904484811264
H         0.13203340022474   -0.81602850236420   -0.88154498724860
H         0.73503294521257    0.41794321438879   -3.13038031825674
H         1.97097789047292    1.66146719129274   -0.60229740546032
12
 energy: -21.562381265427 gnorm: 0.012946773035 xtb: 6.2.3 (830e466)
C         1.54646147607588    0.93353433532110   -2.60410103252185
C         1.18804643686073    1.13300298736557   -1.12735384047860
C         0.97105687613691   -0.21945353981089   -0.46882119762515
O        -0.03710933152923    1.84474180288009   -0.96903917920827
O         0.19097049768496    3.24327865917548   -1.00806577749771
O         1.68029384664119   -0.67920267258640    0.38056792996167
H        -0.14521217877569    3.53289221732031   -1.87223810859231
H         2.45281508800102    0.34268834011022   -2.68693347755984
H         1.71417613576583    1.89686434409844   -3.07872701080712
H         0.10754501052876   -0.77897365974788   -0.88727591156614
H         0.73549950283796    0.42160573467272   -3.11502386731065
H         1.98446663977168    1.66861145120125   -0.59877852679405
12
 energy: -21.562685311534 gnorm: 0.017441718526 xtb: 6.2.3 (830e466)
C         1.56132784567119    0.93377117952967   -2.59735007897720
C         1.20423910639010    1.13903394910151   -1.12151929238379
C         0.97822392680587   -0.22196857502844   -0.47757942953410
O        -0.02450637846301    1.84007290743423   -0.95742080028133
O         0.19039059028481    3.24690361885568   -1.02945883863945
O         1.69793532563691   -0.71949491263215    0.33845486770255
H        -0.21805820130267    3.51533676546601   -1.87448846079719
H         2.45995326206638    0.32705409916533   -2.67839401312424
H         1.74318731737999    1.89337320717996   -3.07675415866563
H         0.05308720194907   -0.71966948349984   -0.86063673870364
H         0.74187108639471    0.43063802442900   -3.10597510477618
H         2.00135891718667    1.67453921999904   -0.59466795181983
12
 energy: -21.563115232777 gnorm: 0.011760247030 xtb: 6.2.3 (830e466)
C         1.56707074929329    0.93193871235049   -2.59192043981057
C         1.20434374653346    1.14312205961693   -1.11856512983920
C         0.97389411428991   -0.21815886892456   -0.47747037397437
O        -0.02266212309831    1.84190733367514   -0.96382165750093
O         0.19421939471836    3.24415986086594   -1.04171252851631
O         1.71514418477664   -0.73757813454709    0.30280546618315
H        -0.24940027992234    3.51082891962830   -1.86695680557576
H         2.45990445277434    0.31395093811909   -2.66839149186381
H         1.76192398783051    1.88896901908756   -3.07356133094885
H         0.03892252559336   -0.69483658555873   -0.84103832672139
H         0.74424885691080    0.43662622890228   -3.10532534721398
H         2.00140039029999    1.67866051678465   -0.58983203421801
12
 energy: -21.563620832601 gnorm: 0.018760612899 xtb: 6.2.3 (830e466)
C         1.58027536475772    0.93121355223650   -2.58068303576677
C         1.20250084675153    1.14731551557445   -1.11106469673158
C         0.96933820511354   -0.21677164991481   -0.48034116760592
O        -0.02006308616763    1.84712660863000   -0.97594259930787
O         0.20024427304462    3.24095097806148   -1.07700209732987
O         1.76150490412130   -0.78796943763097    0.22021670716169
H        -0.30834306667590    3.50023232212360   -1.86255940013143
H         2.46484387324122    0.30217939004133   -2.64889247145483
H         1.79304638523741    1.88612119566457   -3.05820552277056
H        -0.01087683374437   -0.64097656113316   -0.77573604374167
H         0.75710817681333    0.44896714116004   -3.10656450792866
H         1.99943095750724    1.68120094518697   -0.57901516439255
12
 energy: -21.564006953789 gnorm: 0.015259522332 xtb: 6.2.3 (830e466)
C         1.59109450514186    0.93229390339494   -2.57827732565424
C         1.19758048136845    1.14222018494381   -1.10951243150800
C         0.96806135268323   -0.22046318941118   -0.48453044299720
O        -0.01820903777644    1.85082732042759   -0.99318067817345
O         0.21359385409609    3.23270714690965   -1.10870354178244
O         1.77566590597646   -0.80623461901474    0.16601569083629
H        -0.34700728167094    3.49846402860489   -1.84884844817780
H         2.46862374819244    0.29858931762028   -2.64653922766382
H         1.81265867871367    1.89111669315958   -3.04056404265281
H        -0.03313316172889   -0.61862144060279   -0.70385443648904
H         0.76699468191622    0.46550245208765   -3.11636768082012
H         1.99308627308786    1.67318820188033   -0.57142743491738
12
 energy: -21.563463481261 gnorm: 0.048161758228 xtb: 6.2.3 (830e466)
C         1.61420300034394    0.93471273458650   -2.56552832801810
C         1.20282146901630    1.14051712560277   -1.09739471767727
C         0.95990529754973   -0.22317629769405   -0.48683506966902
O        -0.00349032846822    1.86136353986548   -0.98992721509512
O         0.23960788634843    3.23991932917610   -1.18546825663434
O         1.82127296989252   -0.88207956426011    0.04536760572869
H        -0.47025608004127    3.48561545186532   -1.84954580248165
H         2.47802312925734    0.28306458372623   -2.62626518121847
H         1.86032282881489    1.89675216409284   -3.00953413323070
H        -0.09984538291619   -0.55122113994102   -0.59805556836809
H         0.78568738155064    0.49218735304539   -3.11813987812447
H         2.00075782865191    1.66193471993455   -0.55446345521148
12
 energy: -21.564423047133 gnorm: 0.025318241749 xtb: 6.2.3 (830e466)
C         1.60211247075164    0.93875225064315   -2.56882272415385
C         1.19859551218765    1.14173583745917   -1.09847964123062
C         0.96325684932532   -0.22215656284977   -0.48318282177411
O        -0.01796691658139    1.85332692274289   -0.98350229580428
O         0.21021105624011    3.24276837787954   -1.16249066286945
O         1.81414426346471   -0.86768028773931    0.07391583406123
H        -0.38787638937369    3.48397318484293   -1.86793328287252
H         2.47292719204587    0.29493242281747   -2.63039139569343
H         1.83605599747465    1.90131293920986   -3.01765494346202
H        -0.07382241146191   -0.57828518832957   -0.62738934194557
H         0.77738105176482    0.48306395211607   -3.11292126617708
H         1.99399132416224    1.66784615120758   -0.55693745807831
12
 energy: -21.564134612760 gnorm: 0.027832518813 xtb: 6.2.3 (830e466)
C         1.59616489284385    0.93873343042054   -2.57586269672619
C         1.20611706443795    1.13835855515112   -1.10336186485274
C         0.96335267721905   -0.22225927369998   -0.48088201234662
O        -0.00781184987159    1.85540436856888   -0.96749659692983
O         0.22751841442287    3.24637693012062   -1.15401828745110
O         1.77007078634111   -0.83891586925428    0.12869458437474
H        -0.39901318902848    3.49290068929109   -1.86227797449342
H         2.47000856553975    0.29773783057874   -2.64294585135587
H         1.82571258702071    1.90078122857449   -3.02829037743344
H        -0.03966331920991   -0.60876539573864   -0.67009251417594
H         0.77073919358743    0.47903375781211   -3.11497303360489
H         2.00581417669727    1.66020374817534   -0.56428337500472
12
 energy: -21.564771444685 gnorm: 0.004511552060 xtb: 6.2.3 (830e466)
C         1.60407561278328    0.94011718560356   -2.57093248395240
C         1.20376858055228    1.13926428023541   -1.10022631540539
C         0.96233365077512   -0.22270727110641   -0.48391907458012
O        -0.01056312716515    1.85460028788217   -0.97586226427669
O         0.22328779213510    3.24189549390315   -1.17205854256851
O         1.79876317366105   -0.86887594235980    0.07481081681969
H        -0.41170525769050    3.48515316741738   -1.86170733000615
H         2.47892536120673    0.30164626767105   -2.63304516569844
H         1.83370316581868    1.90288355450847   -3.02039425264389
H        -0.07749154140660   -0.57645145920387   -0.61897398378884
H         0.78273983868071    0.47993427240318   -3.11551218838674
H         2.00117275064929    1.66213016304572   -0.55796921551254
12
 energy: -21.564852420626 gnorm: 0.023950222590 xtb: 6.2.3 (830e466)
C         1.60983402126790    0.94139848357670   -2.56314477332807
C         1.20048148448756    1.13997886800834   -1.09375948530172
C         0.95758800708728   -0.22268511516752   -0.48433570419414
O        -0.01012407926409    1.86181129939830   -0.97681224374753
O         0.23000438063500    3.24493566193729   -1.20543745602225
O         1.81891336738958   -0.90402546685894    0.01494242218459
H        -0.43842427236835    3.48160789209622   -1.86447362199402
H         2.48401246678809    0.30196282902471   -2.62023790428802
H         1.84228252947828    1.90570135659872   -3.00751505426397
H        -0.09457073376406   -0.55388223071594   -0.57358258392190
H         0.79058814777295    0.48338109445354   -3.11274646885769
H         1.99842468048986    1.65940532764857   -0.54868712626531
12
 energy: -21.565028569118 gnorm: 0.011898562368 xtb: 6.2.3 (830e466)
C         1.61231127946226    0.94158237331094   -2.56544693645721
C         1.20290051220159    1.13853887035300   -1.09655641985341
C         0.95782742833226   -0.22282299629430   -0.48537323881728
O        -0.00790751171545    1.85984845303471   -0.97766461226441
O         0.23210766097410    3.24130190586187   -1.20729565649122
O         1.81189249387313   -0.90321934272907    0.01284506426116
H        -0.44592310450450    3.48334407425525   -1.85532985525751
H         2.48951866576943    0.30562417099291   -2.62186915918670
H         1.84103538925880    1.90646707360722   -3.01071249729094
H        -0.10073887522869   -0.54835391386522   -0.56260301200873
H         0.79519017186968    0.47962037640282   -3.11506790261963
H         2.00079588970739    1.65765895506987   -0.55071577401414
12
 energy: -21.565261738375 gnorm: 0.005408879376 xtb: 6.2.3 (830e466)
C         1.61665748375090    0.94136542392033   -2.56330930240135
C         1.20493735800674    1.13776883626505   -1.09593269308059
C         0.95384962009071   -0.22213870541494   -0.48552248753731
O        -0.00279038347765    1.86446780194657   -0.97550497091798
O         0.24235020574208    3.24105712812911   -1.23134171122934
O         1.80378280121857   -0.92150526656236   -0.01986307544665
H        -0.47083636030737    3.48779680426361   -1.84214108445294
H         2.50037130112860    0.31318956666162   -2.61611652817042
H         1.83709554935001    1.90728987145551   -3.01052271813142
H        -0.10585199996913   -0.53318890430030   -0.53357246300381
H         0.80512962053855    0.47001070204230   -3.11351204876865
H         2.00431480392799    1.65347674159350   -0.54845091685954
12
 energy: -21.565286096763 gnorm: 0.023751046164 xtb: 6.2.3 (830e466)
C         1.63293533111340    0.94314621375188   -2.55701976363319
C         1.20915016219065    1.13554306884232   -1.09324308192647
C         0.94564820791702   -0.22229898294139   -0.48789371245938
O         0.00689727289120    1.86995366195053   -0.97620042650114
O         0.25911304499310    3.23562948004275   -1.29366104327822
O         1.80511744958948   -0.97876389896623   -0.12619234870323
H        -0.53478755651218    3.48724216784517   -1.81398469336461
H         2.52876415031398    0.33008537606390   -2.59967624445288
H         1.83920335480941    1.91254362831299   -3.00425444108573
H        -0.14695348405426   -0.47436147982084   -0.43017880023886
H         0.83434996320257    0.45555485319215   -3.11314347423245
H         2.00957210354564    1.64531591172677   -0.54034197012386
12
 energy: -21.565616670840 gnorm: 0.004684908880 xtb: 6.2.3 (830e466)
C         1.62729245386493    0.94191689165272   -2.55601861872251
C         1.20686587701720    1.13774064971430   -1.09200748810315
C         0.94499111951875   -0.22123089248515   -0.48572242439867
O         0.00415039090295    1.87173307173424   -0.97378314659324
O         0.25288254586112    3.23869621182630   -1.28418342669776
O         1.79931020782710   -0.97195131495829   -0.11307345436451
H        -0.50940342109785    3.48837799223989   -1.81931342045776
H         2.52567686259745    0.33274573146659   -2.59958660521302
H         1.82802024442442    1.91056975428483   -3.00793707113401
H        -0.12809089103369   -0.48587866931807   -0.45463295606303
H         0.82943094471972    0.44864495016375   -3.10835193724234
H         2.00788366539791    1.64822562367890   -0.54117945101000
12
 energy: -21.565731023105 gnorm: 0.006739532335 xtb: 6.2.3 (830e466)
C         1.63288288676128    0.94046219387688   -2.55352342115114
C         1.20799188184467    1.13797282363000   -1.09120220184340
C         0.94043756255636   -0.22044221404982   -0.48583845496668
O         0.00847330997150    1.87600588634252   -0.97562816240368
O         0.25888248591248    3.23756222792059   -1.30664587299222
O         1.79451680579655   -0.99270131432667   -0.15306221170987
H        -0.53164071640550    3.49260703272115   -1.80289286273369
H         2.53724327283739    0.34000533637402   -2.59223455366541
H         1.82424148111832    1.90958684085297   -3.00868430533617
H        -0.13545410419127   -0.46395103551588   -0.42147789488863
H         0.84138377736205    0.43678919043340   -3.10581561572139
H         2.01005135643618    1.64569303174084   -0.53878444258772
12
 energy: -21.565742343848 gnorm: 0.016918537439 xtb: 6.2.3 (830e466)
C         1.64550600140503    0.93897837237797   -2.55197222739019
C         1.21129973612888    1.13617868219767   -1.09248857364659
C         0.93229522403445   -0.22031345954476   -0.48603910078295
O         0.01711862482318    1.87985876980726   -0.97945948318954
O         0.26777441150805    3.23188885552529   -1.34965681919119
O         1.78123759190527   -1.03014814035214   -0.22904395652911
H        -0.57349135528788    3.49787876363076   -1.76666964703129
H         2.56204982851119    0.35692300077363   -2.58155835950692
H         1.81815729927914    1.91020418939099   -3.01120154446089
H        -0.15512523550766   -0.41643610848925   -0.34554774493693
H         0.86717788921777    0.41578533960545   -3.10542854049560
H         2.01500998398261    1.63879173507712   -0.53672400283881
12
 energy: -21.565854176875 gnorm: 0.005222005524 xtb: 6.2.3 (830e466)
C         1.64096088268909    0.93889024853716   -2.55425993935331
C         1.21064024361081    1.13656320875987   -1.09347931035747
C         0.93535859582410   -0.22054763257762   -0.48578499197504
O         0.01462927992589    1.87754942632272   -0.97893227913880
O         0.26315528953381    3.23329066499529   -1.33068207543270
O         1.78157508321513   -1.01221248380373   -0.19498463200982
H        -0.55707291144719    3.49687709593377   -1.77599175159804
H         2.55260226971895    0.35060579006285   -2.58747005112163
H         1.81994769846412    1.90892253397450   -3.01246082009703
H        -0.14482567996476   -0.43394887357851   -0.37614112397509
H         0.85799022730312    0.42279157286614   -3.10650663221400
H         2.01404902112694    1.64080844850756   -0.53909639272709
12
 energy: -21.565895096938 gnorm: 0.002333328116 xtb: 6.2.3 (830e466)
C         1.64265617224991    0.93981541887265   -2.55318774702436
C         1.21111420215805    1.13664995416266   -1.09250172794823
C         0.93417874211448   -0.22053094570292   -0.48569271979604
O         0.01554158723525    1.87809338765601   -0.97753013150896
O         0.26257986504434    3.23308036723777   -1.34246325568723
O         1.77898206328950   -1.02287865209658   -0.21365736243830
H        -0.56212007524056    3.49428112321839   -1.77299484803469
H         2.55535082787025    0.35293932737278   -2.58493894986750
H         1.82034984197126    1.91024476506504   -3.01090636697862
H        -0.14558449822852   -0.42410740488632   -0.35865180243774
H         0.86107362065273    0.42235252720081   -3.10599284776420
H         2.01488765088334    1.63965013189970   -0.53727224051416
12
 energy: -21.565921164608 gnorm: 0.003230148233 xtb: 6.2.3 (830e466)
C         1.64737113593921    0.93991800650339   -2.55701357764066
C         1.21095318102983    1.13423702398060   -1.09763783241392
C         0.93171408877373   -0.22261504752283   -0.49177317339557
O         0.01476010636869    1.87489337460379   -0.98337685293559
O         0.25980583576127    3.23079437779035   -1.34543810072262
O         1.77416127901015   -1.02364735545580   -0.21202723719189
H        -0.57201276085805    3.49609291480437   -1.76008792218594
H         2.55876327340809    0.35095270696199   -2.58590229220950
H         1.82952801799108    1.91085717818208   -3.01135701335151
H        -0.14600451656015   -0.41395036746817   -0.33795452896020
H         0.86680656235420    0.42556299545193   -3.11377210887096
H         2.01316379678197    1.63649419216830   -0.53944936012167
12
 energy: -21.565974479206 gnorm: 0.002752446068 xtb: 6.2.3 (830e466)
C         1.65230909424958    0.93859254886203   -2.56000425820398
C         1.21142231356411    1.13270982457729   -1.10203820779877
C         0.93020934316836   -0.21944010405154   -0.48704100588602
O         0.01485839178002    1.87301988218130   -0.98894824376758
O         0.25724529960034    3.22860479215738   -1.35331327129922
O         1.76879582983018   -1.02615685408436   -0.21526550126672
H        -0.58696417258351    3.49949202600154   -1.74083046514086
H         2.56143038037177    0.34594997551993   -2.58511350937434
H         1.84098580179524    1.90902125583625   -3.01232627189748
H        -0.14622854219724   -0.40601316749201   -0.32717724027950
H         0.87219141517772    0.42818643673100   -3.12057248003490
H         2.01275484524344    1.63562338376121   -0.54315954505064
12
 energy: -21.566035156441 gnorm: 0.008220819703 xtb: 6.2.3 (830e466)
C         1.66546536976693    0.93460536902228   -2.56589886136229
C         1.21158433739893    1.12990453140333   -1.11265798773290
C         0.92708204815311   -0.21363153389374   -0.47972006930286
O         0.01235595067000    1.86714192842252   -1.00795721239813
O         0.25111910564694    3.22272550608518   -1.37643415982434
O         1.75854229566416   -1.03558595270961   -0.23092971335538
H        -0.62383061152723    3.51076740789414   -1.69020535108333
H         2.56833768550313    0.33164476951436   -2.58097560907434
H         1.87052884444081    1.90393749665989   -3.01314573469323
H        -0.14725446987417   -0.38310080076086   -0.29100785269574
H         0.88640481243538    0.43461802624139   -3.13683008237142
H         2.00867463172204    1.63656325212113   -0.55002736610607
12
 energy: -21.566090968127 gnorm: 0.004507003282 xtb: 6.2.3 (830e466)
C         1.66808015093532    0.93348719440000   -2.56576242048833
C         1.20968474537735    1.13027332677913   -1.11434724045488
C         0.92760371773392   -0.21244723444412   -0.47833898061258
O         0.00797564173927    1.86417752435302   -1.01588418723652
O         0.24818350901592    3.22208847248449   -1.37708931921390
O         1.75899609249938   -1.03950155736811   -0.24346224408102
H        -0.62439627957826    3.51317631998332   -1.68388342873182
H         2.56895492908042    0.32744208761157   -2.57829364683557
H         1.87682223506574    1.90208729849519   -3.01284692794604
H        -0.14583572591987   -0.37730000384035   -0.27704743751635
H         0.88919568716194    0.43582782637143   -3.13899255613844
H         2.00374529688888    1.64027874517445   -0.54984161074455
12
 energy: -21.566197205626 gnorm: 0.008610643783 xtb: 6.2.3 (830e466)
C         1.68687524504063    0.92667627379365   -2.56947360884858
C         1.20064421121209    1.12868522682481   -1.12855526979578
C         0.92662572892434   -0.20790482469928   -0.47532513937185
O        -0.01014240417253    1.85043568877916   -1.05775311137124
O         0.23579634337377    3.21594603312341   -1.39567461504395
O         1.75403074275272   -1.05750126940243   -0.29910847023865
H        -0.65051308817416    3.53298275901270   -1.62538018886437
H         2.57722908699278    0.30435028250094   -2.56460343097780
H         1.91890611775361    1.89180460098032   -3.01319270705851
H        -0.13979333579992   -0.34207193438260   -0.19559465145497
H         0.91043728962553    0.44224515073966   -3.15762088312334
H         1.97891406247116    1.65394201272967   -0.55350792385096
12
 energy: -21.566257193586 gnorm: 0.004477463254 xtb: 6.2.3 (830e466)
C         1.68974334622521    0.92386890233793   -2.56970394255408
C         1.19435590531315    1.12848680036888   -1.13260692466070
C         0.92764684277939   -0.20897311454571   -0.47894348768658
O        -0.01830719773034    1.84711995427281   -1.07182605634093
O         0.23464715625417    3.21620055783914   -1.39306306173179
O         1.75557531020127   -1.05655049042361   -0.31160270269876
H        -0.64578765139274    3.54198273659708   -1.61314574010642
H         2.57764114624275    0.29879535339437   -2.55936182441108
H         1.92587602291648    1.88729550074989   -3.01445704345653
H        -0.13192468867019   -0.33958166855658   -0.17737133247715
H         0.91476046257212    0.44019601218615   -3.16041006151466
H         1.96478334528875    1.66074945577965   -0.55329782236130
12
 energy: -21.566302129879 gnorm: 0.007557601352 xtb: 6.2.3 (830e466)
C         1.70245019349088    0.91603378014815   -2.57327618479460
C         1.18437889634408    1.12711825153051   -1.14561413214313
C         0.92686003255803   -0.20580744912343   -0.47877701410079
O        -0.03226407351774    1.83976425637339   -1.10617850100286
O         0.22955717157340    3.21274682043995   -1.40758475200468
O         1.75056292592749   -1.06169945595740   -0.34253542129298
H        -0.66377116197811    3.56501737383836   -1.55604876268790
H         2.58327825771044    0.28147241582004   -2.54612667862482
H         1.95482659635363    1.87548521733292   -3.01754116334510
H        -0.11890334461396   -0.32134247666977   -0.12926357359727
H         0.93183083301599    0.43817346951356   -3.17457041499813
H         1.94020367313591    1.67262779675373   -0.55827340140773
12
 energy: -21.566337008981 gnorm: 0.001979552282 xtb: 6.2.3 (830e466)
C         1.70043163130079    0.91663974548552   -2.57281648723725
C         1.18418075483662    1.12780065440179   -1.14484418353862
C         0.92604015861243   -0.20519097569860   -0.47809054769980
O        -0.03066518608592    1.84241983317644   -1.10211436556716
O         0.22961330419603    3.21409584473477   -1.40390241357438
O         1.74881931290723   -1.06188628225114   -0.34201266972624
H        -0.65948790473420    3.56076230058427   -1.56175077298862
H         2.58301677103439    0.28532622022077   -2.54459255176636
H         1.95065645790798    1.87578969492351   -3.01806691548652
H        -0.11677579236661   -0.32310097997074   -0.13449872164356
H         0.93165587235162    0.43522147801459   -3.17327765963589
H         1.94152462003966    1.67171246637881   -0.55982271113561
12
 energy: -21.566354387292 gnorm: 0.007853075578 xtb: 6.2.3 (830e466)
C         1.71305024335296    0.91270104685996   -2.57757582735947
C         1.17557608322220    1.12633883257561   -1.15804628510658
C         0.92160014075420   -0.20044435668309   -0.47576517776025
O        -0.04292055191184    1.83514029514576   -1.12985453202657
O         0.21793345961565    3.21140229934184   -1.40754552947500
O         1.73647595904626   -1.07563620240272   -0.38429076431087
H        -0.67098077756977    3.56764727361723   -1.52278418388976
H         2.59239695060828    0.27764345087553   -2.53095129841900
H         1.97615803545804    1.86890206466602   -3.02133263362803
H        -0.10619000649574   -0.29443056416493   -0.06998833432324
H         0.95293679019583    0.43234462990959   -3.18987267661814
H         1.92297367372397    1.67798123025920   -0.56778275708309
12
 energy: -21.566392586870 gnorm: 0.003523908638 xtb: 6.2.3 (830e466)
C         1.71681123365592    0.91081373972625   -2.58039166979407
C         1.17447193407569    1.12534884772526   -1.16322275191273
C         0.91966325704311   -0.19847188175366   -0.47548271395022
O        -0.04468086769177    1.83320115074970   -1.13805073739367
O         0.21536481275083    3.21039838349478   -1.40958097546016
O         1.72942390270974   -1.07572618270954   -0.38521772083453
H        -0.67678336644266    3.57106450849837   -1.50438634530184
H         2.59642430315140    0.27661531780986   -2.52945757999455
H         1.98065456396460    1.86670300713724   -3.02375937719664
H        -0.10204213819916   -0.28705690126746   -0.06031134972527
H         0.95990445829821    0.42899771889360   -3.19515866586890
H         1.91979790668411    1.67770229169560   -0.57077011256741
12
 energy: -21.566409028007 gnorm: 0.001158686322 xtb: 6.2.3 (830e466)
C         1.71991253274012    0.90936816579980   -2.58167431604782
C         1.17433009101921    1.12479157880857   -1.16649519774796
C         0.91857268686638   -0.19700903090320   -0.47580533234825
O        -0.04582893570036    1.83156160316710   -1.14445470411165
O         0.21216306814732    3.21030988431759   -1.41068053277212
O         1.72157273992495   -1.07912879584643   -0.38966364846195
H        -0.68045212362989    3.57151381981924   -1.49306881641316
H         2.60101619485281    0.27749725532476   -2.52898293116645
H         1.98126545539627    1.86576510903009   -3.02516528692168
H        -0.09773634045428   -0.27723225212765   -0.05120458315568
H         0.96587215644283    0.42479955482352   -3.19727972055564
H         1.91832247439468    1.67735310778663   -0.57131493029762
12
 energy: -21.566413581824 gnorm: 0.004756866143 xtb: 6.2.3 (830e466)
C         1.73123581193464    0.90520205533950   -2.58480056092776
C         1.16999819631123    1.12296394099719   -1.17724669150205
C         0.91534758290350   -0.19308376866732   -0.47512292803356
O        -0.05310219786595    1.82536143328432   -1.16894902316531
O         0.20313206281456    3.20793100626576   -1.42010443664969
O         1.70178982955093   -1.09312335981460   -0.41925413711256
H        -0.69317246844598    3.57657900130932   -1.45297997143750
H         2.61341383397258    0.27544302970337   -2.52149265138124
H         1.99381284696438    1.86120851053831   -3.02872418902392
H        -0.08426209421345   -0.24688296498339   -0.00574852318944
H         0.98519202645905    0.41654046591689   -3.20663885405211
H         1.90562456961453    1.68145065011066   -0.57472803352483
12
 energy: -21.566428289707 gnorm: 0.001182207141 xtb: 6.2.3 (830e466)
C         1.73053979247120    0.90693150155440   -2.58416673232996
C         1.17152759593504    1.12256289376505   -1.17577493593145
C         0.91476127941928   -0.19375765905230   -0.47509896473559
O        -0.05100763160511    1.82549517280249   -1.16517795720238
O         0.20333388302935    3.20757258183126   -1.42034488607565
O         1.69783099867701   -1.09623963475623   -0.41985791791045
H        -0.69084036520745    3.57145939845066   -1.45976346147757
H         2.61548317765475    0.28086271043680   -2.52324643130888
H         1.98829468195187    1.86420324935521   -3.02880860595503
H        -0.08448376225910   -0.24435033577542   -0.00552315387844
H         0.98502852245478    0.41530543695684   -3.20440884686547
H         1.90854182747841    1.67954468443124   -0.57361810632911
12
 energy: -21.566431942983 gnorm: 0.001096686632 xtb: 6.2.3 (830e466)
C         1.73037065095988    0.90734629882125   -2.58339117049657
C         1.17103292966242    1.12273960146190   -1.17494571712774