12
 energy: -21.656083838940 gnorm: 0.102774735080 xtb: 6.2.3 (830e466)
C         1.29525000000000    1.23683000000000   -2.27922000000000
C         0.29793000000000    1.95724000000000   -1.36491000000000
C         1.51796000000000   -0.85997000000000   -1.05974000000000
O         1.19120000000000   -0.13757000000000   -2.16195000000000
O         0.35883000000000    3.34182000000000   -1.57267000000000
O         2.00505000000000   -0.33118000000000   -0.07206000000000
H         1.21275000000000    3.65249000000000   -1.17285000000000
H         2.33619000000000    1.56067000000000   -2.05874000000000
H         1.06232000000000    1.51174000000000   -3.32974000000000
H         1.36165000000000   -1.93297000000000   -1.06603000000000
H        -0.73041000000000    1.61347000000000   -1.60574000000000
H         0.48028000000000    1.72702000000000   -0.29215000000000
12
 energy: -21.664221328201 gnorm: 0.049542849451 xtb: 6.2.3 (830e466)
C         1.29268841336912    1.21597432322243   -2.26260821688145
C         0.30102503868381    1.96029563952205   -1.35621720145643
C         1.53344010889170   -0.83025534085142   -1.06309693645252
O         1.17692918789756   -0.17753056977291   -2.17457975477071
O         0.35670627443350    3.34791793181486   -1.55843861648370
O         2.00604917583640   -0.30107889344775   -0.08848838334025
H         1.19754945538975    3.66826311900558   -1.18820406817045
H         2.32223080250473    1.53964105108577   -2.02889601549760
H         1.07735004743644    1.47673967292520   -3.30797529056389
H         1.35431268514049   -1.90429848654165   -1.09906326133195
H        -0.71874919168599    1.63747208468311   -1.60727267052609
H         0.48946800210249    1.70644946835473   -0.30095958452498
12
 energy: -21.666440620764 gnorm: 0.015925373320 xtb: 6.2.3 (830e466)
C         1.29238332668456    1.20653893015584   -2.25215401290775
C         0.29471000491369    1.95440447610462   -1.34797188070267
C         1.51462669379809   -0.78757893129438   -1.04746443789144
O         1.14056310008536   -0.20380626687558   -2.17225109637685
O         0.36282300602458    3.33997275695914   -1.55400857446732
O         2.03691708381871   -0.26953235165776   -0.10650864171326
H         1.19271229944500    3.66929415608634   -1.20418276334792
H         2.31836731622470    1.49741632894271   -1.99081200113842
H         1.10045690090913    1.45517417789717   -3.29736757988813
H         1.37390446197296   -1.87576477002257   -1.15092981577084
H        -0.72282835102227    1.65928735389028   -1.61021092054306
H         0.48436415714549    1.69418413981420   -0.30193827525236
12
 energy: -21.665961870279 gnorm: 0.023216420446 xtb: 6.2.3 (830e466)
C         1.29140918101549    1.20839466741646   -2.25345260893260
C         0.29111083590076    1.94717394365656   -1.34419927110503
C         1.58081474646446   -0.78298905879967   -1.07086905155717
O         1.14783511012512   -0.21115589645468   -2.17861269351003
O         0.35766692165209    3.33318941232965   -1.54613000048752
O         2.03548074754467   -0.25297218591160   -0.10575391158161
H         1.19267175019987    3.66830408330086   -1.21303241228165
H         2.31557430126252    1.48613629421905   -1.97911675043929
H         1.10417517435980    1.45949115596873   -3.29740758107923
H         1.31383585004957   -1.85674158484001   -1.13925501837122
H        -0.72633597553988    1.65659077421727   -1.60799808573304
H         0.48476135696552    1.68416839489738   -0.29997261492161
12
 energy: -21.666985959645 gnorm: 0.003378815949 xtb: 6.2.3 (830e466)
C         1.28789443858205    1.20927415183814   -2.25276861915637
C         0.28960950224976    1.95535457746195   -1.35005951872433
C         1.54622147874005   -0.79229184167592   -1.05798280091421
O         1.13532325100368   -0.20535858312650   -2.16898855481376
O         0.35820923743963    3.34211750241194   -1.54900138956143
O         2.05272015485003   -0.26732618198308   -0.11122663270331
H         1.19872745216137    3.67132897815730   -1.21171625115705
H         2.31399922175948    1.48423103684065   -1.97602215379548
H         1.10608493062381    1.46480697106012   -3.29887721038607
H         1.35170695236021   -1.87387544700717   -1.14120164176044
H        -0.72846714610021    1.66043718996436   -1.61526857685752
H         0.47697052633016    1.69089164605820   -0.30268665017003
12
 energy: -21.667054197940 gnorm: 0.002739497721 xtb: 6.2.3 (830e466)
C         1.28554713302050    1.20973815370865   -2.24903969416412
C         0.28502413042455    1.95888582908831   -1.35231796478023
C         1.54901057093131   -0.79432073080094   -1.05809313126443
O         1.12409579675602   -0.20548270537787   -2.16281274995929
O         0.35850315837563    3.34541744005731   -1.54962959826049
O         2.07487040138772   -0.27113312785218   -0.12008202243189
H         1.20164346867852    3.67094420933786   -1.21444072593245
H         2.31194588247041    1.47598373079462   -1.96567887335360
H         1.11164101187938    1.46558297229540   -3.29622806073955
H         1.35393183107979   -1.87650833262878   -1.14146811921194
H        -0.73305390875710    1.66707886612484   -1.62238134001769
H         0.46584052375329    1.69340369525279   -0.30362771988431
12
 energy: -21.667164208457 gnorm: 0.006136991336 xtb: 6.2.3 (830e466)
C         1.27844598595823    1.21065321431173   -2.23707520686850
C         0.27168953498712    1.96920996696806   -1.35819336655769
C         1.56260632289710   -0.80129573759363   -1.06190971521508
O         1.09146946420497   -0.20514514235211   -2.14468379582089
O         0.35914715005865    3.35488463033748   -1.55189404901052
O         2.13918583995200   -0.28329602063532   -0.14883657594329
H         1.21039236423732    3.66948514959377   -1.22442171605533
H         2.30385918614054    1.45458314311766   -1.93233504434792
H         1.12855458017333    1.46609047869317   -3.28785209511156
H         1.35592202594162   -1.88274077469778   -1.13996771344855
H        -0.74533851230216    1.68589930782886   -1.64316684450558
H         0.43306605775127    1.70126178442811   -0.30546387711508
12
 energy: -21.667205281013 gnorm: 0.003944217103 xtb: 6.2.3 (830e466)
C         1.27517527220059    1.21008195795317   -2.23132912491501
C         0.26591144329457    1.97367842135518   -1.36041858019132
C         1.57000043813657   -0.80459055119288   -1.06468792580138
O         1.08045578991086   -0.20464471441770   -2.13671939851866
O         0.36104234794715    3.35880556017625   -1.55319214786891
O         2.16158979942844   -0.28904561490073   -0.16156719436172
H         1.21522122381809    3.66758026943437   -1.22819527803830
H         2.29886237154796    1.44871620348587   -1.91928637019396
H         1.13393796087812    1.46367417971854   -3.28343397587426
H         1.35824582229947   -1.88491878653456   -1.13914445931052
H        -0.75060197284575    1.69507742597721   -1.65150315566217
H         0.41915950338392    1.70517564894529   -0.30632238926379
12
 energy: -21.667245231375 gnorm: 0.002989242585 xtb: 6.2.3 (830e466)
C         1.27057044836903    1.20784054607031   -2.22342660272915
C         0.25756204108032    1.97951981912175   -1.36402239091647
C         1.58066392754072   -0.80860688962457   -1.06839680671102
O         1.06683704042809   -0.20373719781547   -2.12569626890241
O         0.36507381126822    3.36396077544077   -1.55518584578079
O         2.20036680012251   -0.29758153728872   -0.18190831248882
H         1.22100356032202    3.66416252430836   -1.22894909182180
H         2.29122519104876    1.44390431345249   -1.90150082739747
H         1.14064220409962    1.45831495907658   -3.27757345395342
H         1.35512929324758   -1.88601853011021   -1.13447494913265
H        -0.75746626347954    1.70865132212410   -1.66631005771480
H         0.39739194595265    1.70917989524459   -0.30835539245120
12
 energy: -21.667264111654 gnorm: 0.001192984918 xtb: 6.2.3 (830e466)
C         1.26713350466500    1.20555436202523   -2.21915036015661
C         0.25139205920401    1.98291034991113   -1.36718929781951
C         1.58801390726501   -0.81050098947889   -1.06988231432077
O         1.05938700534507   -0.20290202895343   -2.11767876073532
O         0.36950111872066    3.36686652902984   -1.55563711833634
O         2.22673310329249   -0.30311809237207   -0.19597363028761
H         1.22601046165301    3.66041610532978   -1.22545769549860
H         2.28606918476074    1.44287609140611   -1.89225788571701
H         1.14334893083558    1.45385360559112   -3.27455419882829
H         1.35268137311599   -1.88568281868350   -1.12904414227328
H        -0.76267268814535    1.71931401145329   -1.67787071636490
H         0.38140203928776    1.71000287474137   -0.31110387966177
12
 energy: -21.667263999146 gnorm: 0.005234395542 xtb: 6.2.3 (830e466)
C         1.26131059319785    1.20255054159752   -2.21381773425675
C         0.24131257822714    1.98848892968025   -1.37367671066156
C         1.59949946752604   -0.81254446811098   -1.07024769993790
O         1.04388118857224   -0.20231963040378   -2.10396239407152
O         0.37670693651406    3.37184734114101   -1.55462868648927
O         2.27631367026423   -0.31066659891177   -0.21937201761773
H         1.23336272325026    3.65464912665686   -1.21508803603375
H         2.27889556199666    1.43797627978179   -1.87870576368216
H         1.14840589539716    1.44796134580953   -3.27147758255002
H         1.34705834495520   -1.88470179652188   -1.11787190751254
H        -0.77106733974852    1.73724948411388   -1.70015093708002
H         0.35332037984764    1.70909944516756   -0.31680053010678
12
 energy: -21.667278558534 gnorm: 0.001547483364 xtb: 6.2.3 (830e466)
C         1.26108162364475    1.20205036714596   -2.21646623492171
C         0.24221143893428    1.98752630847900   -1.37436761360313
C         1.59885171632177   -0.81103747480967   -1.06846263085288
O         1.04715037206401   -0.20270680652041   -2.10432350804088
O         0.37888791452275    3.37091346994481   -1.55263054118784
O         2.27073778267274   -0.30849875223275   -0.21712667733300
H         1.23391919983204    3.65333184285457   -1.20836976015181
H         2.27919611254743    1.44075003154857   -1.88510346130733
H         1.14476252634125    1.44656130755608   -3.27383402102045
H         1.34827043823083   -1.88342883369602   -1.11554822050262
H        -0.77012339261302    1.73791490093236   -1.70118778512592
H         0.35405426750114    1.70621363879749   -0.31837954595242
12
 energy: -21.667283884559 gnorm: 0.001412722661 xtb: 6.2.3 (830e466)
C         1.26065554201397    1.20234021622799   -2.21924740007917
C         0.24262011073383    1.98713775960689   -1.37613033941909
C         1.59877560254819   -0.80933396436737   -1.06645504694141
O         1.04793580107616   -0.20346089945470   -2.10405346879462
O         0.38140024865904    3.37065415663414   -1.54960901932343
O         2.26943275959532   -0.30501361274049   -0.21620485592797
H         1.23446619676813    3.65161321759632   -1.19916381393350
H         2.27950478094010    1.44116910055877   -1.89093657926013
H         1.14179788414429    1.44438006602397   -3.27679610663019
H         1.34918823874290   -1.88213744384044   -1.11201867497662
H        -0.76981866386780    1.73977095494082   -1.70423459724474
H         0.35304149864585    1.70247044881409   -0.32095009746913
12
 energy: -21.667288587014 gnorm: 0.001090908749 xtb: 6.2.3 (830e466)
C         1.25868947905472    1.20206545548832   -2.22247969048449
C         0.24138679117651    1.98733004821913   -1.37956827325134
C         1.60072364698594   -0.80702378863733   -1.06414042429996
O         1.04662425485379   -0.20455450776618   -2.10209544234069
O         0.38683989545108    3.37107233435379   -1.54489146217919
O         2.27552475939455   -0.29997760554457   -0.21859843860788
H         1.23744193542647    3.64735439672074   -1.18419373005599
H         2.27790524507220    1.44139196902028   -1.89627354451946
H         1.13829534701376    1.43970044488244   -3.28083222770283
H         1.34999905715454   -1.87988706511309   -1.10488837446408
H        -0.77113287645717    1.74578407280075   -1.71244954166641
H         0.34670246487359    1.69633424557572   -0.32538885042769
12
 energy: -21.667291107127 gnorm: 0.000888073129 xtb: 6.2.3 (830e466)
C         1.25605536355166    1.20089699095024   -2.22496325394782
C         0.23903590872746    1.98769234863214   -1.38307410856027
C         1.60369863928824   -0.80469943440561   -1.06241875882433
O         1.04459563431613   -0.20566698072907   -2.09975006673804
O         0.39328411887012    3.37147797914570   -1.54024112041259
O         2.28304885349612   -0.29494073604461   -0.22189582528361
H         1.24203814050832    3.64149282399424   -1.17024403699215
H         2.27536655419243    1.44172214776236   -1.90002309755231
H         1.13499837328071    1.43486314192660   -3.28396496773858
H         1.35218257104791   -1.87750649455105   -1.09794067097379
H        -0.77357675472124    1.75388807491217   -1.72121008087091
H         0.33827259744210    1.69037013840689   -0.33007401210560
