12
 energy: -21.639112579225 gnorm: 0.079961093823 xtb: 6.2.3 (830e466)
C         0.93954000000000    1.69620000000000   -2.05376000000000
C         0.55614000000000    0.75332000000000   -0.90373000000000
C         1.21375000000000   -0.59072000000000   -1.03337000000000
O         2.32471000000000    1.93020000000000   -2.05996000000000
O         0.24467000000000    2.91094000000000   -1.93345000000000
O         2.42971000000000   -0.69617000000000   -1.00717000000000
H         0.61765000000000    3.38540000000000   -1.14468000000000
H         2.52434000000000    2.40869000000000   -2.90641000000000
H         0.64082000000000    1.20991000000000   -3.01074000000000
H         0.60342000000000   -1.48195000000000   -1.13769000000000
H        -0.54569000000000    0.60723000000000   -0.91549000000000
H         0.83994000000000    1.20656000000000    0.07066000000000
12
 energy: -21.643715464402 gnorm: 0.031293783445 xtb: 6.2.3 (830e466)
C         0.93294804133136    1.69382050395018   -2.05188022057311
C         0.55947994502879    0.74588797600737   -0.89953307526125
C         1.24141899788918   -0.59023669955763   -1.01769167720699
O         2.31307935283443    1.92146208777396   -2.04796121740508
O         0.23463826159663    2.90238384209291   -1.95171747915337
O         2.43733269070606   -0.72945946027765   -1.01157899799129
H         0.58592142187289    3.37691857469015   -1.17572589412301
H         2.54000835407848    2.40112784399114   -2.86381171315369
H         0.61600086631313    1.23792204352206   -3.00701664917737
H         0.59105919191542   -1.46322726982767   -1.15546860384405
H        -0.53263183073955    0.63599177582188   -0.90009545463856
H         0.86974470717318    1.20701878181330    0.04669098252778
12
 energy: -21.644501072253 gnorm: 0.013440843077 xtb: 6.2.3 (830e466)
C         0.92999993426482    1.69682524260273   -2.05791197339042
C         0.56952254623808    0.74481878976999   -0.89991767679111
C         1.25938603736629   -0.58596360367062   -1.05350062905104
O         2.30394183506496    1.92206809101044   -2.03952734388334
O         0.22032718003075    2.89592786515129   -1.96401080695087
O         2.43778180195417   -0.76635244506287   -0.98808729321484
H         0.54457940599601    3.37324187993963   -1.19282687154313
H         2.56071894354271    2.40077350912399   -2.83172987295472
H         0.60109105576453    1.25633813179913   -3.01023303719588
H         0.56128185369670   -1.44422198909929   -1.14384282286648
H        -0.51251108821727    0.64156917961888   -0.88272944864800
H         0.91288049429825    1.20458534881670    0.02852777648983
12
 energy: -21.644993103010 gnorm: 0.012788301853 xtb: 6.2.3 (830e466)
C         0.93126688914570    1.69273591940422   -2.05917795892028
C         0.57983528751168    0.75097180522244   -0.88634960200955
C         1.25825834660108   -0.58813916318070   -1.02447757334604
O         2.30129214347070    1.92492180453144   -2.02901455376915
O         0.20886168930802    2.88658033253473   -1.98116091529305
O         2.43366430618546   -0.78410250389479   -0.99960097282733
H         0.50910395182671    3.37529550029855   -1.20688539493483
H         2.57483526077459    2.39945000029597   -2.81729087451689
H         0.60814774617015    1.24055215193380   -3.00716005284909
H         0.54077413685068   -1.42640723663507   -1.20073798517101
H        -0.50011840725851    0.64381057323947   -0.85299094754189
H         0.94307864941374    1.22394081624995    0.02905683117910
12
 energy: -21.645233022387 gnorm: 0.005249849918 xtb: 6.2.3 (830e466)
C         0.93413569664674    1.69175973892434   -2.05916222871748
C         0.58621716392105    0.75424775822213   -0.88207539999556
C         1.25073619418839   -0.59076062298732   -1.03353001623093
O         2.30267407433093    1.93204018488211   -2.02501722204288
O         0.20305816216143    2.88192723328383   -1.98987992680672
O         2.42736735666700   -0.79479843969877   -0.99537722392736
H         0.48913199163935    3.37527551036539   -1.20841419356286
H         2.57856553702875    2.40572619666058   -2.81702018275588
H         0.62020932948157    1.22832846950756   -3.00651783190994
H         0.53321762688289   -1.42386658136831   -1.21320104728055
H        -0.49702936454831    0.65257354937929   -0.83616855232514
H         0.96071623160020    1.22715700282917    0.03057382555531
12
 energy: -21.645539785601 gnorm: 0.009189924755 xtb: 6.2.3 (830e466)
C         0.93955078742031    1.68743333616437   -2.05766274202496
C         0.60197430775641    0.76243595611401   -0.86701122564520
C         1.23852766120019   -0.59337432488003   -1.04778182817773
O         2.30320690807419    1.94704641968182   -2.01565010107162
O         0.18828641225097    2.86701175911969   -2.01183740645297
O         2.41215157895704   -0.82016074382975   -0.97242493767819
H         0.44186380132698    3.37035600434446   -1.22137974410221
H         2.58452505848271    2.41425480181100   -2.81235684267092
H         0.64147723363282    1.20243869449687   -3.00176695894444
H         0.51328089680997   -1.40745487164578   -1.26914773552315
H        -0.48406269132654    0.67577859052413   -0.79281343270231
H         1.00821804541494    1.23384437809921    0.03404295499369
12
 energy: -21.645834480860 gnorm: 0.018660543895 xtb: 6.2.3 (830e466)
C         0.94570783871157    1.67943472724258   -2.05395009938305
C         0.62468432723791    0.77381738744913   -0.84254552716802
C         1.22264390055848   -0.59513553172716   -1.06237823953444
O         2.30233213324333    1.96871781269337   -2.00289590090609
O         0.16646227139708    2.84255796789995   -2.04266156759169
O         2.38790480947202   -0.85675253758315   -0.92751232087745
H         0.38049020186316    3.36000071939626   -1.24743426789176
H         2.58724928884897    2.42629938347871   -2.80531507134007
H         0.66857604166055    1.16470937672338   -2.99149461630629
H         0.48657291178191   -1.37624205109524   -1.36918645197099
H        -0.46228234617578    0.71087303631978   -0.72923895852788
H         1.07865862140081    1.24132970920240    0.03882302149772
12
 energy: -21.646156112615 gnorm: 0.014066561425 xtb: 6.2.3 (830e466)
C         0.94721933561497    1.67389953470786   -2.05121426128125
C         0.63413578349719    0.77824484805718   -0.83031041266020
C         1.21408787391320   -0.59379925433670   -1.06715063682946
O         2.30054972526902    1.97958824811507   -1.99608007475514
O         0.15664600779588    2.82775433062575   -2.05652413040839
O         2.36967739568337   -0.87228683848610   -0.90274091318980
H         0.35865239325781    3.35009220660764   -1.26543909388630
H         2.58366588097067    2.43409735308438   -2.80021639004657
H         0.68177362203183    1.14684546414343   -2.98510684782630
H         0.47974521300401   -1.35363115879863   -1.42182950866561
H        -0.45006595472483    0.72877769371166   -0.69773560538700
H         1.11291272368689    1.24002757256846    0.03855787493599
12
 energy: -21.646671943820 gnorm: 0.009002608047 xtb: 6.2.3 (830e466)
C         0.94866218183232    1.66805389047627   -2.04749970732091
C         0.65140010506431    0.78228460677401   -0.81610061599515
C         1.20576528213780   -0.59327936898309   -1.06320080119869
O         2.29778130412755    1.99887888330049   -1.99127584337859
O         0.14139495091790    2.80572008760681   -2.07467243913185
O         2.34059230267168   -0.91522902295681   -0.85294627864996
H         0.32814157813295    3.33579183573984   -1.29194062775247
H         2.56989706324403    2.45140302097610   -2.79646927968510
H         0.69784596439308    1.12756467920856   -2.97395056295987
H         0.47017733322718   -1.30779958952407   -1.50063567785394
H        -0.42479117152576    0.75367654684139   -0.66075861627073
H         1.16213310577698    1.23254443054054    0.03366045019726
12
 energy: -21.646936253634 gnorm: 0.015606533992 xtb: 6.2.3 (830e466)
C         0.95321479846072    1.66146872781742   -2.04495331514818
C         0.67482539572412    0.78895607644092   -0.79863015812355
C         1.19198239140681   -0.59679509647844   -1.06424677768313
O         2.29748170468434    2.02388095578801   -1.98357658167057
O         0.12047736030599    2.77897486997685   -2.10111572964494
O         2.30130746966514   -0.97368780700765   -0.79848894670493
H         0.27554430971349    3.32369962032314   -1.31932409816140
H         2.55990777912519    2.47558380726308   -2.79136795396195
H         0.72385748320726    1.09931906444358   -2.96373948881774
H         0.45646616223076   -1.25833471498852   -1.59203578575564
H        -0.39700887741778    0.78588801200745   -0.60835375691278
H         1.23094402289396    1.23065648441417    0.03004259258478
12
 energy: -21.647106389075 gnorm: 0.015805672877 xtb: 6.2.3 (830e466)
C         0.95699751092479    1.65819966929089   -2.04507885478216
C         0.69441918145881    0.78973717962112   -0.79373655963189
C         1.17848651676631   -0.60391441032519   -1.05726040500551
O         2.29965489855585    2.04869429009291   -1.97999339518546
O         0.10541059389935    2.75481267459312   -2.11948475971258
O         2.24513943146423   -1.04295923723215   -0.75975072352051
H         0.23755281786885    3.31189224722832   -1.34066693693964
H         2.54175771479276    2.51199125155475   -2.78657365669926
H         0.75045624933881    1.08591578852408   -2.95889198854870
H         0.46407134204782   -1.20365157170279   -1.63654544738800
H        -0.36974751769714    0.80961338924126   -0.57560068481687
H         1.28480126057958    1.21927872911370    0.01779341223057
12
 energy: -21.647313711480 gnorm: 0.028885590871 xtb: 6.2.3 (830e466)
C         0.96160959667262    1.65550012368959   -2.04257649905656
C         0.72216719108919    0.79580526067623   -0.77944568934568
C         1.16744819532069   -0.60973176235472   -1.05847586493662
O         2.29817092272623    2.07282231421622   -1.98874132411678
O         0.08957602852114    2.73352802264219   -2.13247916802662
O         2.20219069335574   -1.10684307915883   -0.68277495590777
H         0.20848329640137    3.30332731196549   -1.36314930423966
H         2.52174587374222    2.54404050023605   -2.79782481560430
H         0.76821958528672    1.06589715842089   -2.94936431812478
H         0.46007607779554   -1.15659630620720   -1.72207414125745
H        -0.33576454506878    0.82786864365764   -0.54008358799835
H         1.32507708415733    1.21399181221646    0.02119966861456
12
 energy: -21.647523673310 gnorm: 0.008552347855 xtb: 6.2.3 (830e466)
C         0.96066042777421    1.65655152332529   -2.04084885133891
C         0.70993820111301    0.79576185972590   -0.78003642661399
C         1.17439726344473   -0.60638888419977   -1.06120529507277
O         2.29745415977766    2.05334927721544   -1.99146164335110
O         0.10090810580675    2.74831451982103   -2.12138378384098
O         2.22509176828813   -1.05980672831051   -0.71951514294367
H         0.23627363357960    3.31598692863970   -1.35275720353450
H         2.53356670804377    2.52321408578527   -2.79981350080055
H         0.75409717806450    1.07063592673079   -2.95067537754643
H         0.46670124667139   -1.19103391871446   -1.69383717120966
H        -0.35385704014353    0.80779230974901   -0.55927369690614
H         1.28376834757978    1.22523310023233    0.03501809315869
12
 energy: -21.647668730176 gnorm: 0.007541390624 xtb: 6.2.3 (830e466)
C         0.96059848430330    1.65828573667434   -2.04473135931852
C         0.71157215294834    0.79376255303631   -0.78799987515890
C         1.17523680525764   -0.60863798333406   -1.06257075753177
O         2.29638120005876    2.05530773698882   -1.99686500106323
O         0.10022294146035    2.74874590405584   -2.11795134792682
O         2.21699624370432   -1.07375272105360   -0.69999810490085
H         0.23799498493316    3.31381223292862   -1.34943356995433
H         2.53003300755168    2.53433406090773   -2.80003258299231
H         0.74979550518291    1.07680226150074   -2.95497402065976
H         0.47084270235755   -1.18700697181152   -1.68610354323663
H        -0.35363921937344    0.80635634596216   -0.56376119946885
H         1.29296519161543    1.22160084414464    0.02863136221195
12
 energy: -21.647853495250 gnorm: 0.013183450961 xtb: 6.2.3 (830e466)
C         0.96326366843837    1.65691209214175   -2.04566955970015
C         0.72561507609922    0.79536342948425   -0.78580025594215
C         1.17224029502884   -0.61217457299934   -1.05844441203500
O         2.29571424735305    2.06510005192761   -2.00506915081629
O         0.09297201970216    2.73909221700740   -2.12293960683223
O         2.18254010483682   -1.11505798974870   -0.64860054517252
H         0.22395698040783    3.31154682746799   -1.35681734098413
H         2.51782204788990    2.55428913800585   -2.80581994387515
H         0.75240330903433    1.06890940108954   -2.95161271296985
H         0.48082704645456   -1.15695331109145   -1.73288967680729
H        -0.33868399653750    0.81307076858187   -0.54933177867281
H         1.32032920129242    1.21951194813325    0.02720498380755
12
 energy: -21.648033111069 gnorm: 0.020560341089 xtb: 6.2.3 (830e466)
C         0.96414069644015    1.65834879582219   -2.04726457076904
C         0.73767455612284    0.79579662475647   -0.78801205565568
C         1.17663621387466   -0.61538608169063   -1.05167858496758
O         2.29461331620049    2.06676732522675   -2.02555691614695
O         0.09276644071810    2.74047787792425   -2.11422640043133
O         2.15014949614438   -1.14899303882333   -0.58516408261693
H         0.23589894606100    3.31571163350724   -1.35296483266443
H         2.50014731903179    2.56822610437986   -2.82422435038741
H         0.73868410381726    1.06997861072759   -2.95021419825304
H         0.50743617802025   -1.13669894041856   -1.77180819294538
H        -0.32706325110354    0.80606918321078   -0.55702370172683
H         1.31791598467262    1.21931190537740    0.03234788656458
12
 energy: -21.648346658537 gnorm: 0.008775530131 xtb: 6.2.3 (830e466)
C         0.96195918125029    1.65999261116359   -2.04975195146886
C         0.73760904609044    0.79509719272469   -0.79345622772308
C         1.18781547663203   -0.61501667698990   -1.04551571838183
O         2.29400408489044    2.05464473832065   -2.04394976417644
O         0.09940668984421    2.75378839211079   -2.09868917277671
O         2.13625449916711   -1.15212982995946   -0.54919057556295
H         0.26380772470208    3.32613987411882   -1.33765624082444
H         2.49222117464052    2.56289045353694   -2.84029693001232
H         0.71339134592450    1.07734203677220   -2.95311242525839
H         0.54086436186471   -1.13929505089243   -1.78578146406377
H        -0.33234511338014    0.78929674329974   -0.57875715444476
H         1.29401152837378    1.22685951579440    0.04036762469356
12
 energy: -21.648629535624 gnorm: 0.014938062440 xtb: 6.2.3 (830e466)
C         0.95372958475117    1.66036057859255   -2.05452906907713
C         0.73703931560988    0.79406994389711   -0.79980288949631
C         1.20140414217204   -0.61344412708550   -1.04000122779286
O         2.29150403552715    2.03516120934081   -2.07319550151872
O         0.10776634881738    2.77149099742973   -2.07781914305510
O         2.09783648591993   -1.16567737693905   -0.46322083297747
H         0.30345724793065    3.33431348596205   -1.31618877662736
H         2.47453784533392    2.55629147734899   -2.86505059401287
H         0.67709117772762    1.08787550888992   -2.95849940992077
H         0.60745169419218   -1.12947101949644   -1.83521090551033
H        -0.33855836010703    0.77161603522315   -0.59642897763328
H         1.27574048212510    1.23702328683670    0.04415732762220
12
 energy: -21.648996006849 gnorm: 0.008312234840 xtb: 6.2.3 (830e466)
C         0.93708688180992    1.66304767137580   -2.06100371091391
C         0.71945049253467    0.79020258187429   -0.81254712888544
C         1.22244250044161   -0.60701879383702   -1.03373901151672
O         2.28923225081308    1.99803203982961   -2.10354406233836
O         0.12714214552038    2.80519062177274   -2.04697248900666
O         2.08179555649910   -1.14621332325893   -0.39942561812706
H         0.36457789822487    3.34341197171698   -1.27775615968270
H         2.46482475724346    2.52694107071484   -2.89045985534922
H         0.62738814995134    1.11438266433175   -2.96896051954302
H         0.68673735623386   -1.14036713157891   -1.85123940375574
H        -0.36009834716860    0.74301494164171   -0.63103455372794
H         1.22842035789632    1.24898568541715    0.04089251284677
12
 energy: -21.649159769534 gnorm: 0.017107399589 xtb: 6.2.3 (830e466)
C         0.91932028766547    1.66361003877915   -2.06707698684588
C         0.70521534528529    0.78879023869900   -0.82094852012943
C         1.23793417032349   -0.59956322359820   -1.02267223443137
O         2.28507626905283    1.96191080431791   -2.13104560669917
O         0.14425944801150    2.82894321654731   -2.02661821785033
O         2.04780860773365   -1.14259556319928   -0.32185411432504
H         0.40776865572944    3.34581290066792   -1.25003534395274
H         2.45452943513852    2.50504568467210   -2.90985954835713
H         0.58439879087781    1.13292949907954   -2.97356287607450
H         0.77106003760246   -1.12567016219351   -1.90001026785170
H        -0.37242976018086    0.72397840339073   -0.64307818280990
H         1.20405871276041    1.25641816283735    0.03097189932719
12
 energy: -21.649242169916 gnorm: 0.020002107288 xtb: 6.2.3 (830e466)
C         0.90729295468118    1.66319520243465   -2.06950100336319
C         0.68913244871239    0.78961983651911   -0.82253452832442
C         1.23989054847293   -0.59216920344712   -1.02056964019271
O         2.28163556399055    1.93933821287649   -2.12837879559249
O         0.15551708671765    2.83622665322861   -2.02881112230295
O         2.04850095843200   -1.12289323676560   -0.33094073085803
H         0.41087274532850    3.33768300232376   -1.24365315301524
H         2.46537377917863    2.48775247874947   -2.89981163496872
H         0.57459474285413    1.14122475145212   -2.97379758068861
H         0.79721780278065   -1.11881287584266   -1.90077540334122
H        -0.38074320345885    0.72230073565831   -0.63317758591720
H         1.19971457231026    1.25614444281287    0.01616117856475
12
 energy: -21.649484854713 gnorm: 0.006931177941 xtb: 6.2.3 (830e466)
C         0.90821222434905    1.66234932111856   -2.06543686899720
C         0.69062011378701    0.79163741782050   -0.81692544938542
C         1.23590947326755   -0.59326756339063   -1.01930248361179
O         2.28020895728207    1.93356784484808   -2.13562438178170
O         0.15728684429772    2.83589541990741   -2.02655306488297
O         2.04218797241141   -1.13193443580500   -0.32271640879690
H         0.41447823479710    3.34325755340919   -1.24554794272642
H         2.46150761948786    2.47886729739411   -2.91005569124927
H         0.56421934173200    1.13487670761434   -2.96687446336892
H         0.82464146080939   -1.09712359605955   -1.92338430942699
H        -0.38265981050915    0.72324309721735   -0.63503697640864
H         1.19238756828798    1.25824093592563    0.03166804063622
12
 energy: -21.649532871830 gnorm: 0.012459040965 xtb: 6.2.3 (830e466)
C         0.91084007855491    1.66476146098618   -2.06157014568173
C         0.69577077386876    0.79273888534941   -0.81471842522460
C         1.25039335688253   -0.58743945054492   -1.03058240010447
O         2.27899315633588    1.93037578576415   -2.14717734311649
O         0.15969601572198    2.83806069079994   -2.02111458067077
O         2.02517352737322   -1.14605399957326   -0.30371787341166
H         0.41934456509326    3.35173203214067   -1.24476024047868
H         2.45625430836244    2.47323383128137   -2.92451621494887
H         0.55131931377185    1.13238375388767   -2.95961339546909
H         0.84296279869903   -1.08321749966250   -1.93272791557741
H        -0.38163713057029    0.71500492786631   -0.64465974126800
H         1.17988923590643    1.25802958170499    0.04936827595177
12
 energy: -21.649641822825 gnorm: 0.004760962943 xtb: 6.2.3 (830e466)
C         0.90810425081727    1.66444040342062   -2.06156873528213
C         0.69301293908485    0.79157487026602   -0.81505562089636
C         1.24649462729920   -0.58906052497979   -1.02462109723387
O         2.27698800134302    1.92480393565781   -2.14979963106973
O         0.16186260085306    2.84106275341433   -2.01893235889550
O         2.02149785632969   -1.14279530329299   -0.29957456207645
H         0.42489685504230    3.35333295781292   -1.24292802116619
H         2.45480785824072    2.46853075767878   -2.92635614484743
H         0.54496762806911    1.13497987117550   -2.95892549694740
H         0.86165891408877   -1.07818356616467   -1.94193162547963
H        -0.38329025854157    0.71386518061431   -0.64234525047642
H         1.17799872737358    1.25705866439717    0.04624854437109
12
 energy: -21.649703035442 gnorm: 0.002928076886 xtb: 6.2.3 (830e466)
C         0.90450736121982    1.66490666026225   -2.06204810963843
C         0.69141008350725    0.79063301060933   -0.81627605593828
C         1.24942740925644   -0.58835298243687   -1.02159009645933
O         2.27380463502432    1.91697005241363   -2.15748921230600
O         0.16518797514487    2.84605640409751   -2.01323076769506
O         2.00886004852375   -1.14485906916456   -0.28415145261680
H         0.43448227784433    3.35620942577750   -1.23807990151147
H         2.45077980714602    2.46276695576870   -2.93278079923854
H         0.53247198691447    1.13980732641861   -2.95808803920731
H         0.88980514669142   -1.07011791123452   -1.95389383206597
H        -0.38436301884013    0.70876586455264   -0.64358152085562
H         1.17262628756743    1.25682426293579    0.04541978753280
12
 energy: -21.649819782882 gnorm: 0.005816357081 xtb: 6.2.3 (830e466)
C         0.89334415019602    1.66651679543182   -2.06412751333107
C         0.68694963910425    0.78857221841918   -0.82061342320557
C         1.26288292061069   -0.58418179114497   -1.01609977605944
O         2.26461325871686    1.89364662204632   -2.18207115871193
O         0.17540934927623    2.86121026787290   -1.99485010980457
O         1.96858285618593   -1.15372783289959   -0.23504214529227
H         0.46486139395336    3.36308827199717   -1.22140119096643
H         2.43807201972451    2.44670561852046   -2.95309263178813
H         0.49446122759570    1.15491547554928   -2.95644580889114
H         0.97249479307132   -1.04714129575854   -1.98645724110756
H        -0.38775186371397    0.69103708649794   -0.64980359656584
H         1.15508025527910    1.25896856346803    0.04421459572394
12
 energy: -21.649891968926 gnorm: 0.004376556344 xtb: 6.2.3 (830e466)
C         0.88503753211251    1.66749392010442   -2.06677105401873
C         0.68236279779180    0.78736652389508   -0.82510964002350
C         1.27427038899256   -0.57972738665692   -1.01470545142624
O         2.25884493491883    1.87811128792221   -2.19643682038196
O         0.18328107094975    2.87151551648371   -1.98315534601540
O         1.94625187058326   -1.15620751327990   -0.20999832923350
H         0.48640261402835    3.36421550105600   -1.20882734619186
H         2.43104566590141    2.43766793457404   -2.96309259533269
H         0.47188135459534    1.16689326114043   -2.95787589191320
H         1.01895724935217   -1.03739081316029   -1.99600248291217
H        -0.39125370580791    0.67677410681649   -0.65529187662977
H         1.14191822658190    1.26289766110472    0.04147683407901
12
 energy: -21.649933884974 gnorm: 0.001735649099 xtb: 6.2.3 (830e466)
C         0.87974856851108    1.66784658359914   -2.06754443575387
C         0.67856286649407    0.78735348125054   -0.82713014355566
C         1.28199944411275   -0.57568351489322   -1.01470708670085
O         2.25542952296994    1.86778386998784   -2.20645966226054
O         0.18997419227572    2.87729672503861   -1.97599314898429
O         1.93261087635799   -1.15789061361720   -0.19871564525383
H         0.50201069599403    3.36223050378165   -1.20045848675839
H         2.42578358589398    2.43128206699542   -2.97064937517423
H         0.45796954385913    1.17360105732031   -2.95743648405903
H         1.04953465548287   -1.02862683940028   -1.99921660239556
H        -0.39473895905277    0.66684907803130   -0.66044049095429
H         1.13011500710120    1.26756760190589    0.04296156185054
12
 energy: -21.649841300467 gnorm: 0.014480070729 xtb: 6.2.3 (830e466)
C         0.86589486461204    1.66955103229894   -2.06780811132368
C         0.67134082656993    0.78692442418643   -0.83042492446381
C         1.29973828582906   -0.56751166280400   -1.01041541123081
O         2.24487137142168    1.83921774707311   -2.23890775266544
O         0.20661161241434    2.89375443850600   -1.95455176709485
O         1.88348773849549   -1.17097130050991   -0.15048706645999
H         0.54367032495936    3.36260657666611   -1.17874130405034
H         2.40717840308535    2.41070893166761   -2.99915461623342
H         0.41383402059432    1.18889466482681   -2.95197921178096
H         1.15356723920755   -0.99295760240733   -2.03036740737638
H        -0.40171501490271    0.64419317640013   -0.67295553887298
H         1.10052032771355    1.27519957409610    0.05000311155265
12
 energy: -21.649956229194 gnorm: 0.003308585463 xtb: 6.2.3 (830e466)
C         0.87140337013115    1.66877467849872   -2.06709685290621
C         0.67351791074284    0.78736857119695   -0.82836894816705
C         1.29165741563959   -0.57050864109247   -1.01174687383241
O         2.24910682815527    1.85078082785664   -2.22506750909197
O         0.20061833059568    2.88657740984434   -1.96424378875813
O         1.90541021614070   -1.16536766308027   -0.17409083695442
H         0.52684868518665    3.36108437853401   -1.18811940925963
H         2.41436182111039    2.41822430331334   -2.98745790556265
H         0.43296108408248    1.18135984640112   -2.95332148609658
H         1.11127197890161   -1.00518053965526   -2.01644725114318
H        -0.39961675425934    0.65468876640090   -0.66802719029304
H         1.11145911357294    1.27180806178200    0.04819805206527
12
 energy: -21.649963595141 gnorm: 0.000941110322 xtb: 6.2.3 (830e466)
C         0.87098304389563    1.66889558238653   -2.06720030632375
C         0.67296450342878    0.78717014389757   -0.82837695348981
C         1.29145711524757   -0.57027526782192   -1.01132493991570
O         2.24867910269268    1.85028650442948   -2.22471660025598
O         0.20103077301726    2.88685052879871   -1.96448648970296
O         1.90528612388841   -1.16524414574046   -0.17529422286555
H         0.52709330485380    3.36087799985841   -1.18816209041825
H         2.41407376875754    2.41747222492362   -2.98720333233464
H         0.43302792007468    1.18130951773297   -2.95333437117273
H         1.11298159164343   -1.00369324354057   -2.01549454233785
H        -0.39988585489152    0.65510749770045   -0.66755353519232
H         1.11130860739172    1.27085265737521    0.04735738400953
12
 energy: -21.649965384654 gnorm: 0.000561898000 xtb: 6.2.3 (830e466)
C         0.87080050968629    1.66899880940692   -2.06696576208987
C         0.67274764766803    0.78697139846042   -0.82787965944258
C         1.29131789726702   -0.56999920893069   -1.01116269145020
O         2.24810015306379    1.84966121230533   -2.22520731224606
O         0.20130928796037    2.88692730028531   -1.96424592893002
O         1.90265403083895   -1.16634010596230   -0.17490515659630
H         0.52748677920331    3.36142147171890   -1.18840872302851
H         2.41333578550547    2.41596351430777   -2.98835300579856
H         0.43211819911343    1.18116591126399   -2.95264965095027
H         1.11811040645946   -1.00048250785388   -2.01665840690526
H        -0.40001394160735    0.65533641105734   -0.66686280616572
H         1.11103324484119    1.26998579394090    0.04750910360333
