      -----------------------------------------------------------      
     |                   =====================                   |     
     |                           x T B                           |     
     |                   =====================                   |     
     |                         S. Grimme                         |     
     |          Mulliken Center for Theoretical Chemistry        |     
     |                    University of Bonn                     |     
      -----------------------------------------------------------      

   * xtb version 6.2.3 (830e466) compiled by 'ehlert@majestix' on 2020-03-16

   xtb is free software: you can redistribute it and/or modify it under
   the terms of the GNU Lesser General Public License as published by
   the Free Software Foundation, either version 3 of the License, or
   (at your option) any later version.
   
   xtb is distributed in the hope that it will be useful,
   but WITHOUT ANY WARRANTY; without even the implied warranty of
   MERCHANTABILITY or FITNESS FOR A PARTICULAR PURPOSE.  See the
   GNU Lesser General Public License for more details.
   
   Cite this work as:
   * S. Grimme, C. Bannwarth, P. Shushkov, J. Chem. Theory Comput., 2017,
     13, 1989-2009. DOI: 10.1021/acs.jctc.7b00118
   * C. Bannwarth, S. Ehlert and S. Grimme., J. Chem. Theory Comput., 2019,
     15, 1652-1671. DOI: 10.1021/acs.jctc.8b01176
   * P. Pracht, E. Caldeweyher, S. Ehlert, S. Grimme, ChemRxiv, 2019, preprint.
     DOI: 10.26434/chemrxiv.8326202.v1
   
   for DFT-D4:
   * E. Caldeweyher, C. Bannwarth and S. Grimme, J. Chem. Phys., 2017,
     147, 034112. DOI: 10.1063/1.4993215
   * E. Caldeweyher, S. Ehlert, A. Hansen, H. Neugebauer, S. Spicher,
     C. Bannwarth and S. Grimme, J. Chem. Phys., 2019, 150, 154122.
     DOI: 10.1063/1.5090222
   
   for sTDA-xTB:
   * S. Grimme and C. Bannwarth, J. Chem. Phys., 2016, 145, 054103.
     DOI: 10.1063/1.4959605
   
   in the mass-spec context:
   * V. Asgeirsson, C. Bauer and S. Grimme, Chem. Sci., 2017, 8, 4879.
     DOI: 10.1039/c7sc00601b
   
   for metadynamics refer to:
   * S. Grimme, J. Chem. Theory Comput., 2019, 155, 2847-2862
     DOI: 10.1021/acs.jctc.9b00143
   
   with help from (in alphabetical order)
   C. Bannwarth, F. Bohle, G. Brandenburg, E. Caldeweyher, M. Checinski,
   S. Dohm, S. Ehlert, S. Ehrlich, F. März, H. Neugebauer, J. Pisarek,
   P. Pracht, P. Shushkov, and S. Spicher.
   
 * started run on 2020/12/23 at 21:42:04.860     

           -------------------------------------------------
          |                Calculation Setup                |
           -------------------------------------------------

          program call               : xtb -c 0 -u 0 -a 1.0 --iterations 100 --opt normal --namespace product_19 /scratch/bell/zhao922/YARP/paper-example/potential_product/test/reaction_channel/pp_0/pp_20_1.xyz
          hostname                   : bell-fe05.rcac.purdue.edu
          calculation namespace      : product_19
          coordinate file            : /scratch/bell/zhao922/YARP/paper-example/potential_product/test/reaction_channel/pp_0/pp_20_1.xyz
          omp threads                :                    32
          number of atoms            :                    12
          number of electrons        :                    36
          charge                     :                     0
          spin                       :                   0.0
          first test random number   :      0.48242105776714


molecular fragmentation (1/2 indicates fragments):
111111111212
# atoms in fragment 1/2:    10     2
 fragment masses (1/2) :       88.06        2.02
CMA distance (Bohr)    :   6.321
constraining FC (au)   :  0.0500
           ------------------------------------------------- 
          |                 G F N 2 - x T B                 |
          | Geometry, Frequencies, Noncovalent interactions |
          |            JCTC 2019 parametrisation            |
           ------------------------------------------------- 
             k(s)              :                1.8500
             k(p)              :                2.2300
             k(d)              :                2.2300
             k(f)              :                2.0000
             kEN (H0ij)        :               -2.0000
             D4 a1             :                0.5200
             D4 a2             :                5.0000
             D4 s6             :                1.0000
             D4 s8             :                2.7000
             D4 s9             :                5.0000
             alphaj            :                2.0000

  Z AO/shell   Hii/eV     exponent
  1     Wed Apr 25 08:07:45 CEST 2018   EN: 2.200 GM2: 0.406  GM3: 0.0800  RAES: 1.40
     1s    -10.707211    1.230000
  6     Wed Apr 25 08:07:45 CEST 2018   EN: 2.550 GM2: 0.538  GM3: 0.1500  RAES: 3.00
     2s    -13.970922    2.096432
     2p    -10.063292    1.800000
  8     Wed Apr 25 08:07:45 CEST 2018   EN: 3.440 GM2: 0.452  GM3:-0.0517  RAES: 1.80
     2s    -20.229985    2.439742
     2p    -15.503117    2.137023

           ------------------------------------------------- 
          |        Self-Consistent Charge Iterations        |
           ------------------------------------------------- 

          ...................................................
          :                      SETUP                      :
          :.................................................:
          :  # basis functions                  30          :
          :  # atomic orbitals                  30          :
          :  # shells                           18          :
          :  # electrons                        36          :
          :  max. iterations                   100          :
          :  Hamiltonian                  GFN2-xTB          :
          :  restarted?                      false          :
          :  GBSA solvation                  false          :
          :  PC potential                    false          :
          :  electronic temp.          300.0000000     K    :
          :  accuracy                    1.0000000          :
          :  -> integral cutoff          0.2500000E+02      :
          :  -> integral neglect         0.1000000E-07      :
          :  -> SCF convergence          0.1000000E-05 Eh   :
          :  -> wf. convergence          0.1000000E-03 e    :
          :  Broyden damping             0.4000000          :
          ...................................................

 iter      E             dE          RMSdq      gap      omega  full diag
   1    -21.6507347 -0.216507E+02  0.553E+00    4.12       0.0  T
   2    -21.6867920 -0.360572E-01  0.334E+00    2.65       1.0  T
   3    -21.6962238 -0.943182E-02  0.214E+00    3.63       1.0  T
   4    -21.7142161 -0.179923E-01  0.348E-01    3.02       1.0  T
   5    -21.7151718 -0.955709E-03  0.907E-02    3.09       1.0  T
   6    -21.7151932 -0.214101E-04  0.465E-02    3.10       1.0  T
   7    -21.7151994 -0.613430E-05  0.179E-02    3.10       1.6  T
   8    -21.7151996 -0.259573E-06  0.485E-03    3.10       5.9  T
   9    -21.7151997 -0.951055E-07  0.248E-03    3.10      11.6  T
  10    -21.7151997 -0.412438E-07  0.697E-04    3.10      41.4  T
  11    -21.7151997 -0.200468E-08  0.355E-04    3.10      81.4  T

   *** convergence criteria satisfied after 11 iterations ***

         #    Occupation            Energy/Eh            Energy/eV
      -------------------------------------------------------------
         1        2.0000           -0.7525227             -20.4772
       ...           ...                  ...                  ...
        12        2.0000           -0.5329388             -14.5020
        13        2.0000           -0.5116294             -13.9221
        14        2.0000           -0.4917047             -13.3800
        15        2.0000           -0.4760348             -12.9536
        16        2.0000           -0.4617348             -12.5644
        17        2.0000           -0.4385261             -11.9329
        18        2.0000           -0.3897345             -10.6052 (HOMO)
        19                         -0.2759520              -7.5090 (LUMO)
        20                         -0.1947147              -5.2985
        21                         -0.0537510              -1.4626
        22                          0.0581931               1.5835
        23                          0.0826239               2.2483
       ...                                ...                  ...
        30                          1.0186353              27.7185
      -------------------------------------------------------------
                  HL-Gap            0.1137826 Eh            3.0962 eV
             Fermi-level           -0.3328432 Eh           -9.0571 eV

 SCC (total)                   0 d,  0 h,  0 min,  0.093 sec
 SCC setup                      ...        0 min,  0.000 sec (  0.297%)
 Dispersion                     ...        0 min,  0.000 sec (  0.061%)
 integral evaluation            ...        0 min,  0.081 sec ( 87.325%)
 zeroth order Hamiltonian       ...        0 min,  0.000 sec (  0.088%)
 iterations                     ...        0 min,  0.008 sec (  9.134%)
 molecular gradient             ...        0 min,  0.002 sec (  2.561%)
 printout                       ...        0 min,  0.000 sec (  0.346%)

         :::::::::::::::::::::::::::::::::::::::::::::::::::::
         ::                     SUMMARY                     ::
         :::::::::::::::::::::::::::::::::::::::::::::::::::::
         :: total energy             -21.487697285021 Eh    ::
         :: gradient norm              0.147923577488 Eh/a0 ::
         :: HOMO-LUMO gap              3.096181267682 eV    ::
         ::.................................................::
         :: SCC energy               -21.715199748927 Eh    ::
         :: -> isotropic ES            0.039964733291 Eh    ::
         :: -> anisotropic ES          0.006834074401 Eh    ::
         :: -> anisotropic XC          0.001470175813 Eh    ::
         :: -> dispersion             -0.005730648794 Eh    ::
         :: repulsion energy           0.227491016733 Eh    ::
         :: add. restraining           0.000000000000 Eh    ::
         :::::::::::::::::::::::::::::::::::::::::::::::::::::

      ----------------------------------------------------------- 
     |                   =====================                   |
     |                        A N C O P T                        |
     |                   =====================                   |
     |               Approximate Normal Coordinate               |
     |                Rational Function Optimizer                |
      ----------------------------------------------------------- 

          ...................................................
          :                      SETUP                      :
          :.................................................:
          :   optimization level            normal          :
          :   max. optcycles                   200          :
          :   ANC micro-cycles                  20          :
          :   degrees of freedom                30          :
          :.................................................:
          :   RF solver                   davidson          :
          :   write xtbopt.log                true          :
          :   linear?                        false          :
          :   energy convergence         0.5000000E-05 Eh   :
          :   grad. convergence          0.1000000E-02 Eh/α :
          :   maximium RF displ.         1.0000000          :
          :   Hlow (freq-cutoff)         0.1000000E-01      :
          :   Hmax (freq-cutoff)         5.0000000          :
          :   S6 in model hess.         20.0000000          :
          ...................................................

generating ANC from model Hessian ...
Using Lindh-Hessian (1995)
 Shifting diagonal of input Hessian by   1.025995379624884E-002
 Lowest  eigenvalues of input Hessian
    0.010000   -0.000000   -0.000000   -0.000000    0.000000    0.000000
    0.000000    0.010369    0.011087    0.012174    0.012534    0.014768
    0.016071    0.020401    0.027300    0.042021    0.053923    0.079130
 Highest eigenvalues
    1.133433    1.175875    1.321080    1.407905    1.641029    2.618501
 

........................................................................
.............................. CYCLE    1 ..............................
........................................................................
   1    -21.7151997 -0.217152E+02  0.165E-04    3.10       0.0  T
   2    -21.7151997 -0.880931E-10  0.131E-04    3.10     220.5  T
   3    -21.7151998 -0.175532E-09  0.515E-05    3.10     560.0  T
     SCC iter.                  ...        0 min,  0.002 sec
     gradient                   ...        0 min,  0.002 sec
 * total energy  :   -21.4876973 Eh     change       -0.7209302E-08 Eh
   gradient norm :     0.1479180 Eh/α   predicted     0.0000000E+00 (-100.00%)
   displ. norm   :     0.3126017 α      lambda       -0.2492432E-01
   maximum displ.:     0.1853671 α      in ANC's #10, #5, #17, ...

........................................................................
.............................. CYCLE    2 ..............................
........................................................................
   1    -21.7354794 -0.217355E+02  0.576E-01    3.39       0.0  T
   2    -21.7358653 -0.385908E-03  0.381E-01    3.23       1.0  T
   3    -21.7360832 -0.217916E-03  0.241E-01    3.35       1.0  T
   4    -21.7362798 -0.196620E-03  0.302E-02    3.30       1.0  T
   5    -21.7362825 -0.273251E-05  0.141E-02    3.30       2.0  T
   6    -21.7362834 -0.846054E-06  0.718E-03    3.30       4.0  T
   7    -21.7362835 -0.102004E-06  0.272E-03    3.30      10.6  T
   8    -21.7362835 -0.232222E-07  0.114E-03    3.30      25.4  T
     SCC iter.                  ...        0 min,  0.004 sec
     gradient                   ...        0 min,  0.088 sec
 * total energy  :   -21.5033893 Eh     change       -0.1569198E-01 Eh
   gradient norm :     0.0433926 Eh/α   predicted    -0.1367996E-01 ( -12.82%)
   displ. norm   :     0.3849643 α      lambda       -0.5992050E-02
   maximum displ.:     0.2398921 α      in ANC's #5, #10, #7, ...

........................................................................
.............................. CYCLE    3 ..............................
........................................................................
   1    -21.7428333 -0.217428E+02  0.508E-01    3.38       0.0  T
   2    -21.7428932 -0.599119E-04  0.316E-01    3.35       1.0  T
   3    -21.7428136  0.795571E-04  0.107E-01    3.39       1.0  T
   4    -21.7429275 -0.113910E-03  0.213E-02    3.35       1.4  T
   5    -21.7429287 -0.119877E-05  0.871E-03    3.36       3.3  T
   6    -21.7429288 -0.107085E-06  0.371E-03    3.36       7.8  T
   7    -21.7429289 -0.470540E-07  0.169E-03    3.36      17.0  T
     SCC iter.                  ...        0 min,  0.005 sec
     gradient                   ...        0 min,  0.003 sec
 * total energy  :   -21.5068635 Eh     change       -0.3474267E-02 Eh
   gradient norm :     0.0160661 Eh/α   predicted    -0.3440034E-02 (  -0.99%)
   displ. norm   :     0.4065398 α      lambda       -0.3356328E-02
   maximum displ.:     0.3026691 α      in ANC's #5, #10, #9, ...

........................................................................
.............................. CYCLE    4 ..............................
........................................................................
   1    -21.7434276 -0.217434E+02  0.482E-01    3.35       0.0  T
   2    -21.7434715 -0.438853E-04  0.303E-01    3.34       1.0  T
   3    -21.7434801 -0.866409E-05  0.471E-02    3.36       1.0  T
   4    -21.7434947 -0.145099E-04  0.195E-02    3.34       1.5  T
   5    -21.7434957 -0.100291E-05  0.119E-02    3.35       2.4  T
   6    -21.7434962 -0.498802E-06  0.409E-03    3.35       7.1  T
   7    -21.7434962 -0.520314E-07  0.201E-03    3.35      14.4  T
   8    -21.7434962 -0.191165E-07  0.107E-03    3.35      27.1  T
     SCC iter.                  ...        0 min,  0.091 sec
     gradient                   ...        0 min,  0.003 sec
 * total energy  :   -21.5082423 Eh     change       -0.1378784E-02 Eh
   gradient norm :     0.0232993 Eh/α   predicted    -0.1955523E-02 (  41.83%)
   displ. norm   :     0.2343963 α      lambda       -0.1374664E-02
   maximum displ.:     0.1602629 α      in ANC's #5, #7, #9, ...

........................................................................
.............................. CYCLE    5 ..............................
........................................................................
   1    -21.7455318 -0.217455E+02  0.231E-01    3.36       0.0  T
   2    -21.7455381 -0.622530E-05  0.145E-01    3.37       1.0  T
   3    -21.7455273  0.107858E-04  0.367E-02    3.35       1.0  T
   4    -21.7455429 -0.155806E-04  0.774E-03    3.37       3.7  T
   5    -21.7455429 -0.291827E-07  0.316E-03    3.37       9.1  T
   6    -21.7455429 -0.191294E-07  0.947E-04    3.37      30.5  T
     SCC iter.                  ...        0 min,  0.004 sec
     gradient                   ...        0 min,  0.087 sec
 * total energy  :   -21.5092714 Eh     change       -0.1029050E-02 Eh
   gradient norm :     0.0135065 Eh/α   predicted    -0.7250966E-03 ( -29.54%)
   displ. norm   :     0.3866538 α      lambda       -0.1311448E-02
   maximum displ.:     0.2737896 α      in ANC's #5, #7, #9, ...

........................................................................
.............................. CYCLE    6 ..............................
........................................................................
   1    -21.7441194 -0.217441E+02  0.350E-01    3.34       0.0  T
   2    -21.7441427 -0.233405E-04  0.219E-01    3.37       1.0  T
   3    -21.7440691  0.736073E-04  0.942E-02    3.32       1.0  T
   4    -21.7441621 -0.929543E-04  0.128E-02    3.36       2.2  T
   5    -21.7441623 -0.245054E-06  0.757E-03    3.35       3.8  T
   6    -21.7441624 -0.101111E-06  0.206E-03    3.35      14.0  T
   7    -21.7441624 -0.792475E-08  0.727E-04    3.35      39.7  T
     SCC iter.                  ...        0 min,  0.004 sec
     gradient                   ...        0 min,  0.002 sec
 * total energy  :   -21.5101050 Eh     change       -0.8336695E-03 Eh
   gradient norm :     0.0135034 Eh/α   predicted    -0.7537423E-03 (  -9.59%)
   displ. norm   :     0.3313250 α      lambda       -0.7092097E-03
   maximum displ.:     0.2263762 α      in ANC's #5, #7, #6, ...

........................................................................
.............................. CYCLE    7 ..............................
........................................................................
   1    -21.7474485 -0.217474E+02  0.311E-01    3.40       0.0  T
   2    -21.7474636 -0.150671E-04  0.192E-01    3.37       1.0  T
   3    -21.7474095  0.540795E-04  0.826E-02    3.41       1.0  T
   4    -21.7474771 -0.676629E-04  0.105E-02    3.38       2.8  T
   5    -21.7474772 -0.436936E-07  0.480E-03    3.38       6.0  T
   6    -21.7474772 -0.377751E-07  0.141E-03    3.38      20.5  T
   7    -21.7474772 -0.714804E-08  0.384E-04    3.38      75.2  T
     SCC iter.                  ...        0 min,  0.091 sec
     gradient                   ...        0 min,  0.002 sec
 * total energy  :   -21.5106266 Eh     change       -0.5215596E-03 Eh
   gradient norm :     0.0139241 Eh/α   predicted    -0.3935324E-03 ( -24.55%)
   displ. norm   :     0.4280441 α      lambda       -0.7798668E-03
   maximum displ.:     0.2688745 α      in ANC's #5, #6, #7, ...

........................................................................
.............................. CYCLE    8 ..............................
........................................................................
   1    -21.7480807 -0.217481E+02  0.388E-01    3.39       0.0  T
   2    -21.7480981 -0.174625E-04  0.240E-01    3.38       1.0  T
   3    -21.7480879  0.102582E-04  0.468E-02    3.40       1.0  T
   4    -21.7481089 -0.210609E-04  0.156E-02    3.38       1.9  T
   5    -21.7481092 -0.283098E-06  0.461E-03    3.39       6.3  T
   6    -21.7481092 -0.146744E-07  0.141E-03    3.39      20.5  T
   7    -21.7481092 -0.110646E-07  0.457E-04    3.39      63.1  T
     SCC iter.                  ...        0 min,  0.004 sec
     gradient                   ...        0 min,  0.002 sec
 * total energy  :   -21.5111916 Eh     change       -0.5649929E-03 Eh
   gradient norm :     0.0063673 Eh/α   predicted    -0.4613819E-03 ( -18.34%)
   displ. norm   :     0.4806831 α      lambda       -0.5285206E-03
   maximum displ.:     0.2731830 α      in ANC's #5, #7, #6, ...

........................................................................
.............................. CYCLE    9 ..............................
........................................................................
   1    -21.7449289 -0.217449E+02  0.485E-01    3.37       0.0  T
   2    -21.7449485 -0.195863E-04  0.298E-01    3.38       1.0  T
   3    -21.7449509 -0.243368E-05  0.339E-02    3.37       1.0  T
   4    -21.7449590 -0.810400E-05  0.164E-02    3.38       1.8  T
   5    -21.7449594 -0.424384E-06  0.740E-03    3.37       3.9  T
   6    -21.7449596 -0.192825E-06  0.250E-03    3.37      11.5  T
   7    -21.7449597 -0.221087E-07  0.528E-04    3.37      54.7  T
     SCC iter.                  ...        0 min,  0.090 sec
     gradient                   ...        0 min,  0.002 sec
 * total energy  :   -21.5115278 Eh     change       -0.3361826E-03 Eh
   gradient norm :     0.0123238 Eh/α   predicted    -0.3253078E-03 (  -3.23%)
   displ. norm   :     0.3056144 α      lambda       -0.3940918E-03
   maximum displ.:     0.1898339 α      in ANC's #6, #7, #5, ...

........................................................................
.............................. CYCLE   10 ..............................
........................................................................
   1    -21.7472447 -0.217472E+02  0.331E-01    3.38       0.0  T
   2    -21.7472524 -0.777382E-05  0.201E-01    3.37       1.0  T
   3    -21.7472556 -0.317515E-05  0.173E-02    3.38       1.7  T
   4    -21.7472566 -0.982389E-06  0.101E-02    3.37       2.9  T
   5    -21.7472568 -0.234925E-06  0.398E-03    3.38       7.3  T
   6    -21.7472569 -0.571043E-07  0.149E-03    3.37      19.4  T
   7    -21.7472569 -0.739262E-08  0.391E-04    3.37      73.9  T
     SCC iter.                  ...        0 min,  0.004 sec
     gradient                   ...        0 min,  0.003 sec
 * total energy  :   -21.5117311 Eh     change       -0.2033014E-03 Eh
   gradient norm :     0.0113446 Eh/α   predicted    -0.2154506E-03 (   5.98%)
   displ. norm   :     0.2309149 α      lambda       -0.2518910E-03
   maximum displ.:     0.1262725 α      in ANC's #7, #6, #5, ...

........................................................................
.............................. CYCLE   11 ..............................
........................................................................
   1    -21.7472652 -0.217473E+02  0.227E-01    3.42       0.0  T
   2    -21.7472736 -0.843454E-05  0.139E-01    3.40       1.0  T
   3    -21.7472415  0.321617E-04  0.621E-02    3.43       1.0  T
   4    -21.7472813 -0.398239E-04  0.751E-03    3.40       3.8  T
   5    -21.7472813 -0.333276E-07  0.281E-03    3.40      10.3  T
   6    -21.7472813 -0.485393E-08  0.106E-03    3.40      27.3  T
     SCC iter.                  ...        0 min,  0.004 sec
     gradient                   ...        0 min,  0.002 sec
 * total energy  :   -21.5118937 Eh     change       -0.1626482E-03 Eh
   gradient norm :     0.0056658 Eh/α   predicted    -0.1326599E-03 ( -18.44%)
   displ. norm   :     0.1930011 α      lambda       -0.1294394E-03
   maximum displ.:     0.1086645 α      in ANC's #7, #6, #5, ...

........................................................................
.............................. CYCLE   12 ..............................
........................................................................
   1    -21.7488327 -0.217488E+02  0.219E-01    3.43       0.0  T
   2    -21.7488389 -0.616857E-05  0.133E-01    3.41       1.0  T
   3    -21.7488121  0.267199E-04  0.552E-02    3.44       1.0  T
   4    -21.7488448 -0.326750E-04  0.663E-03    3.42       4.4  T
   5    -21.7488448 -0.215506E-07  0.187E-03    3.42      15.4  T
   6    -21.7488448 -0.337155E-08  0.441E-04    3.42      65.4  T
     SCC iter.                  ...        0 min,  0.003 sec
     gradient                   ...        0 min,  0.003 sec
 * total energy  :   -21.5119805 Eh     change       -0.8679824E-04 Eh
   gradient norm :     0.0055068 Eh/α   predicted    -0.6713154E-04 ( -22.66%)
   displ. norm   :     0.2766160 α      lambda       -0.1666867E-03
   maximum displ.:     0.1568885 α      in ANC's #6, #7, #5, ...

........................................................................
.............................. CYCLE   13 ..............................
........................................................................
   1    -21.7484285 -0.217484E+02  0.327E-01    3.44       0.0  T
   2    -21.7484399 -0.113391E-04  0.199E-01    3.42       1.0  T
   3    -21.7483956  0.442423E-04  0.696E-02    3.46       1.0  T
   4    -21.7484501 -0.544278E-04  0.100E-02    3.43       2.9  T
   5    -21.7484501 -0.570280E-07  0.292E-03    3.43       9.9  T
   6    -21.7484501 -0.120157E-07  0.982E-04    3.43      29.4  T
     SCC iter.                  ...        0 min,  0.003 sec
     gradient                   ...        0 min,  0.003 sec
 * total energy  :   -21.5120540 Eh     change       -0.7347834E-04 Eh
   gradient norm :     0.0074935 Eh/α   predicted    -0.8972168E-04 (  22.11%)
   displ. norm   :     0.1870756 α      lambda       -0.1298114E-03
   maximum displ.:     0.1000733 α      in ANC's #6, #7, #8, ...

........................................................................
.............................. CYCLE   14 ..............................
........................................................................
   1    -21.7484843 -0.217485E+02  0.225E-01    3.43       0.0  T
   2    -21.7484886 -0.434903E-05  0.137E-01    3.43       1.0  T
   3    -21.7484859  0.272057E-05  0.238E-02    3.44       1.2  T
   4    -21.7484915 -0.559087E-05  0.768E-03    3.43       3.8  T
   5    -21.7484915 -0.344649E-07  0.378E-03    3.43       7.6  T
   6    -21.7484916 -0.605716E-07  0.114E-03    3.43      25.2  T
   7    -21.7484916 -0.452255E-08  0.490E-04    3.43      58.9  T
     SCC iter.                  ...        0 min,  0.005 sec
     gradient                   ...        0 min,  0.088 sec
 * total energy  :   -21.5121313 Eh     change       -0.7730789E-04 Eh
   gradient norm :     0.0058764 Eh/α   predicted    -0.6717633E-04 ( -13.11%)
   displ. norm   :     0.0897497 α      lambda       -0.1088139E-03
   maximum displ.:     0.0550567 α      in ANC's #8, #2, #5, ...

........................................................................
.............................. CYCLE   15 ..............................
........................................................................
   1    -21.7531511 -0.217532E+02  0.127E-01    3.47       0.0  T
   2    -21.7531553 -0.425434E-05  0.787E-02    3.46       1.0  T
   3    -21.7531469  0.844846E-05  0.360E-02    3.48       1.0  T
   4    -21.7531586 -0.116723E-04  0.593E-03    3.46       4.9  T
   5    -21.7531586 -0.530914E-07  0.325E-03    3.46       8.9  T
   6    -21.7531586 -0.231481E-07  0.116E-03    3.46      24.8  T
   7    -21.7531586 -0.492966E-08  0.511E-04    3.46      56.5  T
     SCC iter.                  ...        0 min,  0.004 sec
     gradient                   ...        0 min,  0.092 sec
 * total energy  :   -21.5121566 Eh     change       -0.2524680E-04 Eh
   gradient norm :     0.0087824 Eh/α   predicted    -0.5484702E-04 ( 117.24%)
   displ. norm   :     0.3451915 α      lambda       -0.1917991E-03
   maximum displ.:     0.1890967 α      in ANC's #6, #7, #8, ...

........................................................................
.............................. CYCLE   16 ..............................
........................................................................
   1    -21.7470701 -0.217471E+02  0.440E-01    3.43       0.0  T
   2    -21.7470851 -0.149616E-04  0.267E-01    3.43       1.0  T
   3    -21.7470890 -0.390435E-05  0.277E-02    3.43       1.0  T
   4    -21.7470939 -0.495567E-05  0.141E-02    3.43       2.0  T
   5    -21.7470942 -0.215574E-06  0.674E-03    3.43       4.3  T
   6    -21.7470944 -0.196410E-06  0.252E-03    3.43      11.5  T
   7    -21.7470944 -0.320668E-07  0.100E-03    3.43      28.8  T
     SCC iter.                  ...        0 min,  0.005 sec
     gradient                   ...        0 min,  0.003 sec
 * total energy  :   -21.5121667 Eh     change       -0.1016644E-04 Eh
   gradient norm :     0.0125550 Eh/α   predicted    -0.1073242E-03 ( 955.67%)
   displ. norm   :     0.1549032 α      lambda       -0.2322275E-03
   maximum displ.:     0.0968494 α      in ANC's #6, #7, #5, ...

........................................................................
.............................. CYCLE   17 ..............................
........................................................................
   1    -21.7492963 -0.217493E+02  0.185E-01    3.45       0.0  T
   2    -21.7493002 -0.389940E-05  0.112E-01    3.45       1.0  T
   3    -21.7492992  0.101720E-05  0.175E-02    3.46       1.6  T
   4    -21.7493018 -0.267373E-05  0.641E-03    3.45       4.5  T
   5    -21.7493019 -0.114980E-06  0.337E-03    3.45       8.6  T
   6    -21.7493020 -0.308150E-07  0.151E-03    3.45      19.1  T
   7    -21.7493020 -0.711173E-08  0.372E-04    3.45      77.6  T
     SCC iter.                  ...        0 min,  0.005 sec
     gradient                   ...        0 min,  0.002 sec
 * total energy  :   -21.5122734 Eh     change       -0.1066309E-03 Eh
   gradient norm :     0.0038533 Eh/α   predicted    -0.1188983E-03 (  11.50%)
   displ. norm   :     0.0773903 α      lambda       -0.5782648E-04
   maximum displ.:     0.0531294 α      in ANC's #8, #5, #2, ...

........................................................................
.............................. CYCLE   18 ..............................
........................................................................
   1    -21.7497192 -0.217497E+02  0.109E-01    3.46       0.0  T
   2    -21.7497212 -0.197063E-05  0.681E-02    3.45       1.0  T
   3    -21.7497158  0.535795E-05  0.257E-02    3.47       1.1  T
   4    -21.7497229 -0.711973E-05  0.460E-03    3.46       6.3  T
   5    -21.7497229 -0.925968E-08  0.202E-03    3.46      14.3  T
   6    -21.7497230 -0.184401E-07  0.594E-04    3.46      48.6  T
   7    -21.7497230 -0.138084E-08  0.319E-04    3.46      90.5  T
     SCC iter.                  ...        0 min,  0.093 sec
     gradient                   ...        0 min,  0.004 sec
 * total energy  :   -21.5123212 Eh     change       -0.4786390E-04 Eh
   gradient norm :     0.0034498 Eh/α   predicted    -0.2908655E-04 ( -39.23%)
   displ. norm   :     0.3068623 α      lambda       -0.1688549E-03
   maximum displ.:     0.2096696 α      in ANC's #8, #5, #7, ...

........................................................................
.............................. CYCLE   19 ..............................
........................................................................
   1    -21.7477703 -0.217478E+02  0.450E-01    3.47       0.0  T
   2    -21.7477920 -0.216212E-04  0.278E-01    3.45       1.0  T
   3    -21.7477690  0.229969E-04  0.612E-02    3.48       1.0  T
   4    -21.7478090 -0.400112E-04  0.181E-02    3.46       1.6  T
   5    -21.7478093 -0.308167E-06  0.478E-03    3.46       6.0  T
   6    -21.7478094 -0.934054E-07  0.230E-03    3.46      12.5  T
   7    -21.7478094 -0.226496E-07  0.126E-03    3.46      22.9  T
   8    -21.7478094 -0.600932E-08  0.699E-04    3.46      41.3  T
   9    -21.7478094 -0.235623E-08  0.103E-04    3.46     279.0  T
     SCC iter.                  ...        0 min,  0.093 sec
     gradient                   ...        0 min,  0.002 sec
 * total energy  :   -21.5124070 Eh     change       -0.8573585E-04 Eh
   gradient norm :     0.0061845 Eh/α   predicted    -0.9238175E-04 (   7.75%)
   displ. norm   :     0.1172769 α      lambda       -0.7599645E-04
   maximum displ.:     0.0776052 α      in ANC's #5, #6, #7, ...

........................................................................
.............................. CYCLE   20 ..............................
........................................................................
   1    -21.7510947 -0.217511E+02  0.870E-02    3.48       0.0  T
   2    -21.7510954 -0.736918E-06  0.534E-02    3.48       1.0  T
   3    -21.7510953  0.834697E-07  0.670E-03    3.48       4.3  T
   4    -21.7510957 -0.357704E-06  0.311E-03    3.48       9.3  T
   5    -21.7510957 -0.428098E-07  0.144E-03    3.48      20.0  T
   6    -21.7510957 -0.217748E-08  0.444E-04    3.48      65.1  T
     SCC iter.                  ...        0 min,  0.003 sec
     gradient                   ...        0 min,  0.002 sec
 * total energy  :   -21.5124308 Eh     change       -0.2381730E-04 Eh
   gradient norm :     0.0044772 Eh/α   predicted    -0.3851974E-04 (  61.73%)
   displ. norm   :     0.0663197 α      lambda       -0.5075122E-04
   maximum displ.:     0.0361997 α      in ANC's #8, #5, #2, ...
 * RMSD in coord.:     1.0534184 α      energy gain  -0.2473349E-01 Eh

generating ANC from model Hessian ...
Using Lindh-Hessian (1995)
 Shifting diagonal of input Hessian by   1.000620356376345E-002
 Lowest  eigenvalues of input Hessian
    0.010000   -0.000000   -0.000000    0.000000    0.000000    0.000000
    0.000000    0.010035    0.010161    0.010266    0.010450    0.014009
    0.017253    0.018049    0.026393    0.038047    0.056825    0.066171
 Highest eigenvalues
    1.145859    1.264007    1.292535    1.336772    1.496955    2.800442
 

........................................................................
.............................. CYCLE   21 ..............................
........................................................................
   1    -21.7502487 -0.217502E+02  0.767E-02    3.48       0.0  T
   2    -21.7502495 -0.777587E-06  0.476E-02    3.48       1.0  T
   3    -21.7502482  0.125305E-05  0.129E-02    3.49       2.2  T
   4    -21.7502500 -0.179810E-05  0.305E-03    3.48       9.5  T
   5    -21.7502500 -0.694664E-08  0.109E-03    3.48      26.5  T
   6    -21.7502500 -0.341185E-08  0.479E-04    3.48      60.3  T
   7    -21.7502500 -0.772687E-09  0.166E-04    3.48     174.2  T
     SCC iter.                  ...        0 min,  0.003 sec
     gradient                   ...        0 min,  0.003 sec
 * total energy  :   -21.5124625 Eh     change       -0.3175429E-04 Eh
   gradient norm :     0.0035834 Eh/α   predicted     0.0000000E+00 (-100.00%)
   displ. norm   :     0.0298920 α      lambda       -0.3596337E-04
   maximum displ.:     0.0145722 α      in ANC's #9, #4, #3, ...

........................................................................
.............................. CYCLE   22 ..............................
........................................................................
   1    -21.7500215 -0.217500E+02  0.403E-02    3.47       0.0  T
   2    -21.7500217 -0.264810E-06  0.254E-02    3.47       1.1  T
   3    -21.7500213  0.394550E-06  0.719E-03    3.47       4.0  T
   4    -21.7500219 -0.582079E-06  0.133E-03    3.47      21.7  T
   5    -21.7500219 -0.142073E-08  0.732E-04    3.47      39.4  T
   6    -21.7500219 -0.801442E-09  0.191E-04    3.47     150.8  T
     SCC iter.                  ...        0 min,  0.093 sec
     gradient                   ...        0 min,  0.001 sec
 * total energy  :   -21.5124895 Eh     change       -0.2693607E-04 Eh
   gradient norm :     0.0020697 Eh/α   predicted    -0.1799674E-04 ( -33.19%)
   displ. norm   :     0.0986899 α      lambda       -0.7400650E-04
   maximum displ.:     0.0484861 α      in ANC's #9, #4, #3, ...

........................................................................
.............................. CYCLE   23 ..............................
........................................................................
   1    -21.7493646 -0.217494E+02  0.127E-01    3.46       0.0  T
   2    -21.7493667 -0.205935E-05  0.799E-02    3.46       1.0  T
   3    -21.7493675 -0.844090E-06  0.891E-03    3.46       3.2  T
   4    -21.7493681 -0.608680E-06  0.423E-03    3.46       6.8  T
   5    -21.7493681 -0.209993E-07  0.723E-04    3.46      39.9  T
   6    -21.7493681 -0.111365E-08  0.332E-04    3.46      86.9  T
     SCC iter.                  ...        0 min,  0.002 sec
     gradient                   ...        0 min,  0.092 sec
 * total energy  :   -21.5125294 Eh     change       -0.3998494E-04 Eh
   gradient norm :     0.0046616 Eh/α   predicted    -0.3736270E-04 (  -6.56%)
   displ. norm   :     0.1127420 α      lambda       -0.6442140E-04
   maximum displ.:     0.0665743 α      in ANC's #9, #4, #3, ...

........................................................................
.............................. CYCLE   24 ..............................
........................................................................
   1    -21.7486084 -0.217486E+02  0.140E-01    3.46       0.0  T
   2    -21.7486109 -0.252715E-05  0.875E-02    3.46       1.0  T
   3    -21.7486111 -0.260087E-06  0.126E-02    3.46       2.3  T
   4    -21.7486125 -0.141087E-05  0.480E-03    3.46       6.0  T
   5    -21.7486126 -0.363013E-07  0.222E-03    3.46      13.0  T
   6    -21.7486126 -0.110165E-07  0.420E-04    3.46      68.7  T
     SCC iter.                  ...        0 min,  0.002 sec
     gradient                   ...        0 min,  0.002 sec
 * total energy  :   -21.5125643 Eh     change       -0.3489195E-04 Eh
   gradient norm :     0.0070841 Eh/α   predicted    -0.3261923E-04 (  -6.51%)
   displ. norm   :     0.0549120 α      lambda       -0.6394174E-04
   maximum displ.:     0.0399762 α      in ANC's #9, #4, #5, ...

........................................................................
.............................. CYCLE   25 ..............................
........................................................................
   1    -21.7498595 -0.217499E+02  0.783E-02    3.47       0.0  T
   2    -21.7498604 -0.825102E-06  0.487E-02    3.47       1.0  T
   3    -21.7498594  0.923045E-06  0.119E-02    3.47       2.4  T
   4    -21.7498609 -0.146140E-05  0.269E-03    3.47      10.7  T
   5    -21.7498609 -0.997792E-08  0.141E-03    3.47      20.5  T
     SCC iter.                  ...        0 min,  0.002 sec
     gradient                   ...        0 min,  0.092 sec
 * total energy  :   -21.5126111 Eh     change       -0.4679162E-04 Eh
   gradient norm :     0.0050208 Eh/α   predicted    -0.3206837E-04 ( -31.47%)
   displ. norm   :     0.1467935 α      lambda       -0.8996086E-04
   maximum displ.:     0.0850636 α      in ANC's #9, #4, #5, ...

........................................................................
.............................. CYCLE   26 ..............................
........................................................................
   1    -21.7497272 -0.217497E+02  0.171E-01    3.48       0.0  T
   2    -21.7497306 -0.337602E-05  0.106E-01    3.48       1.0  T
   3    -21.7497299  0.676866E-06  0.173E-02    3.49       1.7  T
   4    -21.7497327 -0.280292E-05  0.574E-03    3.48       5.0  T
   5    -21.7497327 -0.421478E-07  0.271E-03    3.48      10.6  T
   6    -21.7497328 -0.209040E-07  0.781E-04    3.48      37.0  T
     SCC iter.                  ...        0 min,  0.003 sec
     gradient                   ...        0 min,  0.002 sec
 * total energy  :   -21.5126650 Eh     change       -0.5389482E-04 Eh
   gradient norm :     0.0067545 Eh/α   predicted    -0.4594998E-04 ( -14.74%)
   displ. norm   :     0.0680326 α      lambda       -0.8673844E-04
   maximum displ.:     0.0392416 α      in ANC's #4, #5, #9, ...

........................................................................
.............................. CYCLE   27 ..............................
........................................................................
   1    -21.7518433 -0.217518E+02  0.606E-02    3.49       0.0  T
   2    -21.7518449 -0.156868E-05  0.361E-02    3.49       1.0  T
   3    -21.7518448  0.340088E-07  0.842E-03    3.49       3.4  T
   4    -21.7518451 -0.277482E-06  0.374E-03    3.49       7.7  T
   5    -21.7518452 -0.985073E-07  0.133E-03    3.49      21.8  T
   6    -21.7518452 -0.452199E-08  0.594E-04    3.49      48.6  T
     SCC iter.                  ...        0 min,  0.092 sec
     gradient                   ...        0 min,  0.002 sec
 * total energy  :   -21.5126831 Eh     change       -0.1812051E-04 Eh
   gradient norm :     0.0063836 Eh/α   predicted    -0.4357147E-04 ( 140.45%)
   displ. norm   :     0.1423809 α      lambda       -0.8968780E-04
   maximum displ.:     0.0890392 α      in ANC's #9, #4, #5, ...

........................................................................
.............................. CYCLE   28 ..............................
........................................................................
   1    -21.7500288 -0.217500E+02  0.190E-01    3.48       0.0  T
   2    -21.7500331 -0.424971E-05  0.119E-01    3.48       1.0  T
   3    -21.7500356 -0.257251E-05  0.920E-03    3.48       3.1  T
   4    -21.7500358 -0.126100E-06  0.569E-03    3.48       5.1  T
   5    -21.7500358 -0.359184E-07  0.279E-03    3.48      10.3  T
   6    -21.7500358 -0.393782E-07  0.884E-04    3.48      32.7  T
     SCC iter.                  ...        0 min,  0.002 sec
     gradient                   ...        0 min,  0.002 sec
 * total energy  :   -21.5127340 Eh     change       -0.5080759E-04 Eh
   gradient norm :     0.0066574 Eh/α   predicted    -0.4575214E-04 (  -9.95%)
   displ. norm   :     0.0485920 α      lambda       -0.5118770E-04
   maximum displ.:     0.0303357 α      in ANC's #4, #5, #6, ...

........................................................................
.............................. CYCLE   29 ..............................
........................................................................
   1    -21.7494341 -0.217494E+02  0.330E-02    3.48       0.0  T
   2    -21.7494343 -0.255657E-06  0.203E-02    3.48       1.4  T
   3    -21.7494343  0.953095E-08  0.364E-03    3.48       7.9  T
   4    -21.7494344 -0.916300E-07  0.146E-03    3.48      19.8  T
   5    -21.7494344 -0.100447E-07  0.732E-04    3.48      39.4  T
     SCC iter.                  ...        0 min,  0.002 sec
     gradient                   ...        0 min,  0.002 sec
 * total energy  :   -21.5127636 Eh     change       -0.2968697E-04 Eh
   gradient norm :     0.0051763 Eh/α   predicted    -0.2565414E-04 ( -13.58%)
   displ. norm   :     0.0703085 α      lambda       -0.7465447E-04
   maximum displ.:     0.0397097 α      in ANC's #4, #5, #3, ...

........................................................................
.............................. CYCLE   30 ..............................
........................................................................
   1    -21.7505054 -0.217505E+02  0.714E-02    3.47       0.0  T
   2    -21.7505062 -0.757841E-06  0.444E-02    3.47       1.0  T
   3    -21.7505063 -0.962219E-07  0.596E-03    3.47       4.8  T
   4    -21.7505065 -0.250596E-06  0.211E-03    3.47      13.7  T
   5    -21.7505065 -0.413803E-08  0.103E-03    3.47      28.1  T
     SCC iter.                  ...        0 min,  0.002 sec
     gradient                   ...        0 min,  0.092 sec
 * total energy  :   -21.5127985 Eh     change       -0.3488806E-04 Eh
   gradient norm :     0.0044100 Eh/α   predicted    -0.3751181E-04 (   7.52%)
   displ. norm   :     0.2376052 α      lambda       -0.8300851E-04
   maximum displ.:     0.1466925 α      in ANC's #4, #5, #9, ...

........................................................................
.............................. CYCLE   31 ..............................
........................................................................
   1    -21.7483824 -0.217484E+02  0.266E-01    3.47       0.0  T
   2    -21.7483888 -0.639966E-05  0.166E-01    3.47       1.0  T
   3    -21.7483902 -0.138418E-05  0.188E-02    3.47       1.5  T
   4    -21.7483931 -0.286605E-05  0.846E-03    3.47       3.4  T
   5    -21.7483932 -0.114578E-06  0.330E-03    3.47       8.8  T
   6    -21.7483932 -0.253263E-07  0.819E-04    3.47      35.3  T
   7    -21.7483932 -0.217125E-08  0.452E-04    3.47      63.9  T
     SCC iter.                  ...        0 min,  0.003 sec
     gradient                   ...        0 min,  0.001 sec
 * total energy  :   -21.5128220 Eh     change       -0.2344930E-04 Eh
   gradient norm :     0.0111519 Eh/α   predicted    -0.4384445E-04 (  86.98%)
   displ. norm   :     0.0293710 α      lambda       -0.1218208E-03
   maximum displ.:     0.0165651 α      in ANC's #9, #4, #2, ...

........................................................................
.............................. CYCLE   32 ..............................
........................................................................
   1    -21.7500374 -0.217500E+02  0.468E-02    3.48       0.0  T
   2    -21.7500386 -0.120763E-05  0.281E-02    3.48       1.0  T
   3    -21.7500387 -0.109027E-06  0.725E-03    3.48       4.0  T
   4    -21.7500389 -0.190929E-06  0.323E-03    3.48       8.9  T
   5    -21.7500390 -0.481450E-07  0.147E-03    3.48      19.6  T
   6    -21.7500390 -0.607134E-08  0.844E-04    3.48      34.2  T
     SCC iter.                  ...        0 min,  0.002 sec
     gradient                   ...        0 min,  0.002 sec
 * total energy  :   -21.5128922 Eh     change       -0.7020957E-04 Eh
   gradient norm :     0.0033147 Eh/α   predicted    -0.6096251E-04 ( -13.17%)
   displ. norm   :     0.1806138 α      lambda       -0.7128905E-04
   maximum displ.:     0.1230262 α      in ANC's #4, #5, #9, ...

........................................................................
.............................. CYCLE   33 ..............................
........................................................................
   1    -21.7500314 -0.217500E+02  0.192E-01    3.49       0.0  T
   2    -21.7500345 -0.308059E-05  0.119E-01    3.48       1.0  T
   3    -21.7500349 -0.390982E-06  0.143E-02    3.49       2.0  T
   4    -21.7500366 -0.169409E-05  0.605E-03    3.48       4.8  T
   5    -21.7500366 -0.128417E-07  0.214E-03    3.48      13.5  T
   6    -21.7500366 -0.300390E-07  0.451E-04    3.48      64.0  T
   7    -21.7500366 -0.498066E-09  0.200E-04    3.48     144.2  T
     SCC iter.                  ...        0 min,  0.003 sec
     gradient                   ...        0 min,  0.091 sec
 * total energy  :   -21.5129490 Eh     change       -0.5683086E-04 Eh
   gradient norm :     0.0028552 Eh/α   predicted    -0.3680700E-04 ( -35.23%)
   displ. norm   :     0.2760429 α      lambda       -0.8638701E-04
   maximum displ.:     0.1920986 α      in ANC's #4, #5, #9, ...

........................................................................
.............................. CYCLE   34 ..............................
........................................................................
   1    -21.7492817 -0.217493E+02  0.308E-01    3.49       0.0  T
   2    -21.7492897 -0.799203E-05  0.192E-01    3.48       1.0  T
   3    -21.7492912 -0.147621E-05  0.220E-02    3.49       1.3  T
   4    -21.7492952 -0.404425E-05  0.973E-03    3.49       3.0  T
   5    -21.7492953 -0.928448E-07  0.250E-03    3.49      11.6  T
   6    -21.7492954 -0.189404E-07  0.824E-04    3.49      35.0  T
   7    -21.7492954 -0.361192E-08  0.341E-04    3.49      84.7  T
     SCC iter.                  ...        0 min,  0.005 sec
     gradient                   ...        0 min,  0.002 sec
 * total energy  :   -21.5129819 Eh     change       -0.3291671E-04 Eh
   gradient norm :     0.0073771 Eh/α   predicted    -0.4648550E-04 (  41.22%)
   displ. norm   :     0.0368071 α      lambda       -0.6388918E-04
   maximum displ.:     0.0235241 α      in ANC's #9, #5, #10, ...

........................................................................
.............................. CYCLE   35 ..............................
........................................................................
   1    -21.7511845 -0.217512E+02  0.490E-02    3.49       0.0  T
   2    -21.7511854 -0.887298E-06  0.295E-02    3.49       1.0  T
   3    -21.7511854 -0.463548E-08  0.654E-03    3.48       4.4  T
   4    -21.7511856 -0.201293E-06  0.321E-03    3.49       9.0  T
   5    -21.7511857 -0.753082E-07  0.128E-03    3.49      22.5  T
   6    -21.7511857 -0.350782E-08  0.456E-04    3.49      63.3  T
     SCC iter.                  ...        0 min,  0.002 sec
     gradient                   ...        0 min,  0.001 sec
 * total energy  :   -21.5130014 Eh     change       -0.1944202E-04 Eh
   gradient norm :     0.0029376 Eh/α   predicted    -0.3198717E-04 (  64.53%)
   displ. norm   :     0.0867574 α      lambda       -0.4456227E-04
   maximum displ.:     0.0662485 α      in ANC's #4, #5, #9, ...

........................................................................
.............................. CYCLE   36 ..............................
........................................................................
   1    -21.7497365 -0.217497E+02  0.747E-02    3.49       0.0  T
   2    -21.7497370 -0.511112E-06  0.465E-02    3.48       1.0  T
   3    -21.7497365  0.489952E-06  0.881E-03    3.49       3.3  T
   4    -21.7497374 -0.860960E-06  0.235E-03    3.49      12.3  T
   5    -21.7497374 -0.334338E-08  0.552E-04    3.49      52.3  T
   6    -21.7497374 -0.151037E-09  0.136E-04    3.49     212.3  T
     SCC iter.                  ...        0 min,  0.001 sec
     gradient                   ...        0 min,  0.001 sec
 * total energy  :   -21.5130070 Eh     change       -0.5667137E-05 Eh
   gradient norm :     0.0049225 Eh/α   predicted    -0.2244868E-04 ( 296.12%)
   displ. norm   :     0.0436477 α      lambda       -0.4030993E-04
   maximum displ.:     0.0292593 α      in ANC's #4, #9, #3, ...

........................................................................
.............................. CYCLE   37 ..............................
........................................................................
   1    -21.7499950 -0.217500E+02  0.639E-02    3.49       0.0  T
   2    -21.7499955 -0.510049E-06  0.401E-02    3.49       1.0  T
   3    -21.7499956 -0.969669E-07  0.489E-03    3.49       5.9  T
   4    -21.7499958 -0.184665E-06  0.232E-03    3.49      12.5  T
   5    -21.7499958 -0.207699E-07  0.970E-04    3.49      29.8  T
     SCC iter.                  ...        0 min,  0.001 sec
     gradient                   ...        0 min,  0.091 sec
 * total energy  :   -21.5130324 Eh     change       -0.2540036E-04 Eh
   gradient norm :     0.0029722 Eh/α   predicted    -0.2019412E-04 ( -20.50%)
   displ. norm   :     0.0574828 α      lambda       -0.2147143E-04
   maximum displ.:     0.0452587 α      in ANC's #4, #9, #2, ...

........................................................................
.............................. CYCLE   38 ..............................
........................................................................
   1    -21.7502464 -0.217502E+02  0.783E-02    3.49       0.0  T
   2    -21.7502470 -0.587243E-06  0.494E-02    3.49       1.0  T
   3    -21.7502474 -0.407086E-06  0.306E-03    3.49       9.4  T
   4    -21.7502474 -0.886857E-09  0.163E-03    3.49      17.7  T
   5    -21.7502474 -0.853280E-08  0.323E-04    3.49      89.5  T
   6    -21.7502474 -0.294172E-09  0.173E-04    3.49     166.8  T
     SCC iter.                  ...        0 min,  0.001 sec
     gradient                   ...        0 min,  0.001 sec
 * total energy  :   -21.5130506 Eh     change       -0.1816348E-04 Eh
   gradient norm :     0.0028826 Eh/α   predicted    -0.1077182E-04 ( -40.70%)
   displ. norm   :     0.1960865 α      lambda       -0.6334037E-04
   maximum displ.:     0.1550496 α      in ANC's #4, #2, #9, ...

........................................................................
.............................. CYCLE   39 ..............................
........................................................................
   1    -21.7500345 -0.217500E+02  0.262E-01    3.48       0.0  T
   2    -21.7500411 -0.660233E-05  0.166E-01    3.48       1.0  T
   3    -21.7500454 -0.430656E-05  0.110E-02    3.49       2.6  T
   4    -21.7500457 -0.264532E-06  0.676E-03    3.48       4.3  T
   5    -21.7500458 -0.764168E-07  0.175E-03    3.48      16.5  T
   6    -21.7500458 -0.251777E-07  0.569E-04    3.48      50.7  T
   7    -21.7500458 -0.932605E-09  0.192E-04    3.48     150.1  T
     SCC iter.                  ...        0 min,  0.002 sec
     gradient                   ...        0 min,  0.001 sec
 * total energy  :   -21.5130928 Eh     change       -0.4221245E-04 Eh
   gradient norm :     0.0045969 Eh/α   predicted    -0.3288910E-04 ( -22.09%)
   displ. norm   :     0.1319141 α      lambda       -0.6291710E-04
   maximum displ.:     0.0783132 α      in ANC's #5, #4, #2, ...

........................................................................
.............................. CYCLE   40 ..............................
........................................................................
   1    -21.7515577 -0.217516E+02  0.151E-01    3.48       0.0  T
   2    -21.7515607 -0.302226E-05  0.953E-02    3.48       1.0  T
   3    -21.7515618 -0.111214E-05  0.980E-03    3.48       2.9  T
   4    -21.7515623 -0.530664E-06  0.432E-03    3.48       6.7  T
   5    -21.7515624 -0.281567E-07  0.195E-03    3.48      14.8  T
   6    -21.7515624  0.146301E-08  0.827E-04    3.48      34.9  T
     SCC iter.                  ...        0 min,  0.001 sec
     gradient                   ...        0 min,  0.001 sec
 * total energy  :   -21.5131147 Eh     change       -0.2190632E-04 Eh
   gradient norm :     0.0033451 Eh/α   predicted    -0.3200775E-04 (  46.11%)
   displ. norm   :     0.2287261 α      lambda       -0.6083955E-04
   maximum displ.:     0.1787153 α      in ANC's #4, #2, #9, ...

........................................................................
.............................. CYCLE   41 ..............................
........................................................................
   1    -21.7489985 -0.217490E+02  0.293E-01    3.48       0.0  T
   2    -21.7490067 -0.817572E-05  0.184E-01    3.48       1.0  T
   3    -21.7490112 -0.451762E-05  0.142E-02    3.48       2.0  T
   4    -21.7490121 -0.895488E-06  0.840E-03    3.48       3.4  T
   5    -21.7490123 -0.157624E-06  0.272E-03    3.48      10.6  T
   6    -21.7490123 -0.248828E-07  0.894E-04    3.48      32.3  T
   7    -21.7490123 -0.393024E-08  0.263E-04    3.48     109.6  T
     SCC iter.                  ...        0 min,  0.002 sec
     gradient                   ...        0 min,  0.001 sec
 * total energy  :   -21.5131205 Eh     change       -0.5785580E-05 Eh
   gradient norm :     0.0061695 Eh/α   predicted    -0.3201500E-04 ( 453.36%)
   displ. norm   :     0.1323251 α      lambda       -0.6827006E-04
   maximum displ.:     0.1061601 α      in ANC's #4, #2, #9, ...

........................................................................
.............................. CYCLE   42 ..............................
........................................................................
   1    -21.7510138 -0.217510E+02  0.174E-01    3.49       0.0  T
   2    -21.7510170 -0.314026E-05  0.110E-01    3.49       1.0  T
   3    -21.7510174 -0.425200E-06  0.136E-02    3.49       2.1  T
   4    -21.7510191 -0.168301E-05  0.507E-03    3.49       5.7  T
   5    -21.7510191 -0.356811E-07  0.176E-03    3.49      16.4  T
   6    -21.7510191 -0.297194E-08  0.533E-04    3.49      54.1  T
     SCC iter.                  ...        0 min,  0.092 sec
     gradient                   ...        0 min,  0.001 sec
 * total energy  :   -21.5131476 Eh     change       -0.2711451E-04 Eh
   gradient norm :     0.0019191 Eh/α   predicted    -0.3473438E-04 (  28.10%)
   displ. norm   :     0.0835499 α      lambda       -0.1348583E-04
   maximum displ.:     0.0486378 α      in ANC's #4, #2, #1, ...
 * RMSD in coord.:     0.5355241 α      energy gain  -0.7168551E-03 Eh

generating ANC from model Hessian ...
Using Lindh-Hessian (1995)
 Shifting diagonal of input Hessian by   1.013746881128420E-002
 Lowest  eigenvalues of input Hessian
    0.010000   -0.000000   -0.000000    0.000000    0.000000    0.000000
    0.000000    0.010142    0.010176    0.010530    0.011069    0.013797
    0.017763    0.018082    0.033015    0.039859    0.047805    0.066588
 Highest eigenvalues
    1.156749    1.275883    1.299041    1.333480    1.490553    2.797524
 

........................................................................
.............................. CYCLE   43 ..............................
........................................................................
   1    -21.7508016 -0.217508E+02  0.108E-01    3.49       0.0  T
   2    -21.7508028 -0.123049E-05  0.685E-02    3.49       1.0  T
   3    -21.7508029 -0.611921E-07  0.905E-03    3.49       3.2  T
   4    -21.7508037 -0.825815E-06  0.304E-03    3.49       9.5  T
   5    -21.7508037 -0.365195E-08  0.581E-04    3.49      49.7  T
   6    -21.7508037 -0.880277E-09  0.182E-04    3.49     158.7  T
     SCC iter.                  ...        0 min,  0.001 sec
     gradient                   ...        0 min,  0.001 sec
 * total energy  :   -21.5131649 Eh     change       -0.1723403E-04 Eh
   gradient norm :     0.0011470 Eh/α   predicted     0.0000000E+00 (-100.00%)
   displ. norm   :     0.0455818 α      lambda       -0.1309119E-04
   maximum displ.:     0.0296181 α      in ANC's #1, #3, #8, ...

........................................................................
.............................. CYCLE   44 ..............................
........................................................................
   1    -21.7508113 -0.217508E+02  0.467E-02    3.49       0.0  T
   2    -21.7508117 -0.336896E-06  0.293E-02    3.49       1.0  T
   3    -21.7508111  0.601158E-06  0.888E-03    3.49       3.3  T
   4    -21.7508119 -0.857901E-06  0.167E-03    3.49      17.3  T
   5    -21.7508119 -0.230770E-08  0.961E-04    3.49      30.0  T
   6    -21.7508119 -0.246765E-08  0.126E-04    3.49     229.7  T
     SCC iter.                  ...        0 min,  0.091 sec
     gradient                   ...        0 min,  0.001 sec
 * total energy  :   -21.5131768 Eh     change       -0.1191234E-04 Eh
   gradient norm :     0.0015743 Eh/α   predicted    -0.6551741E-05 ( -45.00%)
   displ. norm   :     0.1068426 α      lambda       -0.2858668E-04
   maximum displ.:     0.0693210 α      in ANC's #1, #3, #2, ...

........................................................................
.............................. CYCLE   45 ..............................
........................................................................
   1    -21.7501768 -0.217502E+02  0.850E-02    3.48       0.0  T
   2    -21.7501775 -0.696687E-06  0.529E-02    3.49       1.0  T
   3    -21.7501767  0.783727E-06  0.110E-02    3.48       2.6  T
   4    -21.7501780 -0.129955E-05  0.310E-03    3.49       9.3  T
   5    -21.7501780 -0.273186E-09  0.101E-03    3.49      28.5  T
   6    -21.7501780 -0.444531E-08  0.159E-04    3.49     182.1  T
   7    -21.7501780 -0.933369E-10  0.727E-05    3.49     397.2  T
     SCC iter.                  ...        0 min,  0.002 sec
     gradient                   ...        0 min,  0.001 sec
 * total energy  :   -21.5132020 Eh     change       -0.2525104E-04 Eh
   gradient norm :     0.0023948 Eh/α   predicted    -0.1436701E-04 ( -43.10%)
   displ. norm   :     0.0326207 α      lambda       -0.1221776E-04
   maximum displ.:     0.0154630 α      in ANC's #1, #9, #3, ...

........................................................................
.............................. CYCLE   46 ..............................
........................................................................
   1    -21.7505704 -0.217506E+02  0.410E-02    3.49       0.0  T
   2    -21.7505706 -0.192779E-06  0.254E-02    3.49       1.1  T
   3    -21.7505701  0.535610E-06  0.787E-03    3.49       3.7  T
   4    -21.7505708 -0.688558E-06  0.140E-03    3.49      20.6  T
   5    -21.7505708 -0.441673E-09  0.738E-04    3.49      39.1  T
   6    -21.7505708 -0.143870E-08  0.917E-05    3.49     314.9  T
     SCC iter.                  ...        0 min,  0.001 sec
     gradient                   ...        0 min,  0.001 sec
 * total energy  :   -21.5132113 Eh     change       -0.9293517E-05 Eh
   gradient norm :     0.0012846 Eh/α   predicted    -0.6114152E-05 ( -34.21%)
   displ. norm   :     0.1065171 α      lambda       -0.1308231E-04
   maximum displ.:     0.0552775 α      in ANC's #1, #3, #9, ...

........................................................................
.............................. CYCLE   47 ..............................
........................................................................
   1    -21.7504331 -0.217504E+02  0.122E-01    3.50       0.0  T
   2    -21.7504343 -0.121763E-05  0.754E-02    3.49       1.0  T
   3    -21.7504337  0.630955E-06  0.121E-02    3.50       2.4  T
   4    -21.7504352 -0.148319E-05  0.410E-03    3.49       7.0  T
   5    -21.7504352 -0.428138E-08  0.162E-03    3.49      17.8  T
   6    -21.7504352 -0.103174E-07  0.293E-04    3.49      98.5  T
   7    -21.7504352 -0.327127E-09  0.772E-05    3.49     374.1  T
     SCC iter.                  ...        0 min,  0.002 sec
     gradient                   ...        0 min,  0.001 sec
 * total energy  :   -21.5132193 Eh     change       -0.7999231E-05 Eh
   gradient norm :     0.0028336 Eh/α   predicted    -0.6573958E-05 ( -17.82%)
   displ. norm   :     0.0205645 α      lambda       -0.1185926E-04
   maximum displ.:     0.0098769 α      in ANC's #6, #5, #4, ...

........................................................................
.............................. CYCLE   48 ..............................
........................................................................
   1    -21.7511422 -0.217511E+02  0.208E-02    3.49       0.0  T
   2    -21.7511422 -0.285373E-07  0.127E-02    3.49       2.3  T
   3    -21.7511422  0.630273E-09  0.129E-03    3.49      22.3  T
   4    -21.7511422 -0.128501E-07  0.531E-04    3.49      54.4  T
   5    -21.7511422 -0.603965E-09  0.270E-04    3.49     107.0  T
     SCC iter.                  ...        0 min,  0.001 sec
     gradient                   ...        0 min,  0.001 sec
 * total energy  :   -21.5132242 Eh     change       -0.4834562E-05 Eh
   gradient norm :     0.0020698 Eh/α   predicted    -0.5932506E-05 (  22.71%)
   displ. norm   :     0.0231046 α      lambda       -0.6694779E-05
   maximum displ.:     0.0133900 α      in ANC's #1, #3, #4, ...

........................................................................
.............................. CYCLE   49 ..............................
........................................................................
   1    -21.7510084 -0.217510E+02  0.167E-02    3.49       0.0  T
   2    -21.7510084 -0.334362E-07  0.101E-02    3.49       2.9  T
   3    -21.7510083  0.711882E-07  0.279E-03    3.49      10.4  T
   4    -21.7510084 -0.865025E-07  0.447E-04    3.49      64.5  T
   5    -21.7510084 -0.674312E-09  0.202E-04    3.49     142.6  T
     SCC iter.                  ...        0 min,  0.001 sec
     gradient                   ...        0 min,  0.091 sec
 * total energy  :   -21.5132292 Eh     change       -0.5070887E-05 Eh
   gradient norm :     0.0008247 Eh/α   predicted    -0.3349900E-05 ( -33.94%)
   displ. norm   :     0.1023919 α      lambda       -0.8109578E-05
   maximum displ.:     0.0497492 α      in ANC's #1, #3, #4, ...

........................................................................
.............................. CYCLE   50 ..............................
........................................................................
   1    -21.7503068 -0.217503E+02  0.993E-02    3.49       0.0  T
   2    -21.7503072 -0.435097E-06  0.604E-02    3.49       1.0  T
   3    -21.7503073 -0.634290E-08  0.554E-03    3.49       5.2  T
   4    -21.7503075 -0.238951E-06  0.238E-03    3.49      12.1  T
   5    -21.7503075 -0.319160E-08  0.104E-03    3.49      27.6  T
   6    -21.7503075 -0.433697E-08  0.328E-04    3.49      88.1  T
   7    -21.7503075 -0.346144E-09  0.653E-05    3.49     442.2  T
     SCC iter.                  ...        0 min,  0.002 sec
     gradient                   ...        0 min,  0.001 sec
 * total energy  :   -21.5132319 Eh     change       -0.2693265E-05 Eh
   gradient norm :     0.0021100 Eh/α   predicted    -0.4072235E-05 (  51.20%)
   displ. norm   :     0.0155311 α      lambda       -0.6724035E-05
   maximum displ.:     0.0106191 α      in ANC's #1, #3, #2, ...

........................................................................
.............................. CYCLE   51 ..............................
........................................................................
   1    -21.7507804 -0.217508E+02  0.984E-03    3.49       0.0  T
   2    -21.7507805 -0.186706E-07  0.617E-03    3.49       4.7  T
   3    -21.7507804  0.558688E-07  0.263E-03    3.49      11.0  T
   4    -21.7507805 -0.722080E-07  0.381E-04    3.49      75.8  T
   5    -21.7507805 -0.514468E-10  0.160E-04    3.49     180.1  T
     SCC iter.                  ...        0 min,  0.001 sec
     gradient                   ...        0 min,  0.001 sec
 * total energy  :   -21.5132360 Eh     change       -0.4133062E-05 Eh
   gradient norm :     0.0007753 Eh/α   predicted    -0.3363977E-05 ( -18.61%)
   displ. norm   :     0.0280253 α      lambda       -0.2255506E-05
   maximum displ.:     0.0165360 α      in ANC's #6, #9, #4, ...

   *** GEOMETRY OPTIMIZATION CONVERGED AFTER 51 ITERATIONS ***

------------------------------------------------------------------------
 total energy gain   :        -0.0255388 Eh      -16.0258 kcal/mol
 total RMSD          :         1.2586744 a0        0.6661 Å
 total power (kW/mol):        -1.3147453 (step)  -21.6619 (real)
------------------------------------------------------------------------

 ANCopt (total)                0 d,  0 h,  0 min,  3.095 sec
 optimizer setup                ...        0 min,  0.000 sec (  0.013%)
 model hessian                  ...        0 min,  0.188 sec (  6.061%)
 ANC generation                 ...        0 min,  0.001 sec (  0.046%)
 coordinate transformation      ...        0 min,  0.002 sec (  0.063%)
 single point calculation       ...        0 min,  2.692 sec ( 86.953%)
 optimization log               ...        0 min,  0.004 sec (  0.122%)
 hessian update                 ...        0 min,  0.199 sec (  6.416%)
 rational function              ...        0 min,  0.003 sec (  0.104%)

================
 final structure:
================
12
 xtb: 6.2.3 (830e466)
C         1.41865626089646    1.59231184338338   -2.85810618111388
C         1.10181953354586    0.49585582086361   -1.86894053897808
C         1.84078804527648    0.26684274958490   -0.82990909483066
O         0.81520524741269    2.82073987852020   -2.53431468922537
O         1.48575051555132    3.38947763658520   -1.40842747880836
O         2.53409286325223    0.02135432768586    0.06849323969771
H         0.91276607245152    4.13353792866244   -1.18400344634157
H         2.50218017436110    1.72741102068834   -2.94805916329469
H         0.98917427107640    1.35653157353830   -3.83375801561313
H        -0.99167001055596   -1.40406992900449    0.81907937381002
H         0.14743745044834    0.00638576195466   -1.95698406485375
H        -0.36720042371149   -1.06678861246435    0.49913005955271
 
 Bond Distances (Angstroems)
 ---------------------------
C1-C2=1.5103         C1-O4=1.4064         C1-H8=1.0956         C1-H9=1.0918         C2-C1=1.5103         C2-C3=1.2954         
C2-H11=1.0762        C3-C2=1.2954         C3-O6=1.1611         O4-C1=1.4064         O4-O5=1.4285         O5-O4=1.4285         
O5-H7=0.9656         O6-C3=1.1611         H7-O5=0.9656         H8-C1=1.0956         H9-C1=1.0918         H10-H12=0.7785       
H11-C2=1.0762        H12-H10=0.7785       
 H  H  Rav=0.7785 sigma=0.0000  Rmin=0.7785  Rmax=0.7785     1
 C  H  Rav=1.0879 sigma=0.0084  Rmin=1.0762  Rmax=1.0956     3
 C  C  Rav=1.4029 sigma=0.1074  Rmin=1.2954  Rmax=1.5103     2
 O  H  Rav=0.9656 sigma=0.0000  Rmin=0.9656  Rmax=0.9656     1
 O  C  Rav=1.2837 sigma=0.1227  Rmin=1.1611  Rmax=1.4064     2
 O  O  Rav=1.4285 sigma=0.0000  Rmin=1.4285  Rmax=1.4285     1
 
 selected bond angles (degree)
 --------------------
O4-C1-C2=113.16                H8-C1-C2=110.53                H8-C1-O4=109.60                H9-C1-C2=110.24                
H9-C1-O4=103.04                H9-C1-H8=110.02                C3-C2-C1=122.28                H11-C2-C1=117.56               
H11-C2-C3=119.41               O6-C3-C2=177.02                O5-O4-C1=109.13                H7-O5-O4=102.21                
 
 selected dihedral angles (degree)
 ---------------------------------
C3-C2-C1-O4=269.67            C3-C2-C1-H8= 33.03            C3-C2-C1-H9=154.88            H11-C2-C1-O4= 79.65           
H11-C2-C1-H8=203.02           H11-C2-C1-H9=324.87           O6-C3-C2-C1=267.73            O6-C3-C2-H11= 97.93           
O5-O4-C1-C2= 72.75            O5-O4-C1-H8=308.88            O5-O4-C1-H9=191.78            H7-O5-O4-C1=189.05            
 
 CMA Distance (Angstroems)
 ---------------------------
R(CMA):  4.1875
           -------------------------------------------------
          |                Final Singlepoint                |
           -------------------------------------------------

          ...................................................
          :                      SETUP                      :
          :.................................................:
          :  # basis functions                  30          :
          :  # atomic orbitals                  30          :
          :  # shells                           18          :
          :  # electrons                        36          :
          :  max. iterations                   100          :
          :  Hamiltonian                  GFN2-xTB          :
          :  restarted?                      false          :
          :  GBSA solvation                  false          :
          :  PC potential                    false          :
          :  electronic temp.          300.0000000     K    :
          :  accuracy                    1.0000000          :
          :  -> integral cutoff          0.2500000E+02      :
          :  -> integral neglect         0.1000000E-07      :
          :  -> SCF convergence          0.1000000E-05 Eh   :
          :  -> wf. convergence          0.1000000E-03 e    :
          :  Broyden damping             0.4000000          :
          ...................................................

 iter      E             dE          RMSdq      gap      omega  full diag
   1    -21.7507805 -0.217508E+02  0.422E-05    3.49       0.0  T
   2    -21.7507805 -0.855493E-11  0.172E-05    3.49    1678.5  T
   3    -21.7507805 -0.201439E-11  0.105E-05    3.49    2745.0  T

   *** convergence criteria satisfied after 3 iterations ***

         #    Occupation            Energy/Eh            Energy/eV
      -------------------------------------------------------------
         1        2.0000           -0.7517871             -20.4572
       ...           ...                  ...                  ...
        12        2.0000           -0.5312870             -14.4571
        13        2.0000           -0.5118655             -13.9286
        14        2.0000           -0.4944928             -13.4558
        15        2.0000           -0.4754686             -12.9382
        16        2.0000           -0.4683289             -12.7439
        17        2.0000           -0.4197410             -11.4217
        18        2.0000           -0.3922401             -10.6734 (HOMO)
        19                         -0.2639727              -7.1831 (LUMO)
        20                         -0.1789239              -4.8688
        21                         -0.1552951              -4.2258
        22                          0.0783365               2.1316
        23                          0.0996154               2.7107
       ...                                ...                  ...
        30                          1.1658758              31.7251
      -------------------------------------------------------------
                  HL-Gap            0.1282674 Eh            3.4903 eV
             Fermi-level           -0.3281064 Eh           -8.9282 eV

 SCC (total)                   0 d,  0 h,  0 min,  0.092 sec
 SCC setup                      ...        0 min,  0.000 sec (  0.108%)
 Dispersion                     ...        0 min,  0.000 sec (  0.042%)
 integral evaluation            ...        0 min,  0.090 sec ( 97.497%)
 zeroth order Hamiltonian       ...        0 min,  0.000 sec (  0.065%)
 iterations                     ...        0 min,  0.001 sec (  0.800%)
 molecular gradient             ...        0 min,  0.001 sec (  1.206%)
 printout                       ...        0 min,  0.000 sec (  0.075%)

         :::::::::::::::::::::::::::::::::::::::::::::::::::::
         ::                     SUMMARY                     ::
         :::::::::::::::::::::::::::::::::::::::::::::::::::::
         :: total energy             -21.513236048619 Eh    ::
         :: gradient norm              0.000776180738 Eh/a0 ::
         :: HOMO-LUMO gap              3.490333883707 eV    ::
         ::.................................................::
         :: SCC energy               -21.750780473556 Eh    ::
         :: -> isotropic ES            0.042164337359 Eh    ::
         :: -> anisotropic ES          0.003713091279 Eh    ::
         :: -> anisotropic XC          0.005912119280 Eh    ::
         :: -> dispersion             -0.005617533104 Eh    ::
         :: repulsion energy           0.237531274022 Eh    ::
         :: add. restraining           0.000000000000 Eh    ::
         :::::::::::::::::::::::::::::::::::::::::::::::::::::

           -------------------------------------------------
          |                Property Printout                |
           -------------------------------------------------

    * Orbital Energies and Occupations

         #    Occupation            Energy/Eh            Energy/eV
      -------------------------------------------------------------
         1        2.0000           -0.7517871             -20.4572
       ...           ...                  ...                  ...
         6        2.0000           -0.6178057             -16.8113
         7        2.0000           -0.5978222             -16.2676
         8        2.0000           -0.5841445             -15.8954
         9        2.0000           -0.5797520             -15.7759
        10        2.0000           -0.5710124             -15.5380
        11        2.0000           -0.5590441             -15.2124
        12        2.0000           -0.5312870             -14.4571
        13        2.0000           -0.5118655             -13.9286
        14        2.0000           -0.4944928             -13.4558
        15        2.0000           -0.4754686             -12.9382
        16        2.0000           -0.4683289             -12.7439
        17        2.0000           -0.4197410             -11.4217
        18        2.0000           -0.3922401             -10.6734 (HOMO)
        19                         -0.2639727              -7.1831 (LUMO)
        20                         -0.1789239              -4.8688
        21                         -0.1552951              -4.2258
        22                          0.0783365               2.1316
        23                          0.0996154               2.7107
        24                          0.1236164               3.3638
        25                          0.1322923               3.5999
        26                          0.1643077               4.4710
        27                          0.1719781               4.6798
        28                          0.2822369               7.6801
        29                          0.3742453              10.1837
        30                          1.1658758              31.7251
      -------------------------------------------------------------
                  HL-Gap            0.1282674 Eh            3.4903 eV
             Fermi-level           -0.3281064 Eh           -8.9282 eV

     #   Z        covCN         q      C6AA      α(0)
     1   6 C      3.685     0.101    19.103     6.258
     2   6 C      2.883    -0.147    31.767     9.240
     3   6 C      1.844     0.256    25.249     8.117
     4   8 O      1.776    -0.207    17.437     5.639
     5   8 O      1.733    -0.325    19.431     5.952
     6   8 O      0.856    -0.222    18.428     5.755
     7   1 H      0.805     0.322     0.657     1.274
     8   1 H      0.924     0.055     2.253     2.347
     9   1 H      0.924     0.075     2.035     2.231
    10   1 H      0.808     0.004     3.042     2.739
    11   1 H      0.926     0.092     1.858     2.132
    12   1 H      0.808    -0.004     3.187     2.804

 Mol. C6AA /au·bohr⁶  :       1325.236554
 Mol. C8AA /au·bohr⁸  :      28254.720787
 Mol. α(0) /au        :         54.487095


Wiberg/Mayer (AO) data.
largest (>0.10) Wiberg bond orders for each atom
          total WBO             WBO to atom ...
     1  C   3.943        O    4 0.984    H    8 0.967    C    2 0.960    H    9 0.951
     2  C   3.905        C    3 1.757    C    1 0.960    H   11 0.913    O    6 0.250
     3  C   3.882        O    6 2.026    C    2 1.757
     4  O   2.032        C    1 0.984    O    5 0.971
     5  O   1.905        O    4 0.971    H    7 0.889
     6  O   2.372        C    3 2.026    C    2 0.250
     7  H   0.896        O    5 0.889
     8  H   0.997        C    1 0.967
     9  H   0.994        C    1 0.951
    10  H   1.000        H   12 0.998
    11  H   0.992        C    2 0.913
    12  H   1.000        H   10 0.998

molecular dipole:
                 x           y           z       tot (Debye)
 q only:       -0.460      -0.012      -0.509
   full:       -0.608       0.117      -0.545       2.098
molecular quadrupole (traceless):
                xx          xy          yy          xz          yz          zz
 q only:       -5.265      -1.569       2.011      -2.667       2.158       3.254
  q+dip:       -5.364      -0.994       2.733      -3.040       1.059       2.631
   full:       -6.032      -1.074       3.749      -3.436       1.847       2.282

           -------------------------------------------------
          |                Geometry Summary                 |
           -------------------------------------------------

      molecular mass/u    :       90.0780670
   center of mass at/Å    :        1.4760300       1.4740281      -1.5253628
  moments of inertia/u·Å² :        0.8943300E+02   0.2558503E+03   0.2930335E+03
rotational constants/cm⁻¹ :        0.1884946E+00   0.6588866E-01   0.5752800E-01

 * 9 selected distances

     #   Z        #   Z                                     value/Å
     2   6 C      3   6 C                                 1.2954180
     1   6 C      4   8 O                                 1.4064244
     4   8 O      5   8 O                                 1.4285362 (max)
     3   6 C      6   8 O                                 1.1610611
     5   8 O      7   1 H                                 0.9655584
     1   6 C      8   1 H                                 1.0956128
     1   6 C      9   1 H                                 1.0917617
     2   6 C     11   1 H                                 1.0761867
    10   1 H     12   1 H                                 0.7785169 (min)

 * 6 distinct bonds (by element types)

   Z      Z             #   av. dist./Å        max./Å        min./Å
   1 H    1 H           1     0.7785169     0.7785169     0.7785169
   1 H    6 C           3     1.0878537     1.0956128     1.0761867
   6 C    6 C           1     1.2954180     1.2954180     1.2954180
   1 H    8 O           1     0.9655584     0.9655584     0.9655584
   6 C    8 O           2     1.2837427     1.4064244     1.1610611
   8 O    8 O           1     1.4285362     1.4285362     1.4285362


optimized geometry written to: xtbopt.xyz


           -------------------------------------------------
          | TOTAL ENERGY              -21.513236048619 Eh   |
          | GRADIENT NORM               0.000776180738 Eh/α |
          | HOMO-LUMO GAP               3.490333883707 eV   |
           -------------------------------------------------

------------------------------------------------------------------------
 * finished run on 2020/12/23 at 21:42:08.267     
------------------------------------------------------------------------
 total:
 * wall-time:     0 d,  0 h,  0 min,  3.406 sec
 *  cpu-time:     0 d,  0 h,  0 min, 13.880 sec
 * ratio c/w:     4.076 speedup
 SCF:
 * wall-time:     0 d,  0 h,  0 min,  0.094 sec
 *  cpu-time:     0 d,  0 h,  0 min,  0.295 sec
 * ratio c/w:     3.145 speedup
 ANC optimizer:
 * wall-time:     0 d,  0 h,  0 min,  3.190 sec
 *  cpu-time:     0 d,  0 h,  0 min, 12.621 sec
 * ratio c/w:     3.956 speedup

