12
 energy: -21.513250490494 gnorm: 0.000858855231 xtb: 6.2.3 (830e466)
C         0.11004721250754    1.38693155661839   -2.45830515893055
C        -0.41119731318982    1.03459837770798   -1.29947395018967
C         2.46701908074763   -0.20849557480353   -0.82567913306460
O         1.10127446172519    2.28631537339265   -2.70089301959552
O         1.63497188502212    2.88331669064621   -1.52936568237023
O         2.10440852094695   -1.01306034597328   -0.02057383746401
H         1.54085024615281    3.83210847521531   -1.69512885884486
H         2.75963216940456    0.81841181252649   -0.55779750615604
H        -0.19254442259986    0.99259836795914   -3.41877410378832
H         2.53828558867373   -0.43813951479989   -1.90280691763284
H        -1.19520385359670    0.30488117515886   -1.25352893065531
H        -0.06854357579157    1.46012360635057   -0.37346290130887
