12
 energy: -21.663038885684 gnorm: 0.066228091086 xtb: 6.2.3 (830e466)
C         1.07066000000000    0.83947000000000   -2.50350000000000
C         0.58810000000000    0.86236000000000   -1.05159000000000
C         1.56450000000000    1.58628000000000   -0.16307000000000
O         0.14811000000000    0.15846000000000   -3.30949000000000
O         1.84830000000000    2.89181000000000   -0.35878000000000
O         2.10175000000000    0.99087000000000    0.75737000000000
H         1.43176000000000    3.40535000000000   -1.06450000000000
H         2.07455000000000    0.36116000000000   -2.57817000000000
H         1.17166000000000    1.87473000000000   -2.89187000000000
H         0.31980000000000   -0.81129000000000   -3.18214000000000
H         0.47033000000000   -0.18571000000000   -0.69794000000000
H        -0.40053000000000    1.36612000000000   -0.99213000000000
12
 energy: -21.668034914677 gnorm: 0.024435280359 xtb: 6.2.3 (830e466)
C         1.07504101298973    0.84115339074717   -2.50878894702953
C         0.59874247082494    0.87849870996787   -1.04947288968606
C         1.57060422009269    1.57820226849162   -0.13070969196021
O         0.16957177287422    0.16279610644663   -3.34047748950309
O         1.84355195269193    2.87066552296564   -0.35705192164698
O         2.12489030222657    1.00739612394137    0.77144275620018
H         1.38988517052302    3.33256064366933   -1.07632394386616
H         2.07480691831763    0.37867574186339   -2.55702696551474
H         1.16433937978088    1.85966480823643   -2.91252104120114
H         0.28098016134201   -0.79272246342826   -3.18797758558535
H         0.47956669548600   -0.14639609262843   -0.67977562208820
H        -0.38299005714962    1.36911523972724   -1.00712665811872
12
 energy: -21.669384343282 gnorm: 0.015387569410 xtb: 6.2.3 (830e466)
C         1.09446630155478    0.84587292846483   -2.50780284497014
C         0.60493399896411    0.88342539498853   -1.04825176720881
C         1.59683166938830    1.56410691529555   -0.12804094995448
O         0.18879820607339    0.17804981468506   -3.34741373049733
O         1.82606640383651    2.86153634528850   -0.36116428670411
O         2.13721556871223    1.01870697541383    0.78487690928043
H         1.33056791243696    3.26175598581151   -1.09611426644924
H         2.08688998758154    0.38248210135514   -2.54796846577266
H         1.17014952763747    1.85618705902821   -2.91780494765054
H         0.24201444694803   -0.76970404435815   -3.17756590873378
H         0.47254806751885   -0.13212009539920   -0.67805732509933
H        -0.36149209065217    1.38931061942621   -1.01050241624002
12
 energy: -21.669847568276 gnorm: 0.014660413051 xtb: 6.2.3 (830e466)
C         1.10970862243392    0.85079213414072   -2.50276809910379
C         0.60413860312273    0.88204654608362   -1.04606195884230
C         1.58949932178002    1.56531630497183   -0.11513293381122
O         0.20850054576867    0.19342147094759   -3.35605488652871
O         1.81892282807707    2.85991382263758   -0.37741958912649
O         2.16435643225925    1.01774649110799    0.77511129287591
H         1.28979158629563    3.21884936648075   -1.11300443749192
H         2.09911412041582    0.38216336973984   -2.53430101617488
H         1.18792283439004    1.86017077858979   -2.91102129913548
H         0.20817052093726   -0.75304765693166   -3.15795010762063
H         0.46432471981246   -0.13619534379085   -0.68626648267771
H        -0.35546013529287    1.39843271602279   -1.01094048236278
12
 energy: -21.670082663566 gnorm: 0.008953051921 xtb: 6.2.3 (830e466)
C         1.11736054509673    0.84957474852327   -2.50149681783455
C         0.60587238388975    0.88037520013306   -1.04736888104039
C         1.59701311321172    1.56515876298658   -0.12266814949933
O         0.21747571043003    0.19966920025291   -3.36146034924684
O         1.80524691980686    2.86759674610478   -0.37854026296911
O         2.17739890450764    1.01606612773289    0.76556392143209
H         1.26408246416205    3.20675674196766   -1.10891628093805
H         2.10524698445529    0.37365560006931   -2.52775786520615
H         1.20768751865494    1.86015120197310   -2.90752478701971
H         0.18434456048315   -0.74377676438120   -3.14120132648856
H         0.45858391608250   -0.14053327692834   -0.69160334825245
H        -0.35132302078067    1.40491571156600   -1.01283585293692
12
 energy: -21.670197450412 gnorm: 0.003853222354 xtb: 6.2.3 (830e466)
C         1.12236495695549    0.84482324260609   -2.49963363284031
C         0.60664687600174    0.88117561595288   -1.04859176567301
C         1.60095421355032    1.56763109681394   -0.12975872794883
O         0.22136254845426    0.20244487771601   -3.36207059796297
O         1.79312018319969    2.87625570340299   -0.37734245503685
O         2.19103241327185    1.01234747297359    0.74971354805550
H         1.24250603011458    3.20154710529123   -1.09931002310887
H         2.10793784503501    0.35932673904488   -2.52399116636126
H         1.22793279470807    1.85642212561072   -2.90400197605563
H         0.17148381108927   -0.73236760168749   -3.13349696648010
H         0.45396425902505   -0.13984256946465   -0.69142792395562
H        -0.35031593140531    1.40984619173981   -1.01589831263205
12
 energy: -21.670255090155 gnorm: 0.006183222068 xtb: 6.2.3 (830e466)
C         1.13050173965444    0.83981804417920   -2.49980387595196
C         0.61005233517691    0.88196652051311   -1.05109791635210
C         1.60415325324410    1.56975472828750   -0.13406129267336
O         0.22610013037333    0.21045981799931   -3.36752061975027
O         1.77957087758428    2.88299061928863   -0.37380855631242
O         2.20516581629928    1.01139465692776    0.73583328772409
H         1.21505059883980    3.20001453213158   -1.08824467045585
H         2.11067206208094    0.34158131758711   -2.51973454629596
H         1.25322442850642    1.85079353836025   -2.90251581135484
H         0.14592910134877   -0.72179277250830   -3.12229167462055
H         0.45632517260857   -0.13717285750802   -0.68991179616713
H        -0.34775551571683    1.40980185474188   -1.02265252778965
12
 energy: -21.670322277068 gnorm: 0.004593724849 xtb: 6.2.3 (830e466)
C         1.13628566271265    0.83325061378454   -2.49930041300317
C         0.61276966342450    0.88243523179884   -1.05232173628452
C         1.60596725834644    1.57266668164749   -0.13711792456094
O         0.22621283419700    0.21716506128325   -3.37020697559375
O         1.76917949734429    2.88820595341589   -0.36986575721559
O         2.21836226024225    1.01267435790047    0.72317093613111
H         1.19311950519751    3.20508098466730   -1.07653366500220
H         2.10993187366724    0.32216515659707   -2.51616547192625
H         1.27499609579868    1.84308615325275   -2.89995870542859
H         0.12886557220431   -0.71158048725991   -3.12183144071495
H         0.45946153443954   -0.13392797789134   -0.68455853880055
H        -0.34616175757441    1.40838827080368   -1.03112030760059
12
 energy: -21.670442988115 gnorm: 0.003173473307 xtb: 6.2.3 (830e466)
C         1.15021870972361    0.81655749680374   -2.49778518967529
C         0.61823623427923    0.88115609884806   -1.05446579427324
C         1.60886420925564    1.58040964782532   -0.14440889931068
O         0.22490400364181    0.23317745165557   -3.37573988253201
O         1.74373182410241    2.90094633656500   -0.35950318258356
O         2.24961002050229    1.01936325858018    0.69455955347571
H         1.14714461874825    3.22512456655144   -1.04775781399377
H         2.10690624944661    0.27421587165435   -2.50919374578198
H         1.32498952709769    1.82329551348581   -2.89299533051869
H         0.09028872644002   -0.68913457412120   -3.12580831703538
H         0.46610446397822   -0.13012413976002   -0.67345396135217
H        -0.34200858721578    1.40462247191175   -1.04925743641893
12
 energy: -21.670515158876 gnorm: 0.003807309462 xtb: 6.2.3 (830e466)
C         1.16527885256333    0.79946726384320   -2.49530794803674
C         0.62405170734009    0.87820155206845   -1.05550087324515
C         1.61335952511017    1.58800786891120   -0.15185144428173
O         0.22519910688309    0.25126894356754   -3.38200787309771
O         1.71411049835439    2.91448211637698   -0.34890553418786
O         2.28316055961264    1.03011869725755    0.66688623642562
H         1.09936290526058    3.24145406234680   -1.02152087227385
H         2.10286177193600    0.22459075087345   -2.50187859502854
H         1.37633044542781    1.80182750803694   -2.88463371131450
H         0.04998591910700   -0.66428672869750   -3.13199179240797
H         0.47008160646893   -0.12906069901771   -0.66469359027202
H        -0.33479289806402    1.40353866443309   -1.06440400227955
12
 energy: -21.670552428377 gnorm: 0.001702727137 xtb: 6.2.3 (830e466)
C         1.17340317442553    0.78927540285143   -2.49344446463092
C         0.62773278172732    0.87560692915975   -1.05529159298414
C         1.61594083248748    1.59282242911354   -0.15554509221283
O         0.22561451469893    0.26270975164041   -3.38520054105731
O         1.69472017520790    2.92187209355550   -0.34173414801334
O         2.30226043794838    1.04078086716319    0.65222468222757
H         1.07488927425899    3.24788178793544   -1.00868129592036
H         2.09766661827679    0.19554744759720   -2.49869495355405
H         1.40480246043882    1.78719047561982   -2.87920221717829
H         0.02924793736193   -0.64789752912270   -3.13930258648346
H         0.47172613712973   -0.12972991377202   -0.66058461039166
H        -0.32901434396176    1.40355025825845   -1.07035317980120
12
 energy: -21.670561807683 gnorm: 0.003360208787 xtb: 6.2.3 (830e466)
C         1.18355280514894    0.77990455164240   -2.49011658400641
C         0.63055971210418    0.87315459576466   -1.05470212140730
C         1.61887458565088    1.59736533638840   -0.15968291149895
O         0.23122784886178    0.27842866296081   -3.39110081924951
O         1.67092302576188    2.92891242590577   -0.33756383404546
O         2.32949634950521    1.05167571736194    0.63269034508429
H         1.04127620060298    3.24483211396267   -0.99955672875520
H         2.09296530036800    0.16435309481128   -2.48959829905911
H         1.44071512702253    1.77292598982910   -2.87134237256698
H         0.00249259669243   -0.62604520586844   -3.14288618527883
H         0.47108571862634   -0.13051762470595   -0.65720208630004
H        -0.32417927034515    1.40462034194736   -1.07474840291649
12
 energy: -21.670567932587 gnorm: 0.001299361689 xtb: 6.2.3 (830e466)
C         1.18083096702350    0.78209407626980   -2.49009466674336
C         0.63003617275619    0.87325866763965   -1.05396997770299
C         1.61867253504081    1.59647792018278   -0.15874307909908
O         0.23086364036541    0.27711432494220   -3.38995076378068
O         1.67419574303349    2.92654486120210   -0.33932282451041
O         2.32437594201541    1.05251010999434    0.63706747462272
H         1.04863762817979    3.24031105433738   -1.00539689834314
H         2.09184853953680    0.17056100390386   -2.49034139525798
H         1.43405208869314    1.77519340048888   -2.87120996106491
H         0.00984202844057   -0.62791859050184   -3.14508760107845
H         0.47061924914435   -0.13102977193082   -0.65802125016882
H        -0.32498453422945    1.40449294347166   -1.07073905687289
12
 energy: -21.670570166815 gnorm: 0.000777399488 xtb: 6.2.3 (830e466)
C         1.18115153074994    0.78096265586690   -2.49018458142911
C         0.63056856778528    0.87341737151498   -1.05420198796595
C         1.61882326105963    1.59707838013421   -0.15960848134038
O         0.22926803318209    0.27781707409622   -3.38983770904182
O         1.67387394064103    2.92787602272877   -0.33906590964463
O         2.32410553991470    1.05151834403682    0.63581073165190
H         1.04711551721609    3.24332823156981   -1.00383241810245
H         2.09254473411297    0.16789395923957   -2.49038498476806
H         1.43696886829467    1.77511882939912   -2.87018626054711
H         0.00799562100886   -0.62782952116132   -3.14612399611714
H         0.47240298010352   -0.13031549964338   -0.65617444409385
H        -0.32582859406877    1.40274415221830   -1.07201995860138
