12
 energy: -21.505144734855 gnorm: 0.127489475790 xtb: 6.2.3 (830e466)
C         1.95150000000000    0.91303000000000   -2.14176000000000
C         1.77554000000000    0.43090000000000   -0.90984000000000
C         1.47300000000000   -0.99200000000000   -0.68284000000000
O        -0.89516000000000    3.00153000000000   -2.41471000000000
O        -0.29748000000000    3.72156000000000   -1.48810000000000
O         1.31875000000000   -1.40903000000000    0.45292000000000
H         0.58553000000000    3.95081000000000   -1.87582000000000
H         2.17423000000000    1.96508000000000   -2.28538000000000
H         1.87514000000000    0.27010000000000   -3.01361000000000
H         1.38610000000000   -1.67929000000000   -1.51917000000000
H        -0.81589000000000    2.06546000000000   -2.09836000000000
H         1.85775000000000    1.10146000000000   -0.05914000000000
12
 energy: -21.513610889616 gnorm: 0.046830248376 xtb: 6.2.3 (830e466)
C         1.94584287646050    0.91276127680891   -2.14552334254053
C         1.77074623330982    0.43050400507574   -0.91681726560002
C         1.47299751115416   -0.98150459332107   -0.65839001571069
O        -0.90007331115856    2.96873209661043   -2.42704929846425
O        -0.27086653256704    3.73404063407278   -1.47547765005737
O         1.31602282109082   -1.41999912793538    0.45917526987047
H         0.59157733345971    3.98354650628997   -1.86533671964254
H         2.18494337056835    1.95290274386955   -2.30423489762828
H         1.87594097529384    0.27875071110692   -3.01564186880721
H         1.39264599798568   -1.64608685613666   -1.52708241838487
H        -0.84150462501587    2.04668870111252   -2.10392656102882
H         1.85073734941860    1.07927390244631   -0.05550523200591
12
 energy: -21.515469106650 gnorm: 0.010586122269 xtb: 6.2.3 (830e466)
C         1.95684944725666    0.90767426334101   -2.14541697080615
C         1.77130936478361    0.43301569280210   -0.91846761618247
C         1.46400582212658   -0.97142428389176   -0.64388212165457
O        -0.88349959289914    2.94021976945284   -2.43958005917473
O        -0.25288013932190    3.73051747397342   -1.46576395822003
O         1.30704144174033   -1.42957499930428    0.45880581580436
H         0.58272687983850    4.01524608214698   -1.86882790816438
H         2.18834047748474    1.94408331209045   -2.32208355997750
H         1.87283084595394    0.27802247093643   -3.01531562392461
H         1.40058710555855   -1.61525688195997   -1.54228844791755
H        -0.86276677472873    2.03687115186153   -2.08449217837348
H         1.84446512220686    1.07021594855131   -0.04849737140893
12
 energy: -21.515978214041 gnorm: 0.011057272232 xtb: 6.2.3 (830e466)
C         1.94776221391864    0.90667730200678   -2.14659782103024
C         1.76556896848450    0.44003705876463   -0.91767033506986
C         1.47296134194273   -0.96743182115125   -0.63885156995315
O        -0.85545006004834    2.91905702709429   -2.45193392023679
O        -0.24013270025869    3.71230148401029   -1.45244561394263
O         1.29814484194701   -1.43354782212570    0.45500444380320
H         0.56900974582791    4.04943877944975   -1.87116475797609
H         2.20342965151463    1.93565541517725   -2.33664148954407
H         1.88166798375980    0.26748946515198   -3.01191874611281
H         1.39215183243191   -1.59370730630810   -1.55418394952427
H        -0.88610861110721    2.02847060892452   -2.06400892568006
H         1.84000479158711    1.07516980900564   -0.04539731473332
12
 energy: -21.516331349207 gnorm: 0.027379261893 xtb: 6.2.3 (830e466)
C         1.95819920289879    0.90136105874950   -2.14689066481394
C         1.76650290305917    0.45014333596667   -0.91465278113643
C         1.44806260714476   -0.95428213212760   -0.63849604209628
O        -0.81140057328427    2.89187384711966   -2.46622507002326
O        -0.21688079898714    3.67248598267158   -1.42714440592757
O         1.28663056321345   -1.43636018250750    0.44821253306859
H         0.54428513708864    4.10164660373748   -1.87656115589118
H         2.21083972442978    1.92746806778592   -2.35695106545228
H         1.88413037080455    0.25212089512079   -3.00590982168408
H         1.39853446046143   -1.57175458289581   -1.56684793014529
H        -0.92167146642951    2.01770242606528   -2.04152476203177
H         1.84177786960035    1.08720468031418   -0.04281883386668
12
 energy: -21.516785281353 gnorm: 0.016424469230 xtb: 6.2.3 (830e466)
C         1.96917602261006    0.90031728881589   -2.14759969465523
C         1.77065036812389    0.45362215486970   -0.91400429435772
C         1.45420672452576   -0.95295215129377   -0.64277874383798
O        -0.80365337970373    2.88946914310071   -2.46493597423770
O        -0.21305281949731    3.66446917248480   -1.42585963778029
O         1.27775360135570   -1.43094959456421    0.44474783891856
H         0.53987051128887    4.08998324419622   -1.87142891222464
H         2.21024821170474    1.92821224910810   -2.36002291430359
H         1.88529537968037    0.24822373460779   -3.00403899447705
H         1.39287972520187   -1.57050715718518   -1.56650494127673
H        -0.93232335383184    2.02285743450626   -2.03701405338186
H         1.83795900854160    1.09686448135387   -0.04636967838600
12
 energy: -21.516903037337 gnorm: 0.028479754505 xtb: 6.2.3 (830e466)
C         1.97782225834150    0.90028818208205   -2.15185435070952
C         1.76902533227577    0.46559762476049   -0.91405454566049
C         1.44946139806171   -0.94325398918343   -0.65233955022415
O        -0.78661865833304    2.87444373344804   -2.43870387006119
O        -0.17429146909650    3.60348434033566   -1.39149536777983
O         1.25390207820544   -1.41633656024586    0.43710099069152
H         0.50228084648218    4.11853530189580   -1.88834820490697
H         2.22767979113187    1.92423579412671   -2.37157282931567
H         1.90473199406200    0.23243486910927   -2.99774416057037
H         1.37897292363314   -1.56264138168269   -1.56582822766300
H        -0.94648686721716    2.02234541212547   -2.04489188666612
H         1.83253037245306    1.12047667322874   -0.05607799713455
12
 energy: -21.516956515888 gnorm: 0.039680926901 xtb: 6.2.3 (830e466)
C         1.97784350350089    0.90407583461516   -2.16090087502421
C         1.76442735528983    0.48095317638871   -0.91851039310981
C         1.43341529880597   -0.92727933273984   -0.66511919350662
O        -0.70345705598524    2.83332162207391   -2.46705414987093
O        -0.15829642534742    3.57161207783676   -1.39578174855032
O         1.23906249511313   -1.40049964349299    0.42688801402268
H         0.48349870229514    4.11741601562261   -1.85044981085408
H         2.25205501246474    1.92027627910551   -2.38832873410184
H         1.93105813035720    0.21656015721562   -2.99388698403938
H         1.37479166575215   -1.55147116745161   -1.56812779352074
H        -1.03852686304353    2.02927943361050   -1.98450249119157
H         1.83313818079706    1.14536554721602   -0.07003584025375
12
 energy: -21.517780399762 gnorm: 0.006634223730 xtb: 6.2.3 (830e466)
C         1.98658018622986    0.89956067897908   -2.16204657491728
C         1.76865580935962    0.47101193851523   -0.92345168792393
C         1.43266321193864   -0.93092819826927   -0.65374636732755
O        -0.74285009507815    2.84271480377842   -2.45163674412847
O        -0.17227187352921    3.59197009726128   -1.39384080290708
O         1.24089388260384   -1.39981956524670    0.43791996922012
H         0.48796855534057    4.12686879045335   -1.85225364833749
H         2.24246846794407    1.92081725210829   -2.38463183031701
H         1.91361182542368    0.22836114898837   -3.00353058639279
H         1.37615083832110   -1.55695371858749   -1.56358048637272
H        -0.97665472691567    2.01685362356777   -2.01610189624856
H         1.83179391836159    1.12915314845201   -0.06890934434776
12
 energy: -21.517629964038 gnorm: 0.031229444880 xtb: 6.2.3 (830e466)
C         2.00787332475937    0.89498178429768   -2.16809666373492
C         1.77268548078273    0.47762535114306   -0.92849357813271
C         1.43291300806222   -0.92199913063178   -0.65268540101854
O        -0.70473821044171    2.81309580399549   -2.45186516254818
O        -0.14599623300634    3.55043866199858   -1.37018836661773
O         1.21475994860904   -1.38628191410039    0.43610784451231
H         0.46029718942506    4.17214937095434   -1.84909414745515
H         2.25153478127358    1.91643293037426   -2.40014902751610
H         1.91799015741786    0.22143539477160   -3.00641500381167
H         1.36523341490776   -1.54412103567655   -1.56664238707851
H        -1.00561339791269    2.00442001480459   -2.00150687621598
H         1.82207053612306    1.14143276806951   -0.07678123038347
12
 energy: -21.518241716149 gnorm: 0.008619319084 xtb: 6.2.3 (830e466)
C         1.99891692615973    0.89877498626562   -2.17253551721656
C         1.76721193245683    0.47873744078706   -0.93354193637243
C         1.42228781068304   -0.91812282866747   -0.65498730080890
O        -0.70126081047719    2.80734546560902   -2.44912925768463
O        -0.15012352861922    3.55687047654069   -1.37774868117965
O         1.21577498977606   -1.37841380542277    0.43781738694761
H         0.46121904205000    4.15403430400448   -1.83692403592209
H         2.26181269656674    1.91716302799208   -2.39886376541327
H         1.92994411147421    0.22303227057245   -3.01055033464555
H         1.36723517847217   -1.54940651224171   -1.56247701399426
H        -1.00931651433666    2.00779476852665   -1.99451450558578
H         1.82530816579419    1.14180040603433   -0.08235503812519
12
 energy: -21.518511270366 gnorm: 0.008981977019 xtb: 6.2.3 (830e466)
C         2.00736870573068    0.89947771443507   -2.18272280012371
C         1.76445978112922    0.48596770821447   -0.94349897366401
C         1.40857115075671   -0.90584932730747   -0.65763221368005
O        -0.67402122672977    2.78043760988580   -2.44015754433088
O        -0.13194117913971    3.52935389940440   -1.36510610409464
O         1.19423556061646   -1.35653554607819    0.43824343112271
H         0.43968669649178    4.16197642388104   -1.82260485520076
H         2.28169777541025    1.91494444740414   -2.40961685796674
H         1.94907342041021    0.21906791003331   -3.01791930916976
H         1.36165256257907   -1.54667285324775   -1.55903584465305
H        -1.03264531656439    2.00359857069577   -1.97986749036048
H         1.82087206930938    1.15384344267993   -0.09589143787949
12
 energy: -21.518871461920 gnorm: 0.015611005915 xtb: 6.2.3 (830e466)
C         2.03782857111262    0.89731993062485   -2.20651247127126
C         1.76297833360663    0.50073549728009   -0.96793762541309
C         1.38393662023767   -0.87885288274166   -0.66082846011473
O        -0.61824247366166    2.71791357413670   -2.41527481012081
O        -0.09137139436017    3.46826117518936   -1.33230794273328
O         1.13707933826882   -1.30290413790162    0.44057044031067
H         0.38689176630904    4.18449361465481   -1.78998032005953
H         2.32300247332115    1.90917558989769   -2.43549731346572
H         1.98647271647590    0.21194703076902   -3.03790949185424
H         1.34593854822559   -1.54027218569090   -1.55063370876646
H        -1.07164051212820    1.99111254612172   -1.95141286955854
H         1.80613601259247    1.18068024766068   -0.12808542695424
12
 energy: -21.519048726656 gnorm: 0.006463985044 xtb: 6.2.3 (830e466)
C         2.05466103037883    0.89574456802522   -2.21635474640142
C         1.76388377278988    0.50563338812213   -0.97973422593730
C         1.37622371661475   -0.86799082432160   -0.66105058247208
O        -0.61130747589716    2.69720386339710   -2.39796786156200
O        -0.07924411465187    3.45252452968257   -1.32036151309186
O         1.11069337036051   -1.27664090529307    0.44210219269316
H         0.37085354183998    4.17590424962776   -1.77678315682937
H         2.34002922197453    1.90782607327188   -2.44380591122280
H         2.00218103519758    0.21244157676636   -3.04914472835969
H         1.33898394292599   -1.53981089081400   -1.54559973194937
H        -1.07619556977306    1.98657873171810   -1.94473490537530
H         1.79824752823987    1.19019563981837   -0.14237482949338
12
 energy: -21.519154321975 gnorm: 0.006048283030 xtb: 6.2.3 (830e466)
C         2.07198522567169    0.89358323841414   -2.22778302644200
C         1.76370727213581    0.51656233863984   -0.99150599039888
C         1.36083688986159   -0.85065668646931   -0.66462433437116
O        -0.58236504976125    2.66295215576295   -2.38549475699621
O        -0.05921134472331    3.41960096182495   -1.30165330108148
O         1.07964620393648   -1.24562720919970    0.43865973441865
H         0.34218087019815    4.17584409509670   -1.75569242938140
H         2.36630908976960    1.90269845330007   -2.45962186317688
H         2.02474258659859    0.20482182525119   -3.05684657798980
H         1.32781898735729   -1.53196929365071   -1.54230855376835
H        -1.09948006311137    1.98285895601223   -1.92855159772177
H         1.79283933206652    1.20894116501860   -0.16038730309235
12
 energy: -21.519201792080 gnorm: 0.004175431553 xtb: 6.2.3 (830e466)
C         2.07742675971879    0.89259978153491   -2.23087861493666
C         1.76385681819960    0.52280932910664   -0.99446672309754
C         1.35168708420255   -0.84220348048206   -0.66863710123778
O        -0.57510052144966    2.64840293903287   -2.37757286571768
O        -0.05356295637752    3.40747681128645   -1.29529624129272
O         1.06530257548964   -1.23371667193711    0.43322374988713
H         0.32845905930103    4.17265611306504   -1.74995271393625
H         2.38180257640884    1.89864112999068   -2.46631197136721
H         2.03680172806532    0.19823711154137   -3.05619523652663
H         1.32159206876139   -1.52540095927738   -1.54296559688131
H        -1.10404515082029    1.98123261999179   -1.91924115341748
H         1.79478995850009    1.21887527614781   -0.16751553147761
12
 energy: -21.519238526350 gnorm: 0.003779323121 xtb: 6.2.3 (830e466)
C         2.09478147878209    0.88969841185548   -2.23659445856971
C         1.76800572013297    0.53144325686512   -1.00002008317680
C         1.34085299257254   -0.82951504217590   -0.67400112554692
O        -0.56790976919354    2.62589038047843   -2.36293401004959
O        -0.04606769399641    3.39320851360836   -1.28798085178472
O         1.03321248830132   -1.21456636178059    0.42565229945337
H         0.31065714797500    4.16452899935955   -1.74267613445575
H         2.40594605034458    1.89194782057252   -2.47785335661356
H         2.05397602813011    0.18943612146274   -3.05639357782989
H         1.31698633569743   -1.51441745301180   -1.54535874917446
H        -1.11687918695090    1.97848456773759   -1.89887001022611
H         1.79544840820457    1.23347078502962   -0.17877994202774
12
 energy: -21.519247455279 gnorm: 0.007292584313 xtb: 6.2.3 (830e466)
C         2.11779293173619    0.88632224089188   -2.24548900727967
C         1.77154874927449    0.54240859246171   -1.00913649576989
C         1.32378657469554   -0.81182910147684   -0.68042813539317
O        -0.55994237945284    2.59451719539363   -2.33819585412028
O        -0.02992470429371    3.36944535617929   -1.27512158348636
O         0.98925135295334   -1.18711164989564    0.41686865230812
H         0.28242288526330    4.16240305884898   -1.73768548955429
H         2.44160596667572    1.88287550017535   -2.49280293001285
H         2.07915024672170    0.17865390298694   -3.05860682773875
H         1.31157935904864   -1.50139884838402   -1.54796309714343
H        -1.13246498504688    1.97176098518587   -1.87311868707534
H         1.79420400242423    1.25156276763413   -0.19413054473621
12
 energy: -21.519271334834 gnorm: 0.003732396829 xtb: 6.2.3 (830e466)
C         2.11476059872608    0.88637366452376   -2.24146357314001
C         1.77179197301992    0.53952518528341   -1.00587361512049
C         1.32631070787593   -0.81525177587544   -0.67967614774744
O        -0.56877413720706    2.60130146744192   -2.34206597678797
O        -0.03675216176572    3.38065696046209   -1.28186760893226
O         0.99842808292865   -1.19498372144127    0.41548770777346
H         0.28953040527981    4.16314247001754   -1.74424735611332
H         2.43879861455894    1.88265168035001   -2.48784102939490
H         2.07286007222199    0.18027472747207   -3.05549572459663
H         1.31279706275656   -1.50142759506930   -1.55044324857973
H        -1.12726570501868    1.97172088161607   -1.87402931994692
H         1.79652448662332    1.24562605522040   -0.18829410741583
12
 energy: -21.519282417309 gnorm: 0.001648645890 xtb: 6.2.3 (830e466)
C         2.12198067999707    0.88569498792349   -2.24295944351941
C         1.77335421903625    0.54178758312139   -1.00844271583559
C         1.32255355837468   -0.81066697148997   -0.68158280478190
O        -0.56770553358494    2.59230988803960   -2.33675952759238
O        -0.03341298925300    3.37682571492764   -1.28072969147357
O         0.98730447361242   -1.18732595765818    0.41195128355380
H         0.28341625823158    4.16152378025816   -1.74481314558703
H         2.45036097484296    1.88034174476883   -2.48985768678273
H         2.08074310487688    0.17813727639128   -3.05602939649859
H         1.30973528428860   -1.49821063230094   -1.55193888106063
H        -1.13624521229737    1.97045374033848   -1.86334103874949
H         1.79692518187460    1.24873884568152   -0.19130695167457
12
 energy: -21.519300717203 gnorm: 0.001731939971 xtb: 6.2.3 (830e466)
C         2.13771088382630    0.88405044242667   -2.24480004551418
C         1.77813646020543    0.54578910200546   -1.01187338875229
C         1.31455742899327   -0.80277834364232   -0.68660831442192
O        -0.57612757735635    2.57922811581287   -2.32168716866400
O        -0.02883475141441    3.37223626773775   -1.27960899003681
O         0.96093139045039   -1.17462202676716    0.40371663355324
H         0.27174209837974    4.15778607876132   -1.75401028495211
H         2.47479372740790    1.87521189773305   -2.49292410850531
H         2.09767668175488    0.17300188188568   -3.05520014837871
H         1.30637735066373   -1.49190651775758   -1.55619764228406
H        -1.14863448912983    1.96734309236299   -1.84074137672809
H         1.80068079621869    1.25427000944265   -0.19587516531792
12
 energy: -21.519345977818 gnorm: 0.001988381003 xtb: 6.2.3 (830e466)
C         2.14305815649667    0.88324911835982   -2.24422773041828
C         1.77954424390423    0.54547956764486   -1.01233106373944
C         1.30913326996922   -0.80087005864397   -0.68853404077224
O        -0.60016276750069    2.59127103409685   -2.32394100549285
O        -0.01300165887404    3.36274827515400   -1.28609857037638
O         0.95310734792637   -1.17014673431749    0.40102006137926
H         0.26238552189077    4.16216072463699   -1.75437733970205
H         2.48121127670675    1.87460797081946   -2.49075275074210
H         2.10152553522550    0.17369286975336   -3.05576998957742
H         1.30690119812937   -1.49343015287579   -1.55521825927657
H        -1.13650185037579    1.95680048715270   -1.82919940842567
H         1.80180972650137    1.25404689822059   -0.19637990285843
12
 energy: -21.519294260758 gnorm: 0.013143120379 xtb: 6.2.3 (830e466)
C         2.15206534962798    0.88322487077485   -2.24423761523003
C         1.78018318933362    0.54589063182269   -1.01465727710275
C         1.30971340950425   -0.80021420559601   -0.69046551291881
O        -0.65100678475071    2.61311766278846   -2.32374026297588
O         0.01876831504946    3.34535677129187   -1.30001124912894
O         0.93246729985618   -1.16006958317518    0.39468424783870
H         0.24622172601129    4.16836715513342   -1.75933921981038
H         2.49765236825882    1.87365364040470   -2.48548874735392
H         2.11588047319661    0.17475492969805   -3.05686655345178
H         1.30001707257156   -1.49347146346390   -1.55624073932101
H        -1.11162593922614    1.93368503875753   -1.80012125825844
H         1.79867352056680    1.25531455156490   -0.19932581228893
12
 energy: -21.519388650158 gnorm: 0.004448870110 xtb: 6.2.3 (830e466)
C         2.15147392692925    0.88303980650416   -2.24506913528950
C         1.78045533659593    0.54606056283107   -1.01514271739693
C         1.30664083504022   -0.79907386450829   -0.69121803131341
O        -0.63396715233388    2.60183012229211   -2.31878022796850
O         0.00431572686929    3.35397175407407   -1.29491209561644
O         0.93473583213975   -1.16093716855312    0.39539035412716
H         0.25219443681220    4.16454831144008   -1.76043824413319
H         2.49588593321337    1.87351737298946   -2.48734468145497
H         2.11428920786837    0.17420966475499   -3.05738131280554
H         1.30309230326145   -1.49364856817634   -1.55611987580237
H        -1.12064776965533    1.94079078786041   -1.80508950496455
H         1.80054138325911    1.25530121849278   -0.19970452738394
12
 energy: -21.519413144096 gnorm: 0.002329633223 xtb: 6.2.3 (830e466)
C         2.15627795895441    0.88250792569150   -2.24593980531370
C         1.78095143270821    0.54667555520789   -1.01697836156947
C         1.29988741586138   -0.79630188199002   -0.69392998325055
O        -0.63978614709636    2.59949609621290   -2.31125046813595
O         0.00584062217739    3.35547565843743   -1.29614237808136
O         0.92554916441731   -1.15711990906282    0.39266576831156
H         0.24919879618185    4.16450697304944   -1.76528178604729
H         2.50154413701157    1.87279570364326   -2.48751641901767
H         2.11966371050762    0.17375260580827   -3.05836464832426
H         1.30599116515730   -1.49380765597158   -1.55663611459365
H        -1.11674131609292    1.93541503947514   -1.79466280111691
H         1.80063306021198    1.25621388949997   -0.20177300286291
12
 energy: -21.519444147056 gnorm: 0.001345443945 xtb: 6.2.3 (830e466)
C         2.16589848774532    0.88107144496096   -2.24735456318160
C         1.78179163788861    0.54779671194879   -1.02037108399047
C         1.29355153844765   -0.79282364252260   -0.69816501250133
O        -0.65136812631286    2.59505197775284   -2.29683448929227
O         0.00928301877700    3.35831230783181   -1.29867226904963
O         0.90706239845583   -1.14900744343478    0.38588631418580
H         0.24229259647582    4.16535735101819   -1.77517627450737
H         2.51332563281059    1.87087449577056   -2.48766746232038
H         2.13085202306330    0.17226055468718   -3.05980496077315
H         1.30712751054514   -1.49313272274173   -1.55846190267447
H        -1.10837742001328    1.92499068315890   -1.77286274381080
H         1.79757070211660    1.25885828157125   -0.20632555208650
12
 energy: -21.519506857126 gnorm: 0.011977974405 xtb: 6.2.3 (830e466)
C         2.20841948689773    0.87615086824927   -2.25517588750006
C         1.78063581949951    0.55516297332149   -1.03832388167299
C         1.25884691587801   -0.77465562150854   -0.72120373723163
O        -0.72248635680872    2.57861630912447   -2.22448639179287
O         0.04133735352728    3.36729351597070   -1.31656365211030
O         0.81115896730284   -1.10841213000352    0.34923856352027
H         0.19913264145942    4.17408378809997   -1.82906211115290
H         2.57822981958522    1.86031974743171   -2.48671852924272
H         2.19580990216204    0.16284263617040   -3.06474487504467
H         1.31312805124690   -1.48947316900583   -1.56903265932565
H        -1.05536099060541    1.86520803328464   -1.65064716735105
H         1.78015838985487    1.27247304886659   -0.22908967109764
12
 energy: -21.519582343324 gnorm: 0.003289889635 xtb: 6.2.3 (830e466)
C         2.20392057145940    0.87657832367641   -2.25500771637563
C         1.77945162099819    0.55623932009509   -1.03745097615887
C         1.26510895334637   -0.77552685653254   -0.71916448442095
O        -0.70651709212070    2.57288965370922   -2.22876747313358
O         0.03397213221311    3.36608705100906   -1.31120911497690
O         0.82098279540444   -1.11038973497288    0.35076525429995
H         0.20384897556932    4.16911511952624   -1.82330596628544
H         2.57394923206680    1.86010578027767   -2.48855128632264
H         2.19184240087197    0.16159566284706   -3.06299539759111
H         1.30877028623771   -1.48735415216656   -1.56879524594887
H        -1.06571585153149    1.87633818828061   -1.66262142843239
H         1.77939597548457    1.27393164425198   -0.22870616465578
12
 energy: -21.519641365638 gnorm: 0.003572767438 xtb: 6.2.3 (830e466)
C         2.22134164433556    0.87398263894353   -2.25722505155919
C         1.77827837709031    0.56123050937010   -1.04425135540166
C         1.25601954899617   -0.76759023034230   -0.72752650862873
O        -0.72034109757704    2.55957984858829   -2.20235534420050
O         0.04152523259897    3.36618474444543   -1.31377291126517
O         0.78912151128428   -1.09396336545635    0.33508593283130
H         0.18936298220055    4.16531885369560   -1.83964945837855
H         2.59564571705040    1.85566663717904   -2.49100823265617
H         2.21451707747083    0.15599250024490   -3.06245297626471
H         1.30651307072163   -1.48282354999967   -1.57329682973524
H        -1.05118986981881    1.86281838858327   -1.62011248191057
H         1.76821580564682    1.28321302474951   -0.23924478283305
12
 energy: -21.519711767211 gnorm: 0.015391432146 xtb: 6.2.3 (830e466)
C         2.27297740323122    0.86699975932188   -2.26682983515533
C         1.77041428647540    0.57999766805306   -1.06894424570456
C         1.21787843630893   -0.73779577148556   -0.75716857038087
O        -0.76486792203032    2.51449141152375   -2.11324222308163
O         0.06336967948199    3.36721551574098   -1.32157983728580
O         0.68363589149955   -1.03768996174255    0.28284504088587
H         0.14265060344790    4.15060428721565   -1.89096444968369
H         2.67152870573041    1.83954651676877   -2.50050391811627
H         2.29487919510924    0.13440973776982   -3.05944745297318
H         1.30293069353918   -1.46838686428836   -1.58749145246513
H        -0.99830279385740    1.81477598182585   -1.47621638487853
H         1.73191582106353    1.31544171929805   -0.27626667116315
12
 energy: -21.519841260088 gnorm: 0.004027169269 xtb: 6.2.3 (830e466)
C         2.27220702012101    0.86632232351312   -2.26764980208038
C         1.76966841809830    0.58349853399041   -1.07029949726270
C         1.21638893725931   -0.73354517235345   -0.75687796199064
O        -0.74871248372370    2.50924487379408   -2.11720925760581
O         0.05297213047588    3.36270095727068   -1.31394654363729
O         0.68907259654015   -1.03399787723167    0.28320202894596
H         0.14777545746075    4.14063329970693   -1.87814156300734
H         2.66835218367819    1.83821668990151   -2.50595127802161
H         2.29165890840800    0.13068745908924   -3.05682145598965
H         1.30031845850254   -1.46522559242378   -1.58610546312152
H        -1.00094919866722    1.81993095254730   -1.48568781735203
H         1.73025757184639    1.32114355219699   -0.28032138887925
12
 energy: -21.519964571804 gnorm: 0.003769187333 xtb: 6.2.3 (830e466)
C         2.29856499255267    0.86234231115569   -2.27402145284464
C         1.76585883121873    0.59568741156419   -1.08562155453292
C         1.19323478659321   -0.71401263605720   -0.77338178580362
O        -0.75289850418064    2.47371080082506   -2.06877265205691
O         0.05745355026315    3.36204246374498   -1.31036513469260
O         0.63266755785945   -0.99977425658241    0.25527370424425
H         0.12533535784697    4.12738543082204   -1.89813017088984
H         2.70599133637131    1.82903404917233   -2.51494039518038
H         2.33277462389651    0.11663223357964   -3.05360998415865
H         1.30075068933131   -1.45619419834097   -1.59223978658877
H        -0.98189003655393    1.80079371179674   -1.41557250963205
H         1.71116681480080    1.34196267832126   -0.30442827786613
12
 energy: -21.519912553814 gnorm: 0.023359942704 xtb: 6.2.3 (830e466)
C         2.37064099862650    0.85145550542627   -2.28994422329503
C         1.75494504292173    0.62916566112915   -1.12784988876476
C         1.12827946160028   -0.65921333655545   -0.81968853296520
O        -0.77152891882338    2.38276810050792   -1.93933619304381
O         0.06675552779719    3.35859907988065   -1.30464010786829
O         0.48338058048403   -0.90459103294507    0.17701636656820
H         0.06216970051286    4.08853723206646   -1.95097652513984
H         2.81211425821611    1.80320686670801   -2.53550172977323
H         2.44461841902146    0.07925058185952   -3.04343379564648
H         1.29174560652961   -1.42892190489799   -1.60847982731292
H        -0.91681713528658    1.74108085400107   -1.22213826504775
H         1.66270645839962    1.39827239282085   -0.37083727771317
12
 energy: -21.520189379764 gnorm: 0.005066740686 xtb: 6.2.3 (830e466)
C         2.34664361653060    0.85517823894805   -2.28534132547553
C         1.75891824221076    0.62184780287055   -1.11737736974695
C         1.14333239010497   -0.66981605970211   -0.80694681102263
O        -0.75911017216720    2.40746885764739   -1.98219821965026
O         0.06177707881645    3.34932042750907   -1.30204734483724
O         0.53467320714352   -0.92672979881693    0.20089560961518
H         0.07969356733532    4.09242182186177   -1.92279716193043
H         2.78340287743278    1.80925588520489   -2.52885773918924
H         2.40978503927344    0.08913948593445   -3.04365655143002
H         1.28385694123830   -1.43181767183181   -1.60180245969747
H        -0.93795233952594    1.75877913959625   -1.29056260036506
H         1.68398955160647    1.38456187077979   -0.35511802627264
12
 energy: -21.520287332154 gnorm: 0.005389566130 xtb: 6.2.3 (830e466)
C         2.36981021387207    0.84978296650087   -2.29003034232398
C         1.75946539979795    0.63108666509110   -1.13001503188450