12
 energy: -21.547411506174 gnorm: 0.131482457525 xtb: 6.2.3 (830e466)
C         1.03240000000000    0.93712000000000   -1.88240000000000
C         0.29407000000000    1.17615000000000   -0.56183000000000
C         1.81988000000000   -0.33979000000000   -1.81772000000000
O         1.91845000000000    1.99945000000000   -2.15059000000000
O         1.20293000000000    2.96799000000000   -2.69433000000000
O         2.71413000000000   -0.48005000000000   -0.99795000000000
H         1.20535000000000    3.69434000000000   -2.01946000000000
H         1.01562000000000    1.28118000000000    0.27668000000000
H         0.28928000000000    0.81849000000000   -2.70651000000000
H         1.59925000000000   -1.14702000000000   -2.50894000000000
H        -0.39026000000000    0.32755000000000   -0.34681000000000
H        -0.31210000000000    2.10418000000000   -0.62594000000000
12
 energy: -21.557579947134 gnorm: 0.047739633025 xtb: 6.2.3 (830e466)
C         1.01855145730038    0.92105711587910   -1.88116945954453
C         0.28369207670385    1.16253467637098   -0.55911705863522
C         1.83874187683684   -0.34809614506166   -1.78950144098845
O         1.91329667931882    1.97982004294499   -2.17679834825717
O         1.20409567551083    3.03266124363835   -2.71018623187948
O         2.72556443245382   -0.49506413513402   -0.98993248211714
H         1.21366159667557    3.73012406921087   -2.02378463477550
H         1.00900193946198    1.26152683050983    0.25216082118956
H         0.28645104568692    0.83524660177058   -2.70462917545011
H         1.59290966785821   -1.15124922870418   -2.49334527260570
H        -0.38827858811935    0.33154475768337   -0.33666451200396
H        -0.30868785968786    2.07948417089179   -0.62283220493230
12
 energy: -21.559382118106 gnorm: 0.007766938726 xtb: 6.2.3 (830e466)
C         0.99916111432396    0.91390511231182   -1.88972505001517
C         0.27724983244401    1.15525864910721   -0.55896486458717
C         1.85574798447970   -0.34175084274909   -1.77567693633417
O         1.90339835287826    1.96536034317872   -2.20475587119958
O         1.19729151332391    3.07577472406936   -2.70746370459019
O         2.73212791944864   -0.48488897297704   -0.97937078020449
H         1.25638429668792    3.75219118550933   -2.01353942641934
H         1.00995827573460    1.25544140221403    0.23699592244405
H         0.27807928677701    0.81837254770170   -2.71163210835583
H         1.57697850656003   -1.15223163486441   -2.47304286167580
H        -0.37851808591680    0.32040544232406   -0.33769775641700
H        -0.31885899674123    2.06175204417432   -0.62092656264531
12
 energy: -21.559536826043 gnorm: 0.007151474811 xtb: 6.2.3 (830e466)
C         0.98915953939582    0.90884232252630   -1.89188932123192
C         0.26987026880308    1.15539574391357   -0.56114822905100
C         1.85242000596847   -0.34535366483846   -1.76272664518737
O         1.89483654390621    1.95550159573674   -2.21997383573595
O         1.18607301967824    3.08689827096697   -2.69622779330401
O         2.74725313864399   -0.47053197774830   -0.98488334986727
H         1.30024421297204    3.76066480205170   -2.00439215773926
H         1.00782660576292    1.26071050405754    0.22968112680132
H         0.26763756393581    0.79951699512187   -2.70976204771705
H         1.58518980228055   -1.14781696044911   -2.47594593636658
H        -0.38086051498417    0.31651098656473   -0.33436411308651
H        -0.33065018636297    2.05925138209646   -0.62416769751441
12
 energy: -21.559660786559 gnorm: 0.010292346868 xtb: 6.2.3 (830e466)
C         0.98602417191122    0.90733666991694   -1.89710742790447
C         0.26724585373799    1.15387589233818   -0.56649246704802
C         1.86139737551816   -0.34114760569396   -1.76625428451337
O         1.88648546910431    1.95431504123648   -2.23152134958118
O         1.16950774078772    3.09687962412634   -2.68090670212486
O         2.75295057871007   -0.46065863747626   -0.98426172026500
H         1.33713313517046    3.77011880237317   -1.99518801709008
H         1.00736053407128    1.26556950192514    0.22257521491380
H         0.26351262065337    0.78487413540022   -2.71230021679203
H         1.57559158498682   -1.15549725747076   -2.46078308345281
H        -0.37785814256899    0.30977684141165   -0.33524966834828
H        -0.34035092208243    2.05414699191286   -0.62831027779369
12
 energy: -21.559778602705 gnorm: 0.006928721352 xtb: 6.2.3 (830e466)
C         0.98562187924966    0.90731834135277   -1.89920519136577
C         0.26684229537422    1.15289247907040   -0.56910239390621
C         1.86373286992518   -0.33925099093666   -1.76895156219567
O         1.88066634092986    1.95548443180516   -2.23159283950443
O         1.15961749522796    3.09798314529200   -2.66846734460106
O         2.75813189217492   -0.45359414141187   -0.98908341518500
H         1.35668117586285    3.77196944053665   -1.99558307122199
H         1.00473982116975    1.26842157881523    0.22221547824839
H         0.26272721340806    0.77813080056850   -2.71453836644340
H         1.57031432006107   -1.15960223824596   -2.45258248705594
H        -0.37712643609522    0.30791247511706   -0.33619625047350
H        -0.34294886728833    2.05192467803673   -0.63271255629542
12
 energy: -21.559927494223 gnorm: 0.012672904995 xtb: 6.2.3 (830e466)
C         0.98147679349301    0.90406995741561   -1.90523752107238
C         0.26200237946145    1.14909428334176   -0.57635132409356
C         1.86679116335254   -0.33728305763534   -1.76856838837970
O         1.86380349243979    1.95409890335911   -2.24223475795784
O         1.12800904329863    3.10513244839469   -2.63089862988509
O         2.77952219364859   -0.42970953115436   -1.00582153886084
H         1.42305466667480    3.78266701465921   -1.99155773618300
H         0.99672275806689    1.27537437895231    0.21693972738690
H         0.25546592352597    0.76037869590562   -2.71753722633252
H         1.56254331127933   -1.17170621033688   -2.42860705360900
H        -0.37814528095359    0.30289189067263   -0.33806676996517
H        -0.35224644428740    2.04458122642565   -0.64785878104781
12
 energy: -21.560106819880 gnorm: 0.007247349261 xtb: 6.2.3 (830e466)
C         0.98292183452474    0.90357002967557   -1.90979094640351
C         0.25926742201362    1.14602864027141   -0.58217473891577
C         1.86675256803774   -0.33617237902959   -1.76781374554439
O         1.85726268804464    1.95663300148268   -2.24284386748949
O         1.11479468858209    3.10964223768654   -2.60229500678957
O         2.79879956809013   -0.41327102318108   -1.02543333693319
H         1.44738831994187    3.78169859432845   -1.99230327749239
H         0.99216815886400    1.27592951735841    0.21191726554745
H         0.25539121043437    0.75755283473429   -2.72120897105343
H         1.54813997963457   -1.18514659134842   -2.40149696722248
H        -0.38056344671996    0.30142818663112   -0.34289328186924
H        -0.35332299144782    2.04169695139062   -0.65946312583398
12
 energy: -21.560213382653 gnorm: 0.018931437281 xtb: 6.2.3 (830e466)
C         0.97932070793908    0.89908339124173   -1.92153952480575
C         0.25084929755123    1.13752469062369   -0.59385001316387
C         1.87116843201084   -0.33169167105563   -1.76423085476931
O         1.83856916080318    1.95856289743009   -2.25841927091258
O         1.07730612502217    3.12909406371397   -2.54142972034048
O         2.83856484827745   -0.37498955982314   -1.06114021620366
H         1.53128242143814    3.80027889670629   -1.99210889365457
H         0.98178829353673    1.27791192675745    0.20000344202303
H         0.25043311142415    0.73986432595829   -2.72999039923376
H         1.51828295874573   -1.21346657343761   -2.34090905873733
H        -0.38146769619633    0.28881333298225   -0.35310736182239
H        -0.36709766055240    2.02860427890263   -0.67907812837934
12
 energy: -21.560441691774 gnorm: 0.004458035739 xtb: 6.2.3 (830e466)
C         0.97994823226441    0.89963648365067   -1.92200052527093
C         0.25125204256902    1.13568742476663   -0.59189061168392
C         1.86969386097770   -0.33058738223920   -1.76206332627113
O         1.84446756979336    1.96110537451657   -2.25767901846841
O         1.08888211996331    3.13303391379187   -2.54767867441290
O         2.83540126460571   -0.37935434763104   -1.06325098865742
H         1.51652091008933    3.80477706076909   -1.99879165239444
H         0.98378323749821    1.27323723283159    0.20039714556747
H         0.25456576113986    0.74587107057950   -2.73269523824643
H         1.51184874813789   -1.21316434994945   -2.33254288344952
H        -0.37869973720229    0.28365433213538   -0.35521626778421
H        -0.36866400983652    2.02569318677841   -0.67238795892816
12
 energy: -21.560676137550 gnorm: 0.007575276501 xtb: 6.2.3 (830e466)
C         0.97872296664191    0.89817947112808   -1.92807270402969
C         0.24337179603098    1.12472143148440   -0.59696683795703
C         1.86987568011270   -0.32482354339710   -1.75704759914013
O         1.83812557087581    1.96837726438024   -2.25992925915868
O         1.07861365815246    3.14758473914945   -2.51033183969922
O         2.86929450104950   -0.35402217092997   -1.10337527205800
H         1.56507743287914    3.82740838359418   -2.01969258711207
H         0.97403645330383    1.26596562541700    0.19578426753389
H         0.25735498570004    0.74279611762778   -2.74068670150104
H         1.47677632701182   -1.23127795780948   -2.27234716100426
H        -0.37875949204271    0.26495219025823   -0.36646378960336
H        -0.38348987971549    2.00972844909720   -0.67667051627041
12
 energy: -21.560651849385 gnorm: 0.028572919304 xtb: 6.2.3 (830e466)
C         0.97935267244671    0.89649568930965   -1.93429071835777
C         0.23078361502608    1.10690773715944   -0.60540728228720
C         1.86940561082117   -0.31664812496770   -1.74991387554008
O         1.82903349459700    1.98174172598357   -2.25465101051968
O         1.05990950861236    3.16388297270343   -2.44747122742517
O         2.92353663478361   -0.32089173846288   -1.17685165630972
H         1.64122467584336    3.86198140663283   -2.06248209863029
H         0.95538183627575    1.25740040173020    0.19104844398036
H         0.26467597611968    0.73986576658916   -2.75140758172857
H         1.42245556236433   -1.25126130252540   -2.17549365327779
H        -0.37996589343663    0.23640658322734   -0.38258163367956
H        -0.40679369345343    1.98370888262036   -0.68629770622453
12
 energy: -21.560979593377 gnorm: 0.009325199888 xtb: 6.2.3 (830e466)
C         0.98162133242998    0.89804204676419   -1.92989643373509
C         0.23561088437427    1.11278231482610   -0.60265919119381
C         1.86769009987392   -0.32013837368739   -1.75196507428474
O         1.83761031706432    1.97933086241674   -2.24941321967358
O         1.07371328550079    3.15430857215454   -2.47200259400867
O         2.90577300052499   -0.33943123071874   -1.16159124605923
H         1.60193319521914    3.84891706739437   -2.05342103019283
H         0.96033926922187    1.26132811449736    0.19442569255379
H         0.26613255791676    0.74606960833617   -2.74744542481358
H         1.43709696665853   -1.23814040094917   -2.20199063955740
H        -0.37870222835380    0.24529346025220   -0.37737267954405
H        -0.39981868043079    1.99122795871366   -0.68246815949082
12
 energy: -21.561122406836 gnorm: 0.010589533174 xtb: 6.2.3 (830e466)
C         0.98653371923592    0.89869705911242   -1.93594807073641
C         0.23564336238765    1.11148416440641   -0.61170225596129
C         1.87123301301863   -0.31993022384785   -1.75178693301629
O         1.83815262053914    1.98265632152319   -2.25223382988305
O         1.06355883649335    3.16389586655582   -2.44486013761667
O         2.92520420075085   -0.33106024757880   -1.18877974255148
H         1.61108604997354    3.84797162961466   -2.04411920809077
H         0.95561730098472    1.26621199318051    0.18878323875866
H         0.27222064851680    0.74301758393800   -2.75445433140398
H         1.40890571942439   -1.25262954003055   -2.15784437247401
H        -0.37574750739912    0.24246548183268   -0.38607476643331
H        -0.40340796392587    1.98680991129353   -0.69677959059141
12
 energy: -21.561368338491 gnorm: 0.015210242452 xtb: 6.2.3 (830e466)
C         0.99388653477773    0.90086629681854   -1.94136547843156
C         0.22987824003917    1.10196873444044   -0.62355469260251
C         1.87515864335547   -0.31757185820076   -1.75003057600407
O         1.83470617262031    1.99320983891482   -2.24367629183422
O         1.04137284671554    3.17580081801905   -2.38700758961766
O         2.96288223006773   -0.32103863503770   -1.25745032883848
H         1.65384381401858    3.86320213874183   -2.06740048268252
H         0.94042900297978    1.26994039815815    0.18365467352392
H         0.28625759321601    0.74038732253335   -2.76627692854275
H         1.36094384105017   -1.26301328000903   -2.06791956516497
H        -0.37158222414512    0.22625732067505   -0.39871071490177
H        -0.41877669469538    1.96958090494627   -0.71606202490340
12
 energy: -21.561626611667 gnorm: 0.016740955050 xtb: 6.2.3 (830e466)
C         0.99556310821086    0.90360719100936   -1.93496898776679
C         0.22341107546599    1.09836734587426   -0.62191608241400
C         1.87476051906757   -0.31774892996065   -1.74989531139881
O         1.83729975524448    1.99544243977804   -2.22592259767978
O         1.04809586832107    3.17136668232761   -2.37992923380907
O         2.98572281993662   -0.32114343779448   -1.29819279849449
H         1.66172448094254    3.86820691270152   -2.09267907518276
H         0.92766891219102    1.26776523833145    0.19053144889190
H         0.29269545885199    0.74481493841095   -2.76537286882016
H         1.34619238932622   -1.25500937123691   -2.03979611917421
H        -0.37606772388845    0.22016014041448   -0.40188941779829
H        -0.42806666366989    1.96376085014437   -0.71576895635352
12
 energy: -21.561279670942 gnorm: 0.031550593165 xtb: 6.2.3 (830e466)
C         0.99995484878869    0.91327830791750   -1.92478341477913
C         0.21998266897023    1.09330398695554   -0.61567865383459
C         1.87557766888861   -0.31922731449879   -1.75467694082658
O         1.84133141187038    2.00080660525824   -2.19821576780315
O         1.05705834233443    3.16510595117294   -2.38990692901930
O         2.97734890788620   -0.34515411319888   -1.32758762820133
H         1.65609433076186    3.87595427632850   -2.13546049985969
H         0.92066421294918    1.26322656160414    0.19936201968504
H         0.30242799597147    0.75617466847904   -2.76213483783071
H         1.34798247318653   -1.22930784764746   -2.02059546399384
H        -0.37358575602925    0.20989288928630   -0.39999378300448
H        -0.43583710557830    1.95553602834295   -0.70612810053224
12
 energy: -21.562096492795 gnorm: 0.013737478961 xtb: 6.2.3 (830e466)
C         1.00854626000064    0.91794343243466   -1.92798072704275
C         0.21358202706379    1.08210776044852   -0.62334031931152
C         1.87841083423696   -0.31481251673298   -1.75254908283546
O         1.84430754642698    2.01347228605655   -2.18863250601383
O         1.05245003556124    3.17951449946566   -2.35296421380296
O         3.01974053427221   -0.33089153999563   -1.39655469682944
H         1.68234306598723    3.89229951003213   -2.15963481068785
H         0.90459275212419    1.25718631864766    0.19889819084900
H         0.31641942524558    0.76131519999042   -2.76977610556729
H         1.29232259497942   -1.24625590879020   -1.92864777121003
H        -0.37249773858598    0.19029381255181   -0.41893830758692
H        -0.45121733731224    1.93741714589143   -0.71567964996094
12
 energy: -21.562215960297 gnorm: 0.011929118433 xtb: 6.2.3 (830e466)
C         1.00876229271901    0.91553008972973   -1.92811947774481
C         0.21215224178177    1.08406829508948   -0.62435951915106
C         1.87799216307578   -0.31687017550476   -1.75065157251067
O         1.84649073847940    2.00913941091580   -2.19117007925157
O         1.04899549987415    3.18372249545820   -2.34414316304797
O         3.02768547710030   -0.33123413199827   -1.41508030348103
H         1.68483636138627    3.88704587913864   -2.15663654023638
H         0.89965153282748    1.25999068581560    0.20037381152612
H         0.31689400678609    0.75949227374053   -2.76964900684236
H         1.29309490153049   -1.24391897447702   -1.91393103532802
H        -0.37520906334755    0.19376472491988   -0.42236074361108
H        -0.45234615221317    1.93885942717221   -0.72007237032116
12
 energy: -21.562402769001 gnorm: 0.012076461305 xtb: 6.2.3 (830e466)
C         1.01398014834235    0.92012247731892   -1.92392439880541
C         0.20689902763844    1.07531004390499   -0.62318996421274
C         1.87914272536445   -0.31402134994700   -1.75097901972817
O         1.85095132005885    2.01706427375755   -2.17392896390615
O         1.04941731801130    3.19095448145403   -2.33212118589561
O         3.04245651078474   -0.33507241880150   -1.46813444730195
H         1.69776866346571    3.89917777900828   -2.19545969058812
H         0.88702367099181    1.24799702330810    0.20754170721679
H         0.32637770958807    0.77007475372414   -2.76984925145841
H         1.27299604283167   -1.23854339119835   -1.85444047643783
H        -0.37653694832553    0.17986183999561   -0.43429225643608
H        -0.46147618875184    1.92666448747524   -0.71702205244631
12
 energy: -21.562432574525 gnorm: 0.023019278565 xtb: 6.2.3 (830e466)
C         1.02115296945806    0.92815405646045   -1.91047741582392
C         0.20053415498468    1.06163914995120   -0.61208062580139
C         1.88136464926224   -0.30605520007462   -1.75543666791821
O         1.86215994355873    2.03067958343376   -2.14099162882530
O         1.06186939328315    3.19955646528201   -2.35146542681697
O         3.04371317909534   -0.34699748291966   -1.53221879064530
H         1.69528445331031    3.91315995286814   -2.26410686449617
H         0.87211762803027    1.21017972685263    0.22793509815808
H         0.33668217209835    0.79818772156331   -2.76073202642675
H         1.26453361522761   -1.22672511045947   -1.78598950965041
H        -0.38647118713440    0.16245300160480   -0.45459665283654
H        -0.46394097117427    1.91535813543746   -0.69563948891711
12
 energy: -21.562710561082 gnorm: 0.007924250650 xtb: 6.2.3 (830e466)
C         1.01901790187156    0.92740273888354   -1.89706588131511
C         0.19308473658180    1.06594662877142   -0.60593734107430
C         1.88325569353803   -0.30529741138302   -1.74013509205014
O         1.86032801838819    2.02862975372424   -2.12366817339091
O         1.05973114774421    3.18988358878729   -2.35979804160041
O         3.06030274799881   -0.34122653073920   -1.55213081381462
H         1.70301471293624    3.90265039604375   -2.27614785136575
H         0.86115583497069    1.21351263044512    0.23855545116708
H         0.34007343417247    0.79389395809966   -2.75246860206771
H         1.27576819893357   -1.23209541471112   -1.82403233578804
H        -0.40135349590190    0.17111116700042   -0.44795959629834
H        -0.46537893123363    1.92517849507789   -0.69501172240176
12
 energy: -21.562867318358 gnorm: 0.008244764179 xtb: 6.2.3 (830e466)
C         1.01923933312117    0.92765641495932   -1.89178083567210
C         0.18819495364938    1.06361661111884   -0.60569344523808
C         1.88874128875731   -0.30516604088118   -1.75847939757113
O         1.85968970447575    2.03032302697637   -2.10853572455997
O         1.05824402273913    3.18584006999927   -2.36133828651933
O         3.06995735581010   -0.33439987931613   -1.57248738005891
H         1.71002798578371    3.89692308311759   -2.28493406317791
H         0.85266988609873    1.20480599312789    0.24384941779749
H         0.34458372448388    0.79763096443467   -2.75188784458929
H         1.27614856119380   -1.22953919947613   -1.79948781536861
H        -0.41430800909464    0.17306822874249   -0.45179010047607
H        -0.46418880701827    1.92883072719700   -0.69323452456607
12
 energy: -21.562936208250 gnorm: 0.004101677968 xtb: 6.2.3 (830e466)
C         1.02059748930653    0.92900028628889   -1.88636871623380
C         0.18534019613041    1.06108847765188   -0.60330273486942
C         1.88946693506675   -0.30458321908552   -1.75813391521311
O         1.86073967783474    2.03314981150838   -2.09837418262968
O         1.05985907329335    3.18635995368281   -2.36539720169728
O         3.07079402536485   -0.33214706828361   -1.58556730377136
H         1.71269990499241    3.89681787257444   -2.29846295515026
H         0.84651455462213    1.19654642460466    0.24973642594442
H         0.34845773646310    0.80094819973409   -2.74916763902258
H         1.27931509461019   -1.22965346606176   -1.79557874076296
H        -0.42168964279019    0.17278079710106   -0.45495650123426
H        -0.46309504489423    1.92928193028468   -0.69022653535970
12
 energy: -21.563075448080 gnorm: 0.003199325507 xtb: 6.2.3 (830e466)
C         1.02433314939250    0.93268508850622   -1.86940485183115
C         0.17447792289687    1.05390016221437   -0.59670099181656
C         1.89467621072285   -0.30200614812731   -1.75849720635068
O         1.86435327115398    2.04110014254170   -2.06269137004214
O         1.06431563319887    3.18541038744532   -2.37446396735043
O         3.08132241986749   -0.32509463980154   -1.63708161169321
H         1.72153514104951    3.89419024586969   -2.34320134282740
H         0.82443542482573    1.16777533432260    0.26856482231947
H         0.36090760714112    0.81370797605201   -2.74166559446525
H         1.28702096812912   -1.22783079071697   -1.77111951280731
H        -0.44813069168549    0.17288696597878   -0.46982370245863
H        -0.46024705669251    1.93286527571514   -0.67971467067669
12
 energy: -21.563189538208 gnorm: 0.009692245162 xtb: 6.2.3 (830e466)
C         1.03048893709804    0.93960950679241   -1.84656596522160
C         0.15788166471266    1.04176255363643   -0.58852430985865
C         1.90365881638858   -0.29573281124262   -1.75963503301625
O         1.87006013459379    2.05430990903823   -2.01105300111091
O         1.07157005288469    3.18467457496770   -2.38176550937675
O         3.09896820337213   -0.31688044841189   -1.71988549752234
H         1.73536652106935    3.89037200363198   -2.41369722013900
H         0.79050298606141    1.12042668502538    0.29466722380012
H         0.38090615606759    0.83565455555942   -2.73256357850465
H         1.29296104233414   -1.22013997219695   -1.71685173494155
H        -0.48563379434271    0.17001168322288   -0.49837791981981
H        -0.45773072023964    1.93552175997703   -0.66154745428862
12
 energy: -21.563266984625 gnorm: 0.003742215112 xtb: 6.2.3 (830e466)
C         1.03253510123655    0.94260143983302   -1.84485158782784
C         0.15538911986542    1.03793703554392   -0.58862489159183
C         1.90573687672664   -0.29202808152458   -1.75908020799639
O         1.87077779397051    2.05938673768871   -2.00117644824546
O         1.07350662756330    3.18546540649165   -2.37941611919258
O         3.09893338713597   -0.31828700918285   -1.73755164848582
H         1.73666129925614    3.88825591394970   -2.43174796209384
H         0.78455787399815    1.10543504815665    0.29664672374823
H         0.38679995682782    0.84389324870481   -2.73347578602032
H         1.29094398626459   -1.21371599916055   -1.69251329368305
H        -0.48955750609479    0.16713817784216   -0.51038035980181
H        -0.45728451675028    1.93350808165737   -0.65362841880929
12
 energy: -21.563309107787 gnorm: 0.005017390024 xtb: 6.2.3 (830e466)
C         1.03594738986292    0.94747487974574   -1.83734401453070
C         0.14831814181586    1.03191793281283   -0.58731775782899
C         1.91008186298967   -0.28627319512404   -1.75742197547551
O         1.87136164807113    2.06775572934232   -1.98145495623259
O         1.07654236187974    3.18722376944867   -2.37435658421191
O         3.10396783680949   -0.31974004936779   -1.77850243439195
H         1.74339847839008    3.88279777334264   -2.46452394006281
H         0.76985466239080    1.08233592810483    0.30346434412244
H         0.39739530453307    0.85404882734803   -2.73074574943514
H         1.29235411913679   -1.20423114077449   -1.65494433488384
H        -0.50227904258513    0.16437443069041   -0.52812733300095
H        -0.45794276329440    1.93190511443083   -0.64452526406804
12
 energy: -21.563322181949 gnorm: 0.003527381506 xtb: 6.2.3 (830e466)
C         1.03658610252989    0.94930816014935   -1.83739719402120
C         0.14796614700310    1.03101588200776   -0.58791015145142
C         1.91050035237006   -0.28398335432620   -1.75632264079902
O         1.87012700282999    2.07053563138203   -1.97928179756188
O         1.07626662094363    3.18919459743503   -2.37120583911343
O         3.10142851346876   -0.32416828669589   -1.78325892034739
H         1.74361866802879    3.87917844796650   -2.46947846407610
H         0.76911826668967    1.07848630885158    0.30205927980718
H         0.39994478645326    0.85458363646835   -2.73112535666211
H         1.29373443730384   -1.19936691001557   -1.64726044146999
H        -0.50200093840352    0.16389923373464   -0.53197555566741
H        -0.45828995921746    1.93090665304242   -0.64264291863722
12
 energy: -21.563338417020 gnorm: 0.002249610944 xtb: 6.2.3 (830e466)
C         1.03842378388173    0.95170782652991   -1.83125105449219
C         0.14369562798521    1.02746095449434   -0.58597755756670
C         1.91280751337538   -0.28190796410203   -1.75730050197591
O         1.87086296968593    2.07515590670872   -1.96447841620571
O         1.07754930553293    3.19105507213241   -2.37015332991190
O         3.10406247256494   -0.32350439423508   -1.80612279719317
H         1.74836309571747    3.87682791588294   -2.49130116551562
H         0.75981412313532    1.06535965554497    0.30892370326915
H         0.40597307074487    0.85966601602332   -2.72901287017622
H         1.29692659670241   -1.19629296314591   -1.63092965317217
H        -0.51165616520045    0.16295090421792   -0.54032323102400
H        -0.45782239412573    1.93111106994850   -0.63787312603555
12
 energy: -21.563345497215 gnorm: 0.002488333956 xtb: 6.2.3 (830e466)
C         1.03880479246008    0.95210402297212   -1.82869159096745
C         0.14153017608190    1.02669356630508   -0.58579011775167
C         1.91381463721554   -0.28151466635498   -1.75783647405768
O         1.87063363497178    2.07605683631632   -1.96009861696229
O         1.07857782743728    3.19271607990766   -2.36787635184585
O         3.10531396776084   -0.32184607074288   -1.81820696039512
H         1.75180120523352    3.87403133139700   -2.49693688311485
H         0.75512900192251    1.06280353947210    0.31102117793746
H         0.40730075247591    0.86008906669733   -2.72763174478873
H         1.30040407733125   -1.19624839898171   -1.62332900861054
H        -0.51564276970354    0.16345866501169   -0.54244251127189
H        -0.45866730318705    1.93124602800030   -0.63798091817137
12
 energy: -21.563353233847 gnorm: 0.002479044562 xtb: 6.2.3 (830e466)
C         1.03825852512877    0.95195770353240   -1.82601695160260
C         0.13868724444051    1.02610652117034   -0.58591507320207
C         1.91485859823432   -0.28116885546586   -1.75891644327342
O         1.86971807196785    2.07571118102007   -1.95710457394583
O         1.07974077611524    3.19634054106780   -2.35836074940929
O         3.10538238361820   -0.31765493211118   -1.83169919867441
H         1.75923205861376    3.86914307824355   -2.50533966004589
H         0.74937000544659    1.06265458539193    0.31284394865699
H         0.40712791529714    0.85889748990047   -2.72601603814028
H         1.30725694362349   -1.19717035965346   -1.61604215905248
H        -0.51958617360430    0.16385353417021   -0.54339143376600
H        -0.46104634888157    1.93091951273373   -0.63984166754471
12
 energy: -21.563357520744 gnorm: 0.001295575757 xtb: 6.2.3 (830e466)
C         1.03774722655699    0.95167437545150   -1.82576269979486
C         0.13767881550447    1.02643467962034   -0.58625390781135
C         1.91514190052878   -0.28094733808651   -1.75911675993193
O         1.87051830776992    2.07445758831600   -1.95649614793071
O         1.08112192696769    3.19712992306571   -2.35559218841529
O         3.10508688146551   -0.31558658728102   -1.83819197902040
H         1.76042314557787    3.86673468108181   -2.50483780306103
H         0.74765246744836    1.06401777831791    0.31296074577481
H         0.40683010525981    0.85811926177088   -2.72618769382476
H         1.30932476941017   -1.19725982714944   -1.61130663157377
H        -0.52015612645975    0.16375560827362   -0.54373287265841
H        -0.46236942002982    1.93105985661919   -0.64128206175228
12
 energy: -21.563362004671 gnorm: 0.001026116683 xtb: 6.2.3 (830e466)
C         1.03803461517932    0.95253276567770   -1.82383397880494
C         0.13454503929951    1.02528149400268   -0.58639580785303
C         1.91672864892554   -0.27917625518340   -1.75869145926233
O         1.87179912743799    2.07503469042361   -1.95100185967720
O         1.08322829357703    3.19901852828901   -2.34632175227910
O         3.10541361059217   -0.31468818771205   -1.85534508252547
H         1.76410603404633    3.86313025911166   -2.51640563936421
H         0.74207513235376    1.06067584287307    0.31431052611378
H         0.40956570919528    0.86018929865403   -2.72590772468428
H         1.31165954325266   -1.19428278231179   -1.59676419873730
H        -0.52276671465938    0.16197559812060   -0.54849005492905
H        -0.46538903920021    1.92989874805489   -0.64095296799685
12
 energy: -21.563363491849 gnorm: 0.001693842849 xtb: 6.2.3 (830e466)
C         1.03797560751426    0.95167787625383   -1.82529268121963
C         0.13508106889268    1.02642043514185   -0.58735849399095