12
 energy: -21.490917761920 gnorm: 0.175672643765 xtb: 6.2.3 (830e466)
C         1.25294000000000    1.24960000000000   -2.50900000000000
C         0.58745000000000    0.48655000000000   -1.62332000000000
C         1.00680000000000   -0.89017000000000   -1.29158000000000
O         0.87135000000000    2.51577000000000   -2.80885000000000
O        -0.14829000000000    3.09045000000000   -2.25256000000000
O         1.98798000000000   -1.39989000000000   -1.81109000000000
H         0.24499000000000    3.78932000000000   -1.67043000000000
H         2.46303000000000    2.10059000000000    0.13790000000000
H         2.13103000000000    0.85463000000000   -3.01079000000000
H         0.43249000000000   -1.45958000000000   -0.56877000000000
H        -0.29110000000000    0.87696000000000   -1.11916000000000
H         1.85034000000000    2.12537000000000    0.49185000000000
12
 energy: -21.506658828173 gnorm: 0.069725199921 xtb: 6.2.3 (830e466)
C         1.24273125197095    1.23762358027108   -2.50380184064995
C         0.57918947119202    0.47666487140144   -1.61907169937537
C         1.01741032612954   -0.88131341594385   -1.30681485551280
O         0.91612100969084    2.50402169104521   -2.84553916533350
O        -0.14925327347292    3.08350675230076   -2.23054047585571
O         1.99126134890410   -1.40052417775701   -1.81134743026246
H         0.22880276488442    3.78706562538042   -1.66331841524701
H         2.49135517843663    2.10700345945903    0.13268728037796
H         2.11418783240549    0.86058879984254   -3.01671154512039
H         0.42042581406850   -1.43458775169971   -0.57374288967139
H        -0.29797700715180    0.86303523195692   -1.11790143750001
H         1.83475528294216    2.13651533374315    0.52030247415063
12
 energy: -21.510449700590 gnorm: 0.017720874041 xtb: 6.2.3 (830e466)
C         1.22489427152956    1.22897475858244   -2.50525638821373
C         0.56716805086391    0.46721186784838   -1.62232658679595
C         1.02631050151098   -0.87706335555037   -1.32299080055306
O         0.94761824711248    2.49194326026772   -2.86889058806721
O        -0.14589888318984    3.06561095753809   -2.20632223458602
O         1.99757958864745   -1.40467446892171   -1.81131359215360
H         0.23101925787435    3.78057899933131   -1.66939645282999
H         2.50368447809104    2.12150353186500    0.14677136472631
H         2.09601897001957    0.87173101082571   -3.03346618471032
H         0.40665106260969   -1.41400641724166   -0.58239183302178
H        -0.30861516611620    0.84571384376432   -1.11909610369018
H         1.84257962104692    2.16207601169074    0.55887939989555
12
 energy: -21.510893646564 gnorm: 0.006456342517 xtb: 6.2.3 (830e466)
C         1.21505859514527    1.22408118926230   -2.50859741891197
C         0.55933942151726    0.45796860985524   -1.62929575415933
C         1.02479873985140   -0.88540602983979   -1.33620893914857
O         0.95666004539285    2.48520283538226   -2.87069326388838
O        -0.14557835924165    3.05954289511041   -2.19616633835211
O         2.00017871681538   -1.41130257855233   -1.81521842537733
H         0.23522423540857    3.79167357584487   -1.68634283823551
H         2.51474718763985    2.14073499895770    0.17300957977076
H         2.08372580047792    0.87115554617496   -3.04899147347669
H         0.40127716546905   -1.41700732055360   -0.59140608064644
H        -0.31574598009690    0.82998773138888   -1.12129945209132
H         1.85932443162097    2.19296854696909    0.59541040451692
12
 energy: -21.511122472119 gnorm: 0.006923785389 xtb: 6.2.3 (830e466)
C         1.20499098163640    1.21732505290482   -2.51203794452815
C         0.55310566746822    0.44652849901032   -1.63460438995810
C         1.02596811355362   -0.89616374096286   -1.34416496940908
O         0.96136635820799    2.47871139456045   -2.86604646090798
O        -0.14592945358333    3.05797844190733   -2.18951662303934
O         1.99814883670615   -1.42134945952719   -1.82852873584690
H         0.23791360794912    3.81365813318533   -1.71417318996128
H         2.52765461097261    2.16672813457835    0.20634149193547
H         2.07134315458280    0.86512407246376   -3.06075359925920
H         0.39376527619192   -1.43368253577416   -0.61023501826626
H        -0.31977130482150    0.81235184092223   -1.11875993374027
H         1.88045415113603    2.23239016673166    0.63667937298117
12
 energy: -21.511310311173 gnorm: 0.010971537796 xtb: 6.2.3 (830e466)
C         1.19729894200397    1.20994654664898   -2.50988061700450
C         0.54491370590052    0.43065557730429   -1.64055815378925
C         1.01321909538788   -0.91952281205308   -1.36999797973866
O         0.96873349332290    2.47335640269296   -2.85202635443900
O        -0.14507991115313    3.05960701100402   -2.18385144540497
O         1.99555046985871   -1.43308701903852   -1.84702572117213
H         0.23635029771472    3.84557179071242   -1.75196318507226
H         2.54133563457038    2.19889715129529    0.24110640061094
H         2.05895523939516    0.85449704182848   -3.06709903450772
H         0.39405184519533   -1.45568751101508   -0.62513975413621
H        -0.32411798915202    0.79019878124807   -1.11379342330923
H         1.90779917695576    2.28516703937224    0.68442926796313
12
 energy: -21.511524342106 gnorm: 0.008776839907 xtb: 6.2.3 (830e466)
C         1.19288911868805    1.20249202148351   -2.50620750817508
C         0.54099684158586    0.41860075335223   -1.64046072255020
C         1.00933060111814   -0.93467588437752   -1.38126757641347
O         0.97495405253437    2.46993561387966   -2.83759184425977
O        -0.14376279579212    3.06238698044069   -2.18470066922381
O         1.98589418657203   -1.44553933896790   -1.87355452338433
H         0.22867626603789    3.86703832367183   -1.78341214909416
H         2.55073860400519    2.22580395044720    0.26399129562073
H         2.05179742002081    0.84231542700177   -3.06439802134955
H         0.38768364794401   -1.48315056728183   -0.64909904502490
H        -0.32433677276291    0.77485303118123   -1.10522285954534
H         1.93414883004910    2.33953968916930    0.72612362340008
12
 energy: -21.511739272032 gnorm: 0.007088468520 xtb: 6.2.3 (830e466)
C         1.19316769395451    1.19305826936911   -2.49412310808941
C         0.53812194025383    0.40356558764011   -1.63531922745482
C         0.99873660068364   -0.95708595736915   -1.40277464485550
O         0.98301620696041    2.46427025867458   -2.81652550639862
O        -0.14214716846962    3.05946319418334   -2.18327930887116
O         1.96592641036534   -1.46510062569508   -1.91847699607607
H         0.21255982739486    3.89316116432474   -1.82968550257630
H         2.56485122432702    2.26641000178213    0.29338213296680
H         2.04793418932717    0.82627951422302   -3.05249357597852
H         0.37800490689021   -1.52117153981982   -0.68286888313750
H        -0.32382310401974    0.75676373863032   -1.09289682479169
H         1.97266127233321    2.41998639405698    0.77926144526308
12
 energy: -21.511889025309 gnorm: 0.006686925651 xtb: 6.2.3 (830e466)
C         1.19613689899073    1.18284249266238   -2.48025982040778
C         0.53495421872694    0.38852422868702   -1.62974495515524
C         0.98384612796623   -0.98016775586711   -1.42812731632221
O         0.99206569904004    2.45790297631503   -2.79496086606593
O        -0.13980037162311    3.05016067453616   -2.17711195788812
O         1.93910235541610   -1.48773101450785   -1.96830806361788
H         0.19313887604142    3.91133659081105   -1.87387606598889
H         2.58828730299877    2.32680465856353    0.33281483708789
H         2.05005671799731    0.81255624572088   -3.03539901719791
H         0.36599592358411   -1.55676544717714   -0.71585522584909
H        -0.32327377606700    0.74093058170465   -1.08145077648439
H         2.00850002692923    2.49320576855164    0.81647922788994
12
 energy: -21.511938806916 gnorm: 0.013633777198 xtb: 6.2.3 (830e466)
C         1.20212411389025    1.17069437860080   -2.46299639557652
C         0.53064766154010    0.36897977109886   -1.62628909622302
C         0.96375933341792   -1.00912478038280   -1.46295857121588
O         1.00505059908203    2.44972244082477   -2.76776548049431
O        -0.13651038006886    3.03255673732733   -2.16155805270089
O         1.90607664393297   -1.51633972624705   -2.02703655870644
H         0.16808823274644    3.92812860872397   -1.92537550345333
H         2.60365108451464    2.37326860671279    0.35821300389238
H         2.05785450938289    0.80066093495280   -3.01436319888636
H         0.34980386288618   -1.59627884329128   -0.75529831579138
H        -0.32497569204902    0.71971209437446   -1.07374093749670
H         2.06344003072629    2.61761977730594    0.88336910665301
12
 energy: -21.512056368551 gnorm: 0.008381986601 xtb: 6.2.3 (830e466)
C         1.20646567865867    1.17041397418697   -2.46295570628475
C         0.52987892478910    0.36906433352232   -1.63012265289518
C         0.95901193651033   -1.00795868265463   -1.46475832862714
O         1.00808904510041    2.45024803601627   -2.76661288972902
O        -0.13426166207245    3.02586939126912   -2.15489255010236
O         1.89982133718100   -1.51857541622683   -2.02511188740068
H         0.16540225022787    3.90649811063454   -1.90939533402209
H         2.61108883841365    2.39376198936908    0.35889861179413
H         2.06544860933566    0.80426165205840   -3.01260203750863
H         0.34445073266142   -1.58919439350800   -0.75235165914942
H        -0.32784158734256    0.72168302803317   -1.08257020131856
H         2.06145589653819    2.61352797729995    0.86667463524428
12
 energy: -21.511901829535 gnorm: 0.021941424783 xtb: 6.2.3 (830e466)
C         1.21023545029833    1.16440088768120   -2.45638909683778
C         0.52902541026019    0.35728698945813   -1.63365034673760
C         0.95170852219499   -1.02179856443711   -1.47673915494144
O         1.00989277049294    2.44344208609059   -2.75181080306904
O        -0.13142947541607    3.00896889205755   -2.12035326056881
O         1.88659036934611   -1.53611985884550   -2.04085949844235
H         0.16206474402623    3.92937398731573   -1.94052738483297
H         2.63225711350512    2.45084195204843    0.38868444107862
H         2.06889698249464    0.80409484881781   -3.01380539461545
H         0.33005283651361   -1.60203408479195   -0.76834323354606
H        -0.33204512829911    0.70672489261028   -1.08931254391826
H         2.07176040458342    2.63441797199484    0.86730627643178
12
 energy: -21.512210921723 gnorm: 0.003366133083 xtb: 6.2.3 (830e466)
C         1.21064384149448    1.16426691408262   -2.45818904171077
C         0.52811313778969    0.35790980334027   -1.63564937178030
C         0.95065827274545   -1.02172809934353   -1.47698216628340
O         1.01313513330555    2.44592383285616   -2.75113121584156
O        -0.13037168104854    3.01251250751074   -2.12793858202087
O         1.88672538821609   -1.53638622587426   -2.04075896144413
H         0.15815425057153    3.91575069741382   -1.92666984426088
H         2.62353277030719    2.43119187383062    0.37291403452227
H         2.07205279922223    0.80430704523977   -3.00981327247373
H         0.33088890541028   -1.60126459073909   -0.76662583192164
H        -0.33180777819067    0.70950993253369   -1.09061600958444
H         2.07728496017798    2.65760630914950    0.87566026280011
12
 energy: -21.512281372026 gnorm: 0.004160232828 xtb: 6.2.3 (830e466)
C         1.21494060560057    1.15762414829691   -2.45233189959408
C         0.52537921541592    0.34653741938569   -1.63999254766096
C         0.94008760572044   -1.03692507844960   -1.49189681022287
O         1.02079136515585    2.44288165477992   -2.73410086591512
O        -0.12569982807737    3.00286863947685   -2.10985813118595
O         1.87164818217021   -1.55384488753102   -2.06149876876632
H         0.14696854284171    3.91746133224681   -1.94028099044817
H         2.63313369603641    2.46299235998958    0.38299511236919
H         2.07880872112059    0.80143084015983   -3.00238447358062
H         0.31861813280961   -1.61724405345249   -0.78331942132559
H        -0.33504237329936    0.69818625900850   -1.09576936534018
H         2.09937613450707    2.71763136608942    0.89263816167146
12
 energy: -21.512393064212 gnorm: 0.009252201291 xtb: 6.2.3 (830e466)
C         1.22567913797558    1.14332368112291   -2.44132150048430
C         0.52012135574747    0.32122524118846   -1.65393088750653
C         0.91837629744328   -1.06916020812203   -1.51984679136071
O         1.03657410850014    2.43627662073230   -2.69447051015071
O        -0.11237387595277    2.98084851790943   -2.05736671154839
O         1.84292542762706   -1.59279193058050   -2.09450898128740
H         0.12694291935639    3.92025599359505   -1.96104377057333
H         2.65320197024753    2.54076208299273    0.39828768308161
H         2.09512272535545    0.79893175791956   -2.99038836298309
H         0.28793013673099   -1.64729361396542   -0.81660342655561
H        -0.34388100600500    0.67316722251169   -1.11507009160608
H         2.13839080297587    2.83405463469627    0.91046335097553
12
 energy: -21.512480407449 gnorm: 0.004978064991 xtb: 6.2.3 (830e466)
C         1.23136582004744    1.13751951758800   -2.43850118557160
C         0.51818254060233    0.31063907144522   -1.66412349769783
C         0.91018925727103   -1.08172667905719   -1.52731790138473
O         1.04326080840286    2.43385562549337   -2.67572220273665
O        -0.10285847364509    2.97290670511113   -2.02666003047266
O         1.83576616223821   -1.60940092802164   -2.09583923597362
H         0.12297974142908    3.91441775288289   -1.95425369512634
H         2.65731468863968    2.57791767830004    0.39235667194018
H         2.10367050663753    0.80094564432417   -2.98784984420595
H         0.27131347880420   -1.65563221395394   -0.82803885409265
H        -0.34927418437791    0.66348095659856   -1.13069195081377
H         2.14709965395243    2.87467686928973    0.90084172613670
12
 energy: -21.512542376140 gnorm: 0.003030284993 xtb: 6.2.3 (830e466)
C         1.23672578477139    1.13014502335010   -2.43034654036322
C         0.51489712114521    0.29714783404487   -1.67135747146033
C         0.89968897653555   -1.09854911441931   -1.53947008007467
O         1.05293810704537    2.43003837132581   -2.65074496044761
O        -0.09048539232438    2.96670312616817   -1.99560123445169
O         1.82790123184006   -1.62699100408807   -2.10285258075287
H         0.11638948404608    3.91287286092361   -1.95415530267100
H         2.66222259601981    2.61954742770907    0.38624276178881
H         2.11104104193525    0.79980080692981   -2.97896380828252
H         0.25217257028993   -1.67310254962737   -0.84929145477063
H        -0.35415088514988    0.65027992364001   -1.14045815392395
H         2.15966936384749    2.93170729404360    0.89119882541091
12
 energy: -21.512607186766 gnorm: 0.003180436283 xtb: 6.2.3 (830e466)
C         1.24240746401385    1.12098781170688   -2.41617850265460
C         0.51049738000703    0.28082564074763   -1.67531868222815
C         0.88685476528823   -1.11854951071877   -1.55591229457141
O         1.06569601568199    2.42416898391379   -2.61890542726869
O        -0.07353784930886    2.95971172803185   -1.95721572422040
O         1.82014362082625   -1.64456161779619   -2.11326260224647
H         0.11030742815289    3.91180637149842   -1.95783971636199
H         2.66696714324726    2.66970844870778    0.37609306023190
H         2.11891047203424    0.79615213550155   -2.96340847383739
H         0.22731629624284   -1.69872769961141   -0.88231146200695
H        -0.36015372689176    0.63254608084125   -1.14623231705755
H         2.17360099070817    3.00553162717752    0.87469214222308
12
 energy: -21.512687037701 gnorm: 0.002928404277 xtb: 6.2.3 (830e466)
C         1.24770779511212    1.10966689756821   -2.39362402646004
C         0.50441168103162    0.26175341287005   -1.67369398945151
C         0.87191961031120   -1.14151339673877   -1.57684643314096
O         1.08358906274267    2.41588510969841   -2.57807970454296
O        -0.04870771286187    2.95458878121364   -1.90956014932266
O         1.81656646571227   -1.65905031007834   -2.12381576463213
H         0.10824593418414    3.90789822102356   -1.95975892754041
H         2.66830289173524    2.72990074145292    0.35519222761695
H         2.12604087185341    0.78746912594029   -2.93875674291708
H         0.19469150124612   -1.73480847068954   -0.93221079297325
H        -0.36774935700616    0.60947900968779   -1.14486617077330
H         2.18399125594182    3.09833087805215    0.84022047413895
12
 energy: -21.512678334781 gnorm: 0.010857918438 xtb: 6.2.3 (830e466)
C         1.25654981184204    1.09376661028602   -2.36243760912282
C         0.49682849772964    0.23580363587743   -1.67007964501432
C         0.85077950656578   -1.17288181231606   -1.60715066611767
O         1.10906180111480    2.40514365235729   -2.52216747680840
O        -0.01597180648411    2.94358574024668   -1.84040295311952
O         1.80732549420652   -1.68037625679732   -2.14368844122942
H         0.10407194057135    3.90469826566818   -1.96859165124396
H         2.67033821011019    2.81794315814759    0.32853406246653
H         2.13796366765579    0.77395140130376   -2.90502951781377
H         0.15146338890925   -1.78216229279255   -0.99939648951414
H        -0.37794947330456    0.57801593898678   -1.14213340130864
H         2.19854896108621    3.22211195903256    0.79674378882800
12
 energy: -21.512757687158 gnorm: 0.003003608055 xtb: 6.2.3 (830e466)
C         1.25328115858516    1.09657943415786   -2.36237732719493
C         0.49808055386974    0.24278063646364   -1.66192568744225
C         0.85627026569344   -1.16393804013837   -1.60216142486590
O         1.10738186287609    2.40596663005220   -2.53152779195206
O        -0.01767462592824    2.94995263530579   -1.85387350499721
O         1.81501346310008   -1.66749033040058   -2.13846733816800
H         0.11241459315328    3.90135722238243   -1.96235387792518
H         2.66270430989316    2.80119377511943    0.32281323872759
H         2.13235660542190    0.76941159950520   -2.90542282705107
H         0.15959105972621   -1.77611638917166   -0.99691087641107
H        -0.37540084426489    0.58349494426622   -1.13108861206001
H         2.18499159787689    3.19640788245818    0.78749602934194
12
 energy: -21.512771939195 gnorm: 0.001002015626 xtb: 6.2.3 (830e466)
C         1.25555640327824    1.09737690962994   -2.35932627510367
C         0.50022447198404    0.24351330289571   -1.65825103137055
C         0.85699610301925   -1.16341923782831   -1.60117547181930
O         1.10909183703766    2.40699502343661   -2.52865634447121
O        -0.01842906122391    2.95035029522752   -1.85299601122945
O         1.81286698434556   -1.66729407000356   -2.14162601535001
H         0.11050094118696    3.90236221653219   -1.96574410230959
H         2.66177608039251    2.79702667938967    0.31996413305669
H         2.13364999762011    0.76900887944719   -2.90369398804794
H         0.15867804039016   -1.77604166801697   -0.99956855455183
H        -0.37333935371783    0.58390083799899   -1.12729591762617
H         2.18143755569007    3.19582083129137    0.78256957882484
12
 energy: -21.512777462775 gnorm: 0.003417664467 xtb: 6.2.3 (830e466)
C         1.26191281356611    1.10009850895412   -2.35002000775920
C         0.50494534835524    0.24582330354702   -1.64994229225548
C         0.85424698272355   -1.16321834319331   -1.60579033949104
O         1.11543150908884    2.41041077470600   -2.51812553479225
O        -0.01910263750341    2.95181338136034   -1.84921361521742
O         1.80757289238477   -1.66652205218923   -2.15053142515428
H         0.10466468924988    3.90463734938976   -1.97558611076655
H         2.65679260880627    2.78377601030579    0.31125554850811
H         2.13857034838156    0.76893346494971   -2.89568667714020
H         0.16054957733641   -1.77445862265767   -0.99987157153187
H        -0.36749122136847    0.58582872678007   -1.11688959487819
H         2.17091708898206    3.19247749804770    0.76460162047993
12
 energy: -21.512790002939 gnorm: 0.002511802447 xtb: 6.2.3 (830e466)
C         1.26300746574709    1.10099898683265   -2.34790040547343
C         0.50656185981292    0.24697101541963   -1.64723351312095
C         0.85598166509888   -1.16215136732673   -1.60350144615442
O         1.11726790632389    2.41142403026372   -2.51503571237010
O        -0.01791479040658    2.95256758473294   -1.84698444863235
O         1.80601002366836   -1.66626248116208   -2.15371216893579
H         0.10285965987159    3.90492923388700   -1.97873569103517
H         2.65342937731039    2.77940251465075    0.30740119081848
H         2.14006867403933    0.76950252288435   -2.89252931061120
H         0.15923638359784   -1.77474204487091   -1.00225234018279
H        -0.36491477491611    0.58714468553329   -1.11278361412848
H         2.16741654985519    3.18981531915571    0.75746745982770
12
 energy: -21.512800989974 gnorm: 0.000942190597 xtb: 6.2.3 (830e466)
C         1.26438713662751    1.10244683138844   -2.34489147121807
C         0.50780472283639    0.24833244559310   -1.64514626312913
C         0.85696850530257   -1.16106579392555   -1.60231880338407
O         1.11997987683258    2.41281741751421   -2.51073017274012
O        -0.01432647825055    2.95405980753096   -1.84259330402324
O         1.80516172918356   -1.66549248749944   -2.15583438858902
H         0.10089671136672    3.90516247507188   -1.98185974506246
H         2.64802875406413    2.77360068372818    0.30124569163490
H         2.14126725541168    0.77100209479224   -2.88940720495557
H         0.15927650703933   -1.77476118800124   -1.00216866822683
H        -0.36298985125080    0.58859134861788   -1.10973453346508
H         2.16255513083968    3.18490636518962    0.74763886316014
12
 energy: -21.512814085566 gnorm: 0.001302277768 xtb: 6.2.3 (830e466)
C         1.26853305850240    1.10613892781756   -2.33691008464252
C         0.51097919797263    0.25137044947074   -1.63954184059135
C         0.85798951325286   -1.15887894949053   -1.60154651004254
O         1.12704126825361    2.41681691648227   -2.49927662300343
O        -0.00609758958838    2.95822231132636   -1.83088090797677
O         1.80274468094155   -1.66353810223954   -2.16106503835863
H         0.09521091582151    3.90720410574760   -1.99071801025031
H         2.63668697222832    2.75518343833456    0.28734957589305
H         2.14507174858013    0.77463843098224   -2.88158290706194
H         0.16111860376047   -1.77375030117997   -1.00048961723664
H        -0.35827856077234    0.59158935051693   -1.10167665932372
H         2.14801019105001    3.17460342223204    0.72053862259604
12
 energy: -21.512825419432 gnorm: 0.001120296385 xtb: 6.2.3 (830e466)
C         1.27400375038678    1.11083415032441   -2.32724842725410
C         0.51490893422337    0.25489228627976   -1.63270614074232
C         0.85887814980069   -1.15616991099522   -1.60112299958641
O         1.13517251923601    2.42219229571038   -2.48580241163196
O         0.00398714692377    2.96418501871255   -1.81493022421631
O         1.80065378071668   -1.66080483939190   -2.16538231269054
H         0.08809083470459    3.91070791988239   -2.00152350722504
H         2.62402513849332    2.72798573488967    0.27232540411949
H         2.14959021816456    0.77932331767449   -2.87366992511491
H         0.16469172013194   -1.77117235493510   -0.99718243292801
H        -0.35327247188772    0.59470058572352   -1.09283304859908
H         2.12828027910876    3.16292579612526    0.68427602587002
12
 energy: -21.512828581359 gnorm: 0.000653811913 xtb: 6.2.3 (830e466)
C         1.27509203311414    1.11259982662762   -2.32568255556173
C         0.51556360913064    0.25618281054789   -1.63183816776806
C         0.85955402856523   -1.15462948204849   -1.60011188022807
O         1.13694389159429    2.42436427950463   -2.48303545585669
O         0.00775084163391    2.96729438365218   -1.80915358813921
O         1.80213014676313   -1.65916541016372   -2.16260183344137
H         0.08750239048840    3.91194840716352   -2.00180719055983
H         2.61899530990437    2.71671302455892    0.26631500401117
H         2.15077088525875    0.78191139355745   -2.87277074755149
H         0.16713273418666   -1.76871245209242   -0.99374794217712
H        -0.35261878715515    0.59590099197157   -1.09185128281263
H         2.12019291651837    3.15519222672104    0.67048564008573
