12
 energy: -21.488949842077 gnorm: 0.175313548492 xtb: 6.2.3 (830e466)
C         0.44874000000000    1.64461000000000   -1.88389000000000
C         0.91974000000000    1.22576000000000   -0.69828000000000
C         1.13044000000000   -0.20619000000000   -0.42554000000000
O         0.24104000000000    2.95604000000000   -2.16073000000000
O         0.46562000000000    3.89723000000000   -1.29877000000000
O         1.56628000000000   -0.56309000000000    0.65658000000000
H         1.30037000000000    4.33071000000000   -1.61019000000000
H         2.30817000000000   -0.76170000000000   -3.30420000000000
H         0.22070000000000    0.91887000000000   -2.65906000000000
H         0.89928000000000   -0.95407000000000   -1.17723000000000
H         1.73482000000000   -1.09010000000000   -3.55872000000000
H         1.15379000000000    1.94154000000000    0.08422000000000
12
 energy: -21.505296174527 gnorm: 0.069060271174 xtb: 6.2.3 (830e466)
C         0.44840587807683    1.63989489923371   -1.87751751302052
C         0.92360555394966    1.21922031588721   -0.69487357978822
C         1.13451589251577   -0.19239054503703   -0.39512710209410
O         0.21938277808755    2.93158026420591   -2.21451261035916
O         0.48307626431345    3.89075286299240   -1.28855200444205
O         1.57415912564522   -0.57223091049420    0.66916641603261
H         1.30076151709256    4.33625057215771   -1.59345357640723
H         2.33270218249280   -0.75093771123101   -3.30187230636922
H         0.20798695121574    0.94210567376068   -2.66366268171943
H         0.88733140106731   -0.92050894884397   -1.17608892108721
H         1.72313973554491   -1.11061103769843   -3.58822324845552
H         1.15392271999820    1.92648456506702    0.08890712771006
12
 energy: -21.509057467911 gnorm: 0.016959743817 xtb: 6.2.3 (830e466)
C         0.44372316096768    1.63874884385235   -1.86092343772575
C         0.92236912069247    1.22114565159131   -0.68413084378585
C         1.14252999304366   -0.17759166505450   -0.37198920377953
O         0.20836367473353    2.90889589802650   -2.24525184543948
O         0.50180851861753    3.87351843321149   -1.27535513934814
O         1.57713050159504   -0.57748658479220    0.68073176053509
H         1.29627128265663    4.33053565006847   -1.59502683579164
H         2.34146561473558   -0.74957527910743   -3.30592585557412
H         0.19091827234651    0.96605468077537   -2.66585528120754
H         0.86318017730316   -0.88676592193630   -1.17361226938697
H         1.74631903839257   -1.13545290913754   -3.63659357791638
H         1.15491064491564    1.92758320250249    0.09812252942032
12
 energy: -21.509459120887 gnorm: 0.009578970478 xtb: 6.2.3 (830e466)
C         0.44175807059067    1.63828021147688   -1.84583458980385
C         0.91833483267745    1.22517196472061   -0.66913126312826
C         1.11654225751228   -0.17493776300460   -0.34922795937960
O         0.21312370312052    2.89866206432867   -2.24938329967736
O         0.51012179803098    3.87138521897510   -1.27095394792136
O         1.58187031075265   -0.58221145921578    0.68651009332229
H         1.28856241965553    4.34065168203108   -1.60896049826690
H         2.35382355427948   -0.75910920771806   -3.32807638016339
H         0.17552072269125    0.97181969553483   -2.65541473114333
H         0.85129646913967   -0.87221821090547   -1.16939263554948
H         1.77539205899152   -1.15418809085055   -3.68256012171709
H         1.16264380255802    1.93630389462733    0.10661533342835
12
 energy: -21.509755012181 gnorm: 0.011467686912 xtb: 6.2.3 (830e466)
C         0.44077536131535    1.63755550350724   -1.82639901096253
C         0.91677843203639    1.22972630592530   -0.64940023684631
C         1.12511387870208   -0.17149794186217   -0.33851837302361
O         0.22301204335927    2.88883109642669   -2.24850297229089
O         0.51742434114626    3.87395598891879   -1.26825061019745
O         1.57213487590332   -0.59082118877607    0.69832960851574
H         1.27389536445299    4.36228716241774   -1.63189211219945
H         2.37146586137180   -0.77547982941655   -3.36507423392369
H         0.16328778082315    0.97417354753236   -2.63862417030812
H         0.81336643959156   -0.86047673392405   -1.15336793389950
H         1.80863483386810   -1.17412794243222   -3.73683536600619
H         1.16310078742974    1.94548403168295    0.12272541114204
12
 energy: -21.509986959609 gnorm: 0.007141846837 xtb: 6.2.3 (830e466)
C         0.44118013803417    1.63738233683769   -1.81589455479359
C         0.91463757265500    1.23101839142183   -0.63651536037909
C         1.11301262892110   -0.17362651959704   -0.32876685009715
O         0.23335199213908    2.88813745039062   -2.24329682706744
O         0.51928480041337    3.88171543512676   -1.27179989919130
O         1.56793465012871   -0.59700782884897    0.70349365834694
H         1.26224747535894    4.38235365583199   -1.64881141441510
H         2.38144193523870   -0.78640295194854   -3.39136636148759
H         0.16157508088714    0.96921915609789   -2.62315703055884
H         0.80116637409588   -0.85869455329088   -1.14466638406947
H         1.82583645789046   -1.18261060859069   -3.76691758441026
H         1.16732089423745    1.94812603656937    0.13188860812293
12
 energy: -21.510230191882 gnorm: 0.009912433965 xtb: 6.2.3 (830e466)
C         0.44607301882062    1.63760824772571   -1.79319796028796
C         0.91307569017769    1.23345051268175   -0.60873824725675
C         1.09146109788870   -0.17680135689808   -0.30712284272920
O         0.25641270662332    2.88636702210428   -2.23319227193274
O         0.52613399851326    3.89608250823491   -1.27855680385126
O         1.55694227956170   -0.61050502014193    0.71689532309109
H         1.23120882115919    4.42956112455476   -1.68858279490055
H         2.38203872184225   -0.79911563662592   -3.42356990764352
H         0.16117892722275    0.95867515830319   -2.58844141842318
H         0.77200744762052   -0.85348408906250   -1.12355323813759
H         1.87562028370624   -1.21332950900311   -3.86166444934350
H         1.17683700686375    1.95110103812697    0.15391461141530
12
 energy: -21.510334932132 gnorm: 0.009473134753 xtb: 6.2.3 (830e466)
C         0.45231419616848    1.63832703157916   -1.77773875663504
C         0.91198309227713    1.23551264935983   -0.58906825145448
C         1.07839269152323   -0.17658018436531   -0.28963430463541
O         0.27331599899009    2.88415869451987   -2.22961682404533
O         0.53097750735049    3.90315132393639   -1.28288824874119
O         1.54478497084566   -0.61814815557854    0.73048510031072
H         1.20454088509194    4.46121830785918   -1.71281433533516
H         2.40257716829934   -0.82190274649078   -3.48335961391115
H         0.16633679143295    0.95235420504684   -2.56561925392825
H         0.74940220204706   -0.84772782825658   -1.10598725670656
H         1.89363484982872   -1.22257614353005   -3.90143970089464
H         1.18072964614490    1.95182284592004    0.17187144597666
12
 energy: -21.510453750058 gnorm: 0.004868421011 xtb: 6.2.3 (830e466)
C         0.45537686391431    1.63906759119689   -1.76994589277580
C         0.91177958908900    1.23774897356278   -0.57972198026058
C         1.07386016059194   -0.17387044642898   -0.27849651903642
O         0.28064869141852    2.88213888078579   -2.22962338225095
O         0.53465585176177    3.90422000784824   -1.28407015566119
O         1.53877190349094   -0.61774187715623    0.74074199084494
H         1.19082690655716    4.47173085844201   -1.72129352882359
H         2.39843046997890   -0.82808250407178   -3.49728297559254
H         0.17044857990836    0.95053359257339   -2.55606005406505
H         0.73772257889173   -0.84389074655847   -1.09378652269244
H         1.91311839556985   -1.23572538842862   -3.94713787484430
H         1.18335000882748    1.95348105823503    0.18086689515813
12
 energy: -21.510506745876 gnorm: 0.014498478516 xtb: 6.2.3 (830e466)
C         0.46743633824625    1.64062306333764   -1.75198368276463
C         0.91459419348714    1.24177657124924   -0.55819505498352
C         1.06051564081402   -0.16901301390357   -0.24984197359022
O         0.29699591100875    2.87725742701286   -2.22259118628938
O         0.55346451573199    3.90147511764567   -1.27700346380572
O         1.51773292276205   -0.61740095970043    0.76980577412691
H         1.14729630277029    4.51286249557763   -1.75692764566679
H         2.39426871168291   -0.84869602560543   -3.54210517807103
H         0.18107427375647    0.94728606008983   -2.53465081916035
H         0.70877699118670   -0.83745056861406   -1.06225969705888
H         1.95868486737785   -1.26459327812515   -4.05389257831738
H         1.18814933117551    1.95548311103584    0.20383550558132
12
 energy: -21.510640388893 gnorm: 0.005453122933 xtb: 6.2.3 (830e466)
C         0.46834923434615    1.64104231477741   -1.75500425381269
C         0.91362173063259    1.24340037759220   -0.56059223380471
C         1.06157052129739   -0.16480395203233   -0.24528193600336
O         0.29618645665449    2.87788716686694   -2.22539800532011
O         0.55540271300815    3.89734365310649   -1.27635059085822
O         1.51374319543672   -0.60718751046342    0.77906439652973
H         1.14608308797799    4.50168514615355   -1.74554892103057
H         2.39428627251150   -0.85126891969154   -3.55923550044965
H         0.18775500986897    0.94732401877832   -2.53948279582314
H         0.71430699908247   -0.83888682565878   -1.05515458404072
H         1.95321867827758   -1.26377915646206   -4.05599819617725
H         1.18446610090591    1.95685368703328    0.20317262079100
12
 energy: -21.510732253796 gnorm: 0.005095816712 xtb: 6.2.3 (830e466)
C         0.47286485580979    1.64002506086590   -1.74832398407320
C         0.91244017533161    1.24388662452902   -0.55129100276366
C         1.05418833959603   -0.16381554972183   -0.23115631003501
O         0.30479109605500    2.87672985098199   -2.22070696035172
O         0.56897784999778    3.89517128422024   -1.27177409223227
O         1.50040734637375   -0.60442753303252    0.79701156740554
H         1.12426815228324    4.52308244084868   -1.76168899131570
H         2.39903771643516   -0.86178976296071   -3.59653139864565
H         0.19545635178253    0.94448160842871   -2.53257107576541
H         0.70910808908272   -0.84000472541191   -1.04019672575057
H         1.96401630112000   -1.27183231101083   -4.09049475357715
H         1.18343372613230    1.95810301226333    0.21191372710515
12
 energy: -21.510813116367 gnorm: 0.014255488063 xtb: 6.2.3 (830e466)
C         0.48444340469804    1.63686076853281   -1.73432340809242
C         0.90954104138667    1.24589837680530   -0.53002561610803
C         1.03826444486611   -0.15984554341113   -0.19541880115670
O         0.32658803930541    2.87389626096998   -2.21114465990682
O         0.60177212548320    3.88995896850387   -1.26316041170069
O         1.46832448756985   -0.59199550898607    0.84452152676383
H         1.07417112753114    4.56642465065175   -1.79253313231242
H         2.39430634798203   -0.88401153666853   -3.66966835805034
H         0.21265379622721    0.93629231405608   -2.51674509728502
H         0.70327939430123   -0.84418979519962   -1.00143300409792
H         1.99758822771672   -1.29304041754662   -4.19709475706054
H         1.17805756293225    1.96336146229229    0.23121571900752
12
 energy: -21.510925543601 gnorm: 0.005635931250 xtb: 6.2.3 (830e466)
C         0.48404966961954    1.63415247358987   -1.73867593156637
C         0.90784806663295    1.24505761399006   -0.53315394125657
C         1.04073325456182   -0.15984130278935   -0.19520608954941
O         0.32626796976873    2.87380493969748   -2.21159339909119
O         0.60488349979785    3.88834915500964   -1.26336493034058
O         1.46620256820322   -0.58490424542631    0.85024192202633
H         1.07856390980236    4.55905347329596   -1.78402507228828
H         2.38593497005201   -0.88090096510755   -3.66459565654400
H         0.21259783273917    0.93511220951206   -2.52230495773310
H         0.71802908039057   -0.84896728357625   -1.00169499905884
H         1.99204813777497   -1.28732681924072   -4.19772956959608
H         1.17183104065664    1.96602075104519    0.22629262499856
12
 energy: -21.511030004348 gnorm: 0.005158855583 xtb: 6.2.3 (830e466)
C         0.49214866852651    1.62749988776202   -1.73549823467831
C         0.90384384977564    1.24462365089677   -0.52366254259210
C         1.03685334523722   -0.15676059957729   -0.17160921649433
O         0.34047368753745    2.86913362371344   -2.20770479935421
O         0.63110823613402    3.88096694458261   -1.25797328596498
O         1.44112412782743   -0.56703727706960    0.88920943214827
H         1.05185996050871    4.57398744159110   -1.79143803192698
H         2.37019142905967   -0.89061683900745   -3.70391022421853
H         0.22355843113763    0.93084279287875   -2.52176143700585
H         0.73739036728233   -0.85668407613095   -0.97870291400477
H         2.00260117538313   -1.29000441598713   -4.26425986026772
H         1.15783672159006    1.97365886634783    0.23150111436008
12
 energy: -21.511103551576 gnorm: 0.007155861749 xtb: 6.2.3 (830e466)
C         0.50368368135326    1.61972388481897   -1.72891138480004
C         0.89990374491891    1.24361575165534   -0.50965313853514
C         1.03185190283986   -0.15365129686055   -0.14315838545522
O         0.36081683410251    2.86135213374489   -2.20474714576535
O         0.65993744987460    3.87332344046495   -1.25477597005337
O         1.41049980408797   -0.55124305279099    0.93188329754148
H         1.01645037310150    4.59378428111471   -1.80350888185436
H         2.35537403163897   -0.90078779895237   -3.75728638477075
H         0.23894670767349    0.92646469184491   -2.51847904412950
H         0.75659839418350   -0.86241668809586   -0.95254295308915
H         2.01182900558468   -1.29214820010490   -4.33482632628783
H         1.14309807064047    1.98159285316101    0.24019631719990
12
 energy: -21.511162514699 gnorm: 0.003282281149 xtb: 6.2.3 (830e466)
C         0.51177778071054    1.61490058793857   -1.72448320948485
C         0.89925997210999    1.24277414819567   -0.50137655885021
C         1.03068054407681   -0.15221088574489   -0.12851437859613
O         0.37415024318719    2.85449207395773   -2.20592897865784
O         0.67154516176580    3.87013907945405   -1.25822135776802
O         1.39415731144664   -0.54647718557435    0.95109336751575
H         0.99728097587626    4.59911624928549   -1.80853663944273
H         2.34340769944184   -0.90317917209863   -3.77951586406950
H         0.25022401175091    0.92373569421162   -2.51600096262703
H         0.76756644467176   -0.86288484046279   -0.94037549135724
H         2.01285992353435   -1.28664941625177   -4.36896349828044
H         1.13607993142762    1.98585366708942    0.24501357161899
12
 energy: -21.511195627852 gnorm: 0.009692629740 xtb: 6.2.3 (830e466)
C         0.53209779212962    1.60712350440129   -1.71267324092652
C         0.90166395858258    1.24323209853324   -0.48128404905151
C         1.02220646825889   -0.14888535528573   -0.09408717029845
O         0.40403571212758    2.84274745716895   -2.20517268853420
O         0.69747827353701    3.86462400822670   -1.26428095844909
O         1.35634839281071   -0.53916436577039    0.99589668950377
H         0.94540304346543    4.62060982787482   -1.82854932155599
H         2.31981273625391   -0.91300428046690   -3.83417141101471
H         0.27819568562199    0.91271734547290   -2.50348716922061
H         0.77767066038844   -0.86355499119499   -0.90800230603460
H         2.02585724840232   -1.28035131372012   -4.46071735825818
H         1.12822002842115    1.99351606476034    0.26071898384096
12
 energy: -21.511289982555 gnorm: 0.003500131548 xtb: 6.2.3 (830e466)
C         0.54181646680160    1.60557465934355   -1.71180737842033
C         0.90878159124759    1.24336306219563   -0.47969113765098
C         1.02148574417653   -0.14968547588179   -0.09169952190424
O         0.41093666473660    2.83852712579702   -2.20699427296191
O         0.69824908068164    3.86359863548017   -1.27066136874772
O         1.34627100099322   -0.54551332403348    0.99893644337401
H         0.93130878940358    4.61723531722525   -1.83436265714648
H         2.31132134994037   -0.90345765755085   -3.83820229538395
H         0.29084392087274    0.90633767157213   -2.50026253195292
H         0.77802306911795   -0.86155857104868   -0.90702489952823
H         2.01807928191377   -1.26790447802668   -4.45781704896705
H         1.13187304011401    1.99309303492785    0.26377666929068
12
 energy: -21.511355835586 gnorm: 0.003997865165 xtb: 6.2.3 (830e466)
C         0.55990344085750    1.59893810879300   -1.70465703804208
C         0.91487793461214    1.24333470978531   -0.46708551129411
C         1.01576696332700   -0.14896566046612   -0.07349498638026
O         0.43279220369050    2.82754884249142   -2.21025541807532
O         0.71403076262992    3.85908291257251   -1.27986041428495
O         1.31945470048036   -0.54616536287333    1.02305947484324
H         0.89146003036348    4.62277074441269   -1.85125583719491
H         2.28922865094430   -0.89831701285159   -3.86291654413841
H         0.31915973370225    0.89245579875528   -2.49099891270982
H         0.78323946920329   -0.86067729672332   -0.89227512015006
H         2.01598216675794   -1.24628946355678   -4.50147738621133
H         1.13309394343087    1.99589367966105    0.27540769363898
12
 energy: -21.511422894145 gnorm: 0.005557683128 xtb: 6.2.3 (830e466)
C         0.58964729854929    1.58707506635361   -1.69634110674397
C         0.92516157693380    1.24167313262207   -0.44994923928973
C         1.00772855428384   -0.15048850446983   -0.05353195143378
O         0.46840273987972    2.80828727004995   -2.22076853987737
O         0.73524984846791    3.85250905993100   -1.29823350817302
O         1.28641986756199   -0.54960173832964    1.04865958443721
H         0.83132410380050    4.62484923198748   -1.87712772174214
H         2.25014593510130   -0.88317383979652   -3.87555364205753
H         0.36500820944215    0.86652787172849   -2.47660685851128
H         0.78730438477864   -0.86065719918989   -0.87764321260484
H         2.00359644659997   -1.19318934694473   -4.55151077110782
H         1.13900103460035    1.99579899605810    0.29279696710536
12
 energy: -21.511469052838 gnorm: 0.001677304349 xtb: 6.2.3 (830e466)
C         0.59294823049546    1.58613750951310   -1.69961775639960
C         0.92604902831461    1.24026611617535   -0.45294915580541
C         1.00962514923293   -0.15184915809632   -0.05549164630941
O         0.47276988504263    2.80782263288470   -2.22250915637627
O         0.74119417523058    3.85183276875710   -1.29868631344878
O         1.28844900288393   -0.54800712368938    1.04812013704806
H         0.82347000300764    4.62605702501546   -1.87489023436772
H         2.25038741699071   -0.88228521513131   -3.87249233841486
H         0.36421670171536    0.86720446175886   -2.47871796389929
H         0.78301052858789   -0.86367615995018   -0.87666138061049
H         1.99963237502420   -1.18761520610397   -4.54260140270684
H         1.13723750347338    1.99372234886660    0.29068721129153
12
 energy: -21.511497366439 gnorm: 0.004444992876 xtb: 6.2.3 (830e466)
C         0.59683358374679    1.58379843545819   -1.70714743020758
C         0.92515934858515    1.23627263264136   -0.45990394771922
C         1.00216962577338   -0.15538321735734   -0.05769876704855
O         0.48473554742096    2.80688087602240   -2.22748118333952
O         0.75693579473292    3.84897792214872   -1.29983647127902
O         1.29640015400897   -0.54489001650288    1.04488198400504
H         0.80245505181142    4.62948342143450   -1.86971885347068
H         2.25171521819019   -0.87718376139833   -3.85839731368951
H         0.36580244166238    0.86839027830486   -2.48666708511421
H         0.77972752625193   -0.87118529026478   -0.87641710330466
H         1.98678892242151   -1.17363877917484   -4.52089710409654
H         1.14026678539335    1.98808749868790    0.28347327526487
12
 energy: -21.511543572165 gnorm: 0.004112997987 xtb: 6.2.3 (830e466)
C         0.60094289539701    1.58166886078956   -1.71402786898719
C         0.92574669182603    1.23249476049485   -0.46633690767730
C         1.00588143755769   -0.15878127621806   -0.06270792488501
O         0.49580840249080    2.80613626142271   -2.23218153692933
O         0.77170688493408    3.84559376652608   -1.30117212110851
O         1.30150597971100   -0.54333955967467    1.04135916826024
H         0.78050286614939    4.63288015302964   -1.86530871994214
H         2.25624505802030   -0.87204419730144   -3.84234985392496
H         0.37076400040175    0.86887909743153   -2.49545613398609
H         0.76737989984210   -0.87721853856349   -0.87447804349461
H         1.97092941912929   -1.15987744752612   -4.50083838805754
H         1.14157646453905    1.98321811958890    0.27768833073232
12
 energy: -21.511575923289 gnorm: 0.004342058438 xtb: 6.2.3 (830e466)
C         0.60756024782971    1.57921456530836   -1.72224630465607
C         0.92836861540538    1.22800046102783   -0.47397513571218
C         1.00609390556689   -0.16271243651538   -0.06834169740692
O         0.50970692402920    2.80532859349522   -2.23848332264229
O         0.78838896620219    3.84085592549468   -1.30411204095642
O         1.30575998935922   -0.54462643605776    1.03531636337374
H         0.75174075133985    4.63591049596881   -1.86023353881350
H         2.26728994745718   -0.86647012985404   -3.81934844554964
H         0.37737988110322    0.86845918991731   -2.50644503647906
H         0.75585649493795   -0.88249939169892   -0.87496093501312
H         1.94414257254122   -1.13996142321621   -4.47333947776083
H         1.14670170422580    1.97811058612918    0.27035957161525
12
 energy: -21.511594830637 gnorm: 0.001991445100 xtb: 6.2.3 (830e466)
C         0.60906218199236    1.57865406771311   -1.72328829708544
C         0.93018752094899    1.22736150882004   -0.47505097554585
C         1.00580071187774   -0.16331234540302   -0.06991009952652
O         0.51198944825436    2.80474149926024   -2.24043473746768
O         0.78671274153349    3.83983592574206   -1.30600246763563
O         1.30536170504438   -0.54784376518110    1.03256152381826
H         0.74921595676821    4.63387208432426   -1.85983463947537
H         2.26328726990757   -0.86186046395875   -3.81102247159263
H         0.38069987073694    0.86711379584258   -2.50850732323779
H         0.75516692849395   -0.88156365248225   -0.87742992091384
H         1.94108578530923   -1.13540642898756   -4.46558068865804
H         1.15041987913051    1.97801777430940    0.26869009731938
12
 energy: -21.511628755759 gnorm: 0.002737216668 xtb: 6.2.3 (830e466)
C         0.62123859579994    1.57521064277814   -1.73188683934614
C         0.94062516138538    1.22268224559637   -0.48353636997469
C         1.00425911325677   -0.16807995869993   -0.07880318049698
O         0.52644548623197    2.80200208279543   -2.24933628960715
O         0.79730240889844    3.83410406644745   -1.31397697168205
O         1.30413606388872   -0.56002323211596    1.02059587272984
H         0.71850655666197    4.63223901420686   -1.85675182051716
H         2.24654453837181   -0.84186738613607   -3.77025731339815
H         0.39298405384208    0.86318574143112   -2.51894237937323
H         0.74864061120623   -0.88191345397180   -0.88825942155547
H         1.92397014378034   -1.11221682009399   -4.42389057695416
H         1.16433726667354    1.97428705776110    0.25923529017358
12
 energy: -21.511643631350 gnorm: 0.002078945559 xtb: 6.2.3 (830e466)
C         0.62677141377585    1.57341845046966   -1.73642270082327
C         0.94526867447776    1.22039505213435   -0.48803943418703
C         1.00506039952999   -0.17090250960629   -0.08440820212904
O         0.53257559093726    2.80028773541391   -2.25356428624408
O         0.80307105201814    3.83254327597183   -1.31779183655307
O         1.30321379563427   -0.56531351176805    1.01483075559403
H         0.70484454682877    4.63188158134175   -1.85565168515877
H         2.24061358177471   -0.83314947579888   -3.74919044781679
H         0.39779184303938    0.86198051490782   -2.52285503249873
H         0.74726415723295   -0.88313884625300   -0.89511752993055
H         1.91318356155809   -1.09994646157596   -4.40229002786976
H         1.16933138318973    1.97155419476137    0.25469042761493
12
 energy: -21.511662342985 gnorm: 0.000968204946 xtb: 6.2.3 (830e466)
C         0.63376978353854    1.57116726295317   -1.74265306704897
C         0.95217826571624    1.21722643385632   -0.49445986165381
C         1.00772357760139   -0.17547787151276   -0.09445417244631
O         0.53866865947579    2.79773331938262   -2.25924876290410
O         0.81128681438341    3.83143054243961   -1.32393481051293
O         1.29982584758649   -0.57424173943914    1.00515271820552
H         0.68817601149511    4.63059535595595   -1.85557581199990
H         2.22637914177160   -0.81876322410719   -3.71457967926692
H         0.40374241573513    0.86046633408858   -2.52759285007394
H         0.75116435588912   -0.88460014064231   -0.90906279459854
H         1.90003040457928   -1.08276325522532   -4.36843767743490
H         1.17604472222440    1.96683698224874    0.24903676973224
12
 energy: -21.511670044525 gnorm: 0.002404734411 xtb: 6.2.3 (830e466)
C         0.64019371944853    1.56918621734952   -1.75102231393481
C         0.95876500779432    1.21259233214820   -0.50342829369081
C         1.01173950060221   -0.18179321714646   -0.10823537979498
O         0.54589454081732    2.79594631343653   -2.26614729479319
O         0.82571480980403    3.82967786279742   -1.33131348886212
O         1.29623441666794   -0.58415287838360    0.99202128891515
H         0.66572374257334    4.63001688464969   -1.85471101070248
H         2.21234232061983   -0.80304988448740   -3.66859601757920
H         0.40962830844161    0.85965254627225   -2.53630865168338
H         0.75897505291303   -0.88781754964435   -0.92685426323253
H         1.87982512913793   -1.05998173732211   -4.32338915868245
H         1.18395345117583    1.95933311032822    0.24217458403763
12
 energy: -21.511676642539 gnorm: 0.001911155821 xtb: 6.2.3 (830e466)
C         0.63944027911613    1.56964002154003   -1.75193394625628
C         0.95982054904203    1.21199395580005   -0.50509954314004
C         1.01418791165027   -0.18321715306830   -0.11257808901418
O         0.54298068595923    2.79618991620878   -2.26664560226902
O         0.82510259672963    3.83060486840186   -1.33288449826843
O         1.29424425410643   -0.58706049902289    0.98830568850090
H         0.66930433241553    4.62867206135639   -1.85579051297705
H         2.20446527056752   -0.79897077596565   -3.65619737603237
H         0.40754769598743    0.86006209870501   -2.53688459597184
H         0.76744034214345   -0.88804185989527   -0.93409643281953
H         1.87991261578434   -1.05767742977827   -4.31389932543842
H         1.18454346649394    1.95741479571614    0.24189423368310
12
 energy: -21.511681655799 gnorm: 0.001073761831 xtb: 6.2.3 (830e466)
C         0.63717209346058    1.57084848169413   -1.75236619033754
C         0.95904544827470    1.21154678591684   -0.50651342221544
C         1.01520370913143   -0.18363358280523   -0.11419899132980
O         0.54063774460600    2.79808133207362   -2.26586769484308
O         0.82629771638580    3.83067371891107   -1.33213542282581
O         1.29527757252630   -0.58659130479754    0.98682390604945
H         0.67112337368960    4.62993030037173   -1.85426568964515
H         2.20018572077522   -0.79903558682699   -3.65251276242980
H         0.40391786986663    0.86188279319705   -2.53846915558154
H         0.77070112529274   -0.88902810004336   -0.93549515490660
H         1.88468885011167   -1.06122229692473   -4.31223287862875
H         1.18473877587533    1.95615745923139    0.24142345669105
12
 energy: -21.511687527686 gnorm: 0.001118962486 xtb: 6.2.3 (830e466)
C         0.63242237536420    1.57335216910403   -1.75395805046024
C         0.95832843009664    1.21067900997254   -0.51029813585123
C         1.01757915411542   -0.18459224582843   -0.11875962486929
O         0.53489459221997    2.80210966188727   -2.26434891500696
O         0.82729819263513    3.83107754952813   -1.33010509599044
O         1.29809488383114   -0.58639849972308    0.98246468079942
H         0.67552684484769    4.63266546213763   -1.85009012952090
H         2.19338862467126   -0.80089649688686   -3.64115883215143
H         0.39589833619228    0.86626288801017   -2.54184808531946
H         0.77683806778570   -0.89085138030087   -0.93999063568642
H         1.89253022038585   -1.06743569195065   -4.30688932346389
H         1.18619027785091    1.95363757404818    0.23917214751818
12
 energy: -21.511693822428 gnorm: 0.001270319715 xtb: 6.2.3 (830e466)
C         0.62713524357315    1.57607026765231   -1.75619672130835
C         0.95893722587700    1.20989942853377   -0.51516855040573
C         1.02084548168718   -0.18579407644771   -0.12556072069431
O         0.52743239529995    2.80657357483916   -2.26232236584064
O         0.82833071769797    3.83187675877400   -1.32712118772092
O         1.30205690040678   -0.58764438742109    0.97553507183029
H         0.67969547058823    4.63603225241109   -1.84473899657870
H         2.18101573268580   -0.80104807782020   -3.62489112527915
H         0.38667239203959    0.87163145312752   -2.54531259978935
H         0.78173535932223   -0.89213888087737   -0.94720174692749
H         1.90545860346014   -1.07689919380934   -4.29817474269472
H         1.18967447735843    1.95105088103609    0.23534368540686
12
 energy: -21.511701809091 gnorm: 0.001526017292 xtb: 6.2.3 (830e466)
C         0.62108803968950    1.57947460560445   -1.75880630887685
C         0.96076574499674    1.20958218948847   -0.52094063830401