      -----------------------------------------------------------      
     |                   =====================                   |     
     |                           x T B                           |     
     |                   =====================                   |     
     |                         S. Grimme                         |     
     |          Mulliken Center for Theoretical Chemistry        |     
     |                    University of Bonn                     |     
      -----------------------------------------------------------      

   * xtb version 6.2.3 (830e466) compiled by 'ehlert@majestix' on 2020-03-16

   xtb is free software: you can redistribute it and/or modify it under
   the terms of the GNU Lesser General Public License as published by
   the Free Software Foundation, either version 3 of the License, or
   (at your option) any later version.
   
   xtb is distributed in the hope that it will be useful,
   but WITHOUT ANY WARRANTY; without even the implied warranty of
   MERCHANTABILITY or FITNESS FOR A PARTICULAR PURPOSE.  See the
   GNU Lesser General Public License for more details.
   
   Cite this work as:
   * S. Grimme, C. Bannwarth, P. Shushkov, J. Chem. Theory Comput., 2017,
     13, 1989-2009. DOI: 10.1021/acs.jctc.7b00118
   * C. Bannwarth, S. Ehlert and S. Grimme., J. Chem. Theory Comput., 2019,
     15, 1652-1671. DOI: 10.1021/acs.jctc.8b01176
   * P. Pracht, E. Caldeweyher, S. Ehlert, S. Grimme, ChemRxiv, 2019, preprint.
     DOI: 10.26434/chemrxiv.8326202.v1
   
   for DFT-D4:
   * E. Caldeweyher, C. Bannwarth and S. Grimme, J. Chem. Phys., 2017,
     147, 034112. DOI: 10.1063/1.4993215
   * E. Caldeweyher, S. Ehlert, A. Hansen, H. Neugebauer, S. Spicher,
     C. Bannwarth and S. Grimme, J. Chem. Phys., 2019, 150, 154122.
     DOI: 10.1063/1.5090222
   
   for sTDA-xTB:
   * S. Grimme and C. Bannwarth, J. Chem. Phys., 2016, 145, 054103.
     DOI: 10.1063/1.4959605
   
   in the mass-spec context:
   * V. Asgeirsson, C. Bauer and S. Grimme, Chem. Sci., 2017, 8, 4879.
     DOI: 10.1039/c7sc00601b
   
   for metadynamics refer to:
   * S. Grimme, J. Chem. Theory Comput., 2019, 155, 2847-2862
     DOI: 10.1021/acs.jctc.9b00143
   
   with help from (in alphabetical order)
   C. Bannwarth, F. Bohle, G. Brandenburg, E. Caldeweyher, M. Checinski,
   S. Dohm, S. Ehlert, S. Ehrlich, F. März, H. Neugebauer, J. Pisarek,
   P. Pracht, P. Shushkov, and S. Spicher.
   
 * started run on 2020/12/23 at 21:42:48.695     

           -------------------------------------------------
          |                Calculation Setup                |
           -------------------------------------------------

          program call               : xtb -c 0 -u 0 -a 1.0 --iterations 100 --opt normal --namespace product_27 /scratch/bell/zhao922/YARP/paper-example/potential_product/test/reaction_channel/pp_0/pp_2_0.xyz
          hostname                   : bell-fe05.rcac.purdue.edu
          calculation namespace      : product_27
          coordinate file            : /scratch/bell/zhao922/YARP/paper-example/potential_product/test/reaction_channel/pp_0/pp_2_0.xyz
          omp threads                :                    32
          number of atoms            :                    12
          number of electrons        :                    36
          charge                     :                     0
          spin                       :                   0.0
          first test random number   :      0.58123956639569

           ------------------------------------------------- 
          |                 G F N 2 - x T B                 |
          | Geometry, Frequencies, Noncovalent interactions |
          |            JCTC 2019 parametrisation            |
           ------------------------------------------------- 
             k(s)              :                1.8500
             k(p)              :                2.2300
             k(d)              :                2.2300
             k(f)              :                2.0000
             kEN (H0ij)        :               -2.0000
             D4 a1             :                0.5200
             D4 a2             :                5.0000
             D4 s6             :                1.0000
             D4 s8             :                2.7000
             D4 s9             :                5.0000
             alphaj            :                2.0000

  Z AO/shell   Hii/eV     exponent
  1     Wed Apr 25 08:07:45 CEST 2018   EN: 2.200 GM2: 0.406  GM3: 0.0800  RAES: 1.40
     1s    -10.707211    1.230000
  6     Wed Apr 25 08:07:45 CEST 2018   EN: 2.550 GM2: 0.538  GM3: 0.1500  RAES: 3.00
     2s    -13.970922    2.096432
     2p    -10.063292    1.800000
  8     Wed Apr 25 08:07:45 CEST 2018   EN: 3.440 GM2: 0.452  GM3:-0.0517  RAES: 1.80
     2s    -20.229985    2.439742
     2p    -15.503117    2.137023

           ------------------------------------------------- 
          |        Self-Consistent Charge Iterations        |
           ------------------------------------------------- 

          ...................................................
          :                      SETUP                      :
          :.................................................:
          :  # basis functions                  30          :
          :  # atomic orbitals                  30          :
          :  # shells                           18          :
          :  # electrons                        36          :
          :  max. iterations                   100          :
          :  Hamiltonian                  GFN2-xTB          :
          :  restarted?                      false          :
          :  GBSA solvation                  false          :
          :  PC potential                    false          :
          :  electronic temp.          300.0000000     K    :
          :  accuracy                    1.0000000          :
          :  -> integral cutoff          0.2500000E+02      :
          :  -> integral neglect         0.1000000E-07      :
          :  -> SCF convergence          0.1000000E-05 Eh   :
          :  -> wf. convergence          0.1000000E-03 e    :
          :  Broyden damping             0.4000000          :
          ...................................................

 iter      E             dE          RMSdq      gap      omega  full diag
   1    -21.6850684 -0.216851E+02  0.486E+00    4.09       0.0  T
   2    -21.7138064 -0.287380E-01  0.263E+00    3.36       1.0  T
   3    -21.7141619 -0.355555E-03  0.163E+00    3.91       1.0  T
   4    -21.7222709 -0.810897E-02  0.145E-01    3.64       1.0  T
   5    -21.7223070 -0.361346E-04  0.789E-02    3.66       1.0  T
   6    -21.7223132 -0.619252E-05  0.209E-02    3.65       1.4  T
   7    -21.7223135 -0.280721E-06  0.685E-03    3.65       4.2  T
   8    -21.7223138 -0.290302E-06  0.285E-03    3.65      10.1  T
   9    -21.7223138 -0.240297E-07  0.809E-04    3.65      35.7  T
  10    -21.7223138 -0.502528E-08  0.266E-04    3.65     108.7  T

   *** convergence criteria satisfied after 10 iterations ***

         #    Occupation            Energy/Eh            Energy/eV
      -------------------------------------------------------------
         1        2.0000           -0.7529888             -20.4899
       ...           ...                  ...                  ...
        12        2.0000           -0.5275476             -14.3553
        13        2.0000           -0.4845573             -13.1855
        14        2.0000           -0.4832203             -13.1491
        15        2.0000           -0.4768561             -12.9759
        16        2.0000           -0.4669544             -12.7065
        17        2.0000           -0.4428459             -12.0505
        18        2.0000           -0.4011770             -10.9166 (HOMO)
        19                         -0.2669813              -7.2649 (LUMO)
        20                         -0.0514197              -1.3992
        21                          0.0518649               1.4113
        22                          0.0793430               2.1590
        23                          0.0957875               2.6065
       ...                                ...                  ...
        30                          0.5621490              15.2969
      -------------------------------------------------------------
                  HL-Gap            0.1341957 Eh            3.6517 eV
             Fermi-level           -0.3340791 Eh           -9.0908 eV

 SCC (total)                   0 d,  0 h,  0 min,  0.186 sec
 SCC setup                      ...        0 min,  0.000 sec (  0.074%)
 Dispersion                     ...        0 min,  0.000 sec (  0.028%)
 integral evaluation            ...        0 min,  0.085 sec ( 46.000%)
 zeroth order Hamiltonian       ...        0 min,  0.000 sec (  0.039%)
 iterations                     ...        0 min,  0.011 sec (  5.806%)
 molecular gradient             ...        0 min,  0.089 sec ( 47.878%)
 printout                       ...        0 min,  0.000 sec (  0.048%)

         :::::::::::::::::::::::::::::::::::::::::::::::::::::
         ::                     SUMMARY                     ::
         :::::::::::::::::::::::::::::::::::::::::::::::::::::
         :: total energy             -21.562373408159 Eh    ::
         :: gradient norm              0.128102357714 Eh/a0 ::
         :: HOMO-LUMO gap              3.651650360960 eV    ::
         ::.................................................::
         :: SCC energy               -21.722313815506 Eh    ::
         :: -> isotropic ES            0.050587983099 Eh    ::
         :: -> anisotropic ES         -0.002084435483 Eh    ::
         :: -> anisotropic XC         -0.008509567901 Eh    ::
         :: -> dispersion             -0.005937213219 Eh    ::
         :: repulsion energy           0.159933279703 Eh    ::
         :: add. restraining           0.000000000000 Eh    ::
         :::::::::::::::::::::::::::::::::::::::::::::::::::::

      ----------------------------------------------------------- 
     |                   =====================                   |
     |                        A N C O P T                        |
     |                   =====================                   |
     |               Approximate Normal Coordinate               |
     |                Rational Function Optimizer                |
      ----------------------------------------------------------- 

          ...................................................
          :                      SETUP                      :
          :.................................................:
          :   optimization level            normal          :
          :   max. optcycles                   200          :
          :   ANC micro-cycles                  20          :
          :   degrees of freedom                30          :
          :.................................................:
          :   RF solver                   davidson          :
          :   write xtbopt.log                true          :
          :   linear?                        false          :
          :   energy convergence         0.5000000E-05 Eh   :
          :   grad. convergence          0.1000000E-02 Eh/α :
          :   maximium RF displ.         1.0000000          :
          :   Hlow (freq-cutoff)         0.1000000E-01      :
          :   Hmax (freq-cutoff)         5.0000000          :
          :   S6 in model hess.         20.0000000          :
          ...................................................

generating ANC from model Hessian ...
Using Lindh-Hessian (1995)
 Shifting diagonal of input Hessian by   6.350784042708839E-003
 Lowest  eigenvalues of input Hessian
   -0.000000   -0.000000   -0.000000    0.000000    0.000000    0.000000
    0.010000    0.012575    0.019570    0.023004    0.028373    0.047162
    0.058898    0.061177    0.065107    0.081157    0.092833    0.112270
 Highest eigenvalues
    1.084220    1.192702    1.353249    1.428050    1.627143    2.081476
 

........................................................................
.............................. CYCLE    1 ..............................
........................................................................
   1    -21.7223138 -0.217223E+02  0.114E-04    3.65       0.0  T
   2    -21.7223138 -0.396270E-10  0.823E-05    3.65     350.8  T
   3    -21.7223138 -0.180442E-10  0.597E-05    3.65     483.2  T
     SCC iter.                  ...        0 min,  0.001 sec
     gradient                   ...        0 min,  0.089 sec
 * total energy  :   -21.5623734 Eh     change        0.1001891E-07 Eh
   gradient norm :     0.1281006 Eh/α   predicted     0.0000000E+00 (-100.00%)
   displ. norm   :     0.2269688 α      lambda       -0.1576349E-01
   maximum displ.:     0.1208789 α      in ANC's #15, #6, #16, ...

........................................................................
.............................. CYCLE    2 ..............................
........................................................................
   1    -21.7424013 -0.217424E+02  0.392E-01    3.75       0.0  T
   2    -21.7425632 -0.161897E-03  0.238E-01    3.74       1.0  T
   3    -21.7425737 -0.105368E-04  0.899E-02    3.71       1.0  T
   4    -21.7425893 -0.155549E-04  0.278E-02    3.73       1.0  T
   5    -21.7425930 -0.379200E-05  0.118E-02    3.72       2.4  T
   6    -21.7425934 -0.356781E-06  0.577E-03    3.72       5.0  T
   7    -21.7425935 -0.650301E-07  0.172E-03    3.72      16.7  T
     SCC iter.                  ...        0 min,  0.002 sec
     gradient                   ...        0 min,  0.001 sec
 * total energy  :   -21.5727348 Eh     change       -0.1036136E-01 Eh
   gradient norm :     0.0461290 Eh/α   predicted    -0.8287774E-02 ( -20.01%)
   displ. norm   :     0.2342249 α      lambda       -0.3570301E-02
   maximum displ.:     0.1426103 α      in ANC's #1, #6, #2, ...

........................................................................
.............................. CYCLE    3 ..............................
........................................................................
   1    -21.7505945 -0.217506E+02  0.324E-01    3.78       0.0  T
   2    -21.7506526 -0.580428E-04  0.202E-01    3.77       1.0  T
   3    -21.7506586 -0.604161E-05  0.513E-02    3.75       1.0  T
   4    -21.7506688 -0.102225E-04  0.185E-02    3.77       1.6  T
   5    -21.7506702 -0.138659E-05  0.922E-03    3.76       3.1  T
   6    -21.7506704 -0.197703E-06  0.472E-03    3.76       6.1  T
   7    -21.7506705 -0.612297E-07  0.148E-03    3.76      19.5  T
     SCC iter.                  ...        0 min,  0.002 sec
     gradient                   ...        0 min,  0.001 sec
 * total energy  :   -21.5748740 Eh     change       -0.2139290E-02 Eh
   gradient norm :     0.0068047 Eh/α   predicted    -0.1883086E-02 ( -11.98%)
   displ. norm   :     0.1932306 α      lambda       -0.5088247E-03
   maximum displ.:     0.1597277 α      in ANC's #1, #2, #6, ...

........................................................................
.............................. CYCLE    4 ..............................
........................................................................
   1    -21.7507764 -0.217508E+02  0.208E-01    3.77       0.0  T
   2    -21.7507834 -0.695117E-05  0.130E-01    3.77       1.0  T
   3    -21.7507862 -0.281349E-05  0.184E-02    3.76       1.6  T
   4    -21.7507884 -0.218756E-05  0.917E-03    3.77       3.1  T
   5    -21.7507886 -0.187741E-06  0.325E-03    3.77       8.9  T
   6    -21.7507886 -0.349438E-07  0.136E-03    3.77      21.3  T
   7    -21.7507886 -0.657419E-08  0.688E-04    3.77      42.0  T
     SCC iter.                  ...        0 min,  0.089 sec
     gradient                   ...        0 min,  0.001 sec
 * total energy  :   -21.5752420 Eh     change       -0.3679893E-03 Eh
   gradient norm :     0.0082217 Eh/α   predicted    -0.2639113E-03 ( -28.28%)
   displ. norm   :     0.1943635 α      lambda       -0.3330843E-03
   maximum displ.:     0.1587313 α      in ANC's #1, #2, #6, ...

........................................................................
.............................. CYCLE    5 ..............................
........................................................................
   1    -21.7503840 -0.217504E+02  0.197E-01    3.77       0.0  T
   2    -21.7503892 -0.516083E-05  0.123E-01    3.77       1.0  T
   3    -21.7503929 -0.372344E-05  0.113E-02    3.77       2.6  T
   4    -21.7503931 -0.179775E-06  0.684E-03    3.77       4.2  T
   5    -21.7503932 -0.984317E-07  0.197E-03    3.77      14.7  T
   6    -21.7503932 -0.142534E-07  0.122E-03    3.77      23.6  T
     SCC iter.                  ...        0 min,  0.002 sec
     gradient                   ...        0 min,  0.001 sec
 * total energy  :   -21.5755122 Eh     change       -0.2701786E-03 Eh
   gradient norm :     0.0104231 Eh/α   predicted    -0.1728339E-03 ( -36.03%)
   displ. norm   :     0.2495611 α      lambda       -0.4002066E-03
   maximum displ.:     0.2079993 α      in ANC's #1, #2, #6, ...

........................................................................
.............................. CYCLE    6 ..............................
........................................................................
   1    -21.7502153 -0.217502E+02  0.237E-01    3.77       0.0  T
   2    -21.7502233 -0.798282E-05  0.147E-01    3.77       1.0  T
   3    -21.7502278 -0.445607E-05  0.154E-02    3.78       1.9  T
   4    -21.7502285 -0.702197E-06  0.932E-03    3.77       3.1  T
   5    -21.7502286 -0.172359E-06  0.446E-03    3.77       6.5  T
   6    -21.7502287 -0.869101E-07  0.181E-03    3.77      16.0  T
   7    -21.7502287 -0.145513E-07  0.837E-04    3.77      34.5  T
     SCC iter.                  ...        0 min,  0.002 sec
     gradient                   ...        0 min,  0.001 sec
 * total energy  :   -21.5758476 Eh     change       -0.3354381E-03 Eh
   gradient norm :     0.0099692 Eh/α   predicted    -0.2125635E-03 ( -36.63%)
   displ. norm   :     0.3456662 α      lambda       -0.5114513E-03
   maximum displ.:     0.2909857 α      in ANC's #1, #2, #6, ...

........................................................................
.............................. CYCLE    7 ..............................
........................................................................
   1    -21.7499492 -0.217499E+02  0.326E-01    3.78       0.0  T
   2    -21.7499659 -0.167778E-04  0.201E-01    3.78       1.0  T
   3    -21.7499725 -0.661485E-05  0.252E-02    3.79       1.1  T
   4    -21.7499755 -0.298661E-05  0.135E-02    3.78       2.1  T
   5    -21.7499759 -0.409934E-06  0.682E-03    3.79       4.2  T
   6    -21.7499761 -0.165469E-06  0.269E-03    3.79      10.7  T
   7    -21.7499761 -0.319221E-07  0.117E-03    3.79      24.7  T
     SCC iter.                  ...        0 min,  0.088 sec
     gradient                   ...        0 min,  0.001 sec
 * total energy  :   -21.5762614 Eh     change       -0.4137842E-03 Eh
   gradient norm :     0.0093355 Eh/α   predicted    -0.2862826E-03 ( -30.81%)
   displ. norm   :     0.4051591 α      lambda       -0.5127327E-03
   maximum displ.:     0.3473683 α      in ANC's #1, #2, #4, ...

........................................................................
.............................. CYCLE    8 ..............................
........................................................................
   1    -21.7499121 -0.217499E+02  0.380E-01    3.81       0.0  T
   2    -21.7499326 -0.205522E-04  0.235E-01    3.81       1.0  T
   3    -21.7499407 -0.807091E-05  0.296E-02    3.81       1.0  T
   4    -21.7499453 -0.457173E-05  0.156E-02    3.81       1.9  T
   5    -21.7499458 -0.522503E-06  0.753E-03    3.81       3.8  T
   6    -21.7499460 -0.206332E-06  0.298E-03    3.81       9.7  T
   7    -21.7499460 -0.389084E-07  0.133E-03    3.81      21.7  T
     SCC iter.                  ...        0 min,  0.002 sec
     gradient                   ...        0 min,  0.001 sec
 * total energy  :   -21.5766484 Eh     change       -0.3870078E-03 Eh
   gradient norm :     0.0090006 Eh/α   predicted    -0.2984502E-03 ( -22.88%)
   displ. norm   :     0.3595709 α      lambda       -0.3848982E-03
   maximum displ.:     0.3019428 α      in ANC's #1, #2, #4, ...

........................................................................
.............................. CYCLE    9 ..............................
........................................................................
   1    -21.7505391 -0.217505E+02  0.337E-01    3.82       0.0  T
   2    -21.7505566 -0.174756E-04  0.208E-01    3.82       1.0  T
   3    -21.7505623 -0.574961E-05  0.275E-02    3.82       1.1  T
   4    -21.7505665 -0.416206E-05  0.139E-02    3.82       2.1  T
   5    -21.7505669 -0.411494E-06  0.701E-03    3.82       4.1  T
   6    -21.7505671 -0.167869E-06  0.268E-03    3.82      10.8  T
   7    -21.7505671 -0.305744E-07  0.118E-03    3.82      24.4  T
     SCC iter.                  ...        0 min,  0.003 sec
     gradient                   ...        0 min,  0.288 sec
 * total energy  :   -21.5769275 Eh     change       -0.2790166E-03 Eh
   gradient norm :     0.0080811 Eh/α   predicted    -0.2173312E-03 ( -22.11%)
   displ. norm   :     0.2755520 α      lambda       -0.2624257E-03
   maximum displ.:     0.2239218 α      in ANC's #1, #2, #4, ...

........................................................................
.............................. CYCLE   10 ..............................
........................................................................
   1    -21.7526269 -0.217526E+02  0.260E-01    3.85       0.0  T
   2    -21.7526353 -0.842869E-05  0.161E-01    3.84       1.0  T
   3    -21.7526391 -0.378620E-05  0.206E-02    3.85       1.4  T
   4    -21.7526416 -0.252604E-05  0.107E-02    3.84       2.7  T
   5    -21.7526418 -0.237844E-06  0.350E-03    3.85       8.2  T
   6    -21.7526419 -0.441811E-07  0.173E-03    3.85      16.7  T
   7    -21.7526419 -0.121726E-07  0.835E-04    3.85      34.6  T
     SCC iter.                  ...        0 min,  0.004 sec
     gradient                   ...        0 min,  0.001 sec
 * total energy  :   -21.5771071 Eh     change       -0.1795995E-03 Eh
   gradient norm :     0.0036241 Eh/α   predicted    -0.1411795E-03 ( -21.39%)
   displ. norm   :     0.3893583 α      lambda       -0.2004376E-03
   maximum displ.:     0.3009728 α      in ANC's #1, #2, #4, ...

........................................................................
.............................. CYCLE   11 ..............................
........................................................................
   1    -21.7494105 -0.217494E+02  0.385E-01    3.80       0.0  T
   2    -21.7494438 -0.332274E-04  0.239E-01    3.81       1.0  T
   3    -21.7494564 -0.126174E-04  0.283E-02    3.81       1.0  T
   4    -21.7494584 -0.203134E-05  0.144E-02    3.81       2.0  T
   5    -21.7494588 -0.365334E-06  0.562E-03    3.81       5.1  T
   6    -21.7494589 -0.914294E-07  0.257E-03    3.81      11.2  T
   7    -21.7494589 -0.289395E-07  0.135E-03    3.81      21.5  T
   8    -21.7494589 -0.648818E-08  0.778E-04    3.81      37.1  T
   9    -21.7494589 -0.266616E-08  0.149E-04    3.81     193.4  T
     SCC iter.                  ...        0 min,  0.192 sec
     gradient                   ...        0 min,  0.002 sec
 * total energy  :   -21.5771083 Eh     change       -0.1286031E-05 Eh
   gradient norm :     0.0158188 Eh/α   predicted    -0.1154123E-03 (8874.31%)
   displ. norm   :     0.0989409 α      lambda       -0.2732288E-03
   maximum displ.:     0.0762093 α      in ANC's #1, #2, #3, ...

........................................................................
.............................. CYCLE   12 ..............................
........................................................................
   1    -21.7539466 -0.217539E+02  0.112E-01    3.84       0.0  T
   2    -21.7539511 -0.445157E-05  0.687E-02    3.84       1.0  T
   3    -21.7539510  0.378096E-07  0.154E-02    3.84       1.9  T
   4    -21.7539522 -0.117593E-05  0.459E-03    3.84       6.3  T
   5    -21.7539523 -0.678002E-07  0.285E-03    3.84      10.1  T
   6    -21.7539523 -0.195870E-07  0.815E-04    3.84      35.4  T
     SCC iter.                  ...        0 min,  0.093 sec
     gradient                   ...        0 min,  0.001 sec
 * total energy  :   -21.5772140 Eh     change       -0.1056213E-03 Eh
   gradient norm :     0.0074629 Eh/α   predicted    -0.1379531E-03 (  30.61%)
   displ. norm   :     0.0867356 α      lambda       -0.1016109E-03
   maximum displ.:     0.0776439 α      in ANC's #1, #2, #4, ...

........................................................................
.............................. CYCLE   13 ..............................
........................................................................
   1    -21.7536465 -0.217536E+02  0.960E-02    3.87       0.0  T
   2    -21.7536491 -0.260149E-05  0.599E-02    3.87       1.0  T
   3    -21.7536496 -0.524327E-06  0.831E-03    3.87       3.5  T
   4    -21.7536499 -0.247624E-06  0.345E-03    3.87       8.4  T
   5    -21.7536499 -0.448690E-07  0.198E-03    3.87      14.6  T
   6    -21.7536499 -0.945432E-08  0.947E-04    3.87      30.5  T
     SCC iter.                  ...        0 min,  0.003 sec
     gradient                   ...        0 min,  0.003 sec
 * total energy  :   -21.5772402 Eh     change       -0.2621246E-04 Eh
   gradient norm :     0.0048493 Eh/α   predicted    -0.5118800E-04 (  95.28%)
   displ. norm   :     0.1029933 α      lambda       -0.6161517E-04
   maximum displ.:     0.0687191 α      in ANC's #1, #2, #4, ...

........................................................................
.............................. CYCLE   14 ..............................
........................................................................
   1    -21.7529291 -0.217529E+02  0.105E-01    3.85       0.0  T
   2    -21.7529323 -0.319716E-05  0.644E-02    3.85       1.0  T
   3    -21.7529331 -0.790858E-06  0.881E-03    3.85       3.3  T
   4    -21.7529333 -0.198335E-06  0.369E-03    3.85       7.8  T
   5    -21.7529333 -0.209154E-07  0.189E-03    3.85      15.3  T
   6    -21.7529333 -0.765716E-08  0.906E-04    3.85      31.9  T
     SCC iter.                  ...        0 min,  0.005 sec
     gradient                   ...        0 min,  0.001 sec
 * total energy  :   -21.5772837 Eh     change       -0.4352910E-04 Eh
   gradient norm :     0.0028997 Eh/α   predicted    -0.3113361E-04 ( -28.48%)
   displ. norm   :     0.1307757 α      lambda       -0.4821503E-04
   maximum displ.:     0.0825918 α      in ANC's #1, #4, #2, ...

........................................................................
.............................. CYCLE   15 ..............................
........................................................................
   1    -21.7526821 -0.217527E+02  0.135E-01    3.84       0.0  T
   2    -21.7526857 -0.355484E-05  0.829E-02    3.84       1.0  T
   3    -21.7526870 -0.133079E-05  0.889E-03    3.84       3.2  T
   4    -21.7526872 -0.205372E-06  0.460E-03    3.84       6.3  T
   5    -21.7526873 -0.240628E-07  0.217E-03    3.84      13.3  T
   6    -21.7526873 -0.174269E-07  0.982E-04    3.84      29.4  T
   7    -21.7526873 -0.358201E-08  0.350E-04    3.84      82.5  T
     SCC iter.                  ...        0 min,  0.092 sec
     gradient                   ...        0 min,  0.001 sec
 * total energy  :   -21.5773177 Eh     change       -0.3404099E-04 Eh
   gradient norm :     0.0061391 Eh/α   predicted    -0.2451860E-04 ( -27.97%)
   displ. norm   :     0.1318034 α      lambda       -0.5204710E-04
   maximum displ.:     0.0734153 α      in ANC's #1, #4, #3, ...

........................................................................
.............................. CYCLE   16 ..............................
........................................................................
   1    -21.7526685 -0.217527E+02  0.131E-01    3.84       0.0  T
   2    -21.7526707 -0.223029E-05  0.805E-02    3.84       1.0  T
   3    -21.7526718 -0.107696E-05  0.693E-03    3.84       4.2  T
   4    -21.7526719 -0.106928E-06  0.398E-03    3.84       7.3  T
   5    -21.7526719 -0.146742E-07  0.174E-03    3.84      16.6  T
   6    -21.7526720 -0.120033E-07  0.665E-04    3.84      43.4  T
     SCC iter.                  ...        0 min,  0.001 sec
     gradient                   ...        0 min,  0.001 sec
 * total energy  :   -21.5773591 Eh     change       -0.4131763E-04 Eh
   gradient norm :     0.0074983 Eh/α   predicted    -0.2647779E-04 ( -35.92%)
   displ. norm   :     0.2195717 α      lambda       -0.1102235E-03
   maximum displ.:     0.1199471 α      in ANC's #3, #4, #1, ...

........................................................................
.............................. CYCLE   17 ..............................
........................................................................
   1    -21.7529203 -0.217529E+02  0.212E-01    3.85       0.0  T
   2    -21.7529249 -0.459587E-05  0.130E-01    3.85       1.0  T
   3    -21.7529275 -0.258376E-05  0.101E-02    3.85       2.9  T
   4    -21.7529277 -0.189535E-06  0.610E-03    3.85       4.7  T
   5    -21.7529277 -0.285507E-07  0.253E-03    3.85      11.4  T
   6    -21.7529278 -0.292736E-07  0.744E-04    3.85      38.8  T
     SCC iter.                  ...        0 min,  0.092 sec
     gradient                   ...        0 min,  0.001 sec
 * total energy  :   -21.5774447 Eh     change       -0.8562323E-04 Eh
   gradient norm :     0.0077949 Eh/α   predicted    -0.5777181E-04 ( -32.53%)
   displ. norm   :     0.3307501 α      lambda       -0.1669008E-03
   maximum displ.:     0.1873636 α      in ANC's #3, #4, #1, ...

........................................................................
.............................. CYCLE   18 ..............................
........................................................................
   1    -21.7511868 -0.217512E+02  0.300E-01    3.85       0.0  T
   2    -21.7511945 -0.774416E-05  0.183E-01    3.85       1.0  T
   3    -21.7511986 -0.405767E-05  0.141E-02    3.85       2.0  T
   4    -21.7511991 -0.521864E-06  0.843E-03    3.85       3.4  T
   5    -21.7511992 -0.761765E-07  0.402E-03    3.85       7.2  T
   6    -21.7511992 -0.460896E-07  0.738E-04    3.85      39.1  T
   7    -21.7511992 -0.183632E-08  0.200E-04    3.85     144.3  T
     SCC iter.                  ...        0 min,  0.002 sec
     gradient                   ...        0 min,  0.002 sec
 * total energy  :   -21.5775575 Eh     change       -0.1128611E-03 Eh
   gradient norm :     0.0107348 Eh/α   predicted    -0.9257878E-04 ( -17.97%)
   displ. norm   :     0.3038838 α      lambda       -0.2705297E-03
   maximum displ.:     0.2060790 α      in ANC's #2, #3, #4, ...

........................................................................
.............................. CYCLE   19 ..............................
........................................................................
   1    -21.7532112 -0.217532E+02  0.239E-01    3.91       0.0  T
   2    -21.7532171 -0.592548E-05  0.144E-01    3.91       1.0  T
   3    -21.7532175 -0.341598E-06  0.188E-02    3.91       1.5  T
   4    -21.7532198 -0.239811E-05  0.749E-03    3.91       3.9  T
   5    -21.7532199 -0.815134E-07  0.407E-03    3.91       7.1  T
   6    -21.7532200 -0.349521E-07  0.124E-03    3.91      23.2  T
   7    -21.7532200 -0.637814E-08  0.486E-04    3.91      59.4  T
     SCC iter.                  ...        0 min,  0.092 sec
     gradient                   ...        0 min,  0.001 sec
 * total energy  :   -21.5776240 Eh     change       -0.6640854E-04 Eh
   gradient norm :     0.0163429 Eh/α   predicted    -0.1477552E-03 ( 122.49%)
   displ. norm   :     0.2321961 α      lambda       -0.3666222E-03
   maximum displ.:     0.1712649 α      in ANC's #1, #4, #3, ...

........................................................................
.............................. CYCLE   20 ..............................
........................................................................
   1    -21.7508009 -0.217508E+02  0.235E-01    3.87       0.0  T
   2    -21.7508112 -0.102702E-04  0.145E-01    3.87       1.0  T
   3    -21.7508121 -0.878040E-06  0.221E-02    3.87       1.3  T
   4    -21.7508153 -0.317798E-05  0.817E-03    3.87       3.5  T
   5    -21.7508154 -0.120649E-06  0.500E-03    3.87       5.8  T
   6    -21.7508154 -0.561445E-07  0.141E-03    3.87      20.5  T
   7    -21.7508155 -0.707172E-08  0.587E-04    3.87      49.1  T
     SCC iter.                  ...        0 min,  0.002 sec
     gradient                   ...        0 min,  0.001 sec
 * total energy  :   -21.5778401 Eh     change       -0.2161499E-03 Eh
   gradient norm :     0.0111418 Eh/α   predicted    -0.1931931E-03 ( -10.62%)
   displ. norm   :     0.1469321 α      lambda       -0.4453635E-03
   maximum displ.:     0.0905178 α      in ANC's #3, #4, #6, ...
 * RMSD in coord.:     0.9576470 α      energy gain  -0.1546670E-01 Eh

generating ANC from model Hessian ...
Using Lindh-Hessian (1995)
 Shifting diagonal of input Hessian by   6.286996633417789E-003
 Lowest  eigenvalues of input Hessian
   -0.000000   -0.000000    0.000000    0.000000    0.000000    0.000000
    0.010000    0.012323    0.017284    0.020023    0.029590    0.044431
    0.058251    0.068013    0.069274    0.080872    0.098596    0.115095
 Highest eigenvalues
    1.157610    1.197243    1.286745    1.385910    1.494655    2.182723
 

........................................................................
.............................. CYCLE   21 ..............................
........................................................................
   1    -21.7570082 -0.217570E+02  0.167E-01    3.92       0.0  T
   2    -21.7570254 -0.171499E-04  0.100E-01    3.91       1.0  T
   3    -21.7570263 -0.936330E-06  0.257E-02    3.91       1.1  T
   4    -21.7570274 -0.105612E-05  0.616E-03    3.91       4.7  T
   5    -21.7570275 -0.154963E-06  0.351E-03    3.91       8.2  T
   6    -21.7570276 -0.191151E-07  0.896E-04    3.91      32.2  T
   7    -21.7570276 -0.126802E-08  0.195E-04    3.91     147.8  T
     SCC iter.                  ...        0 min,  0.092 sec
     gradient                   ...        0 min,  0.001 sec
 * total energy  :   -21.5777440 Eh     change        0.9609250E-04 Eh
   gradient norm :     0.0154857 Eh/α   predicted     0.0000000E+00 (-100.00%)
   displ. norm   :     0.0831460 α      lambda       -0.4747215E-03
   maximum displ.:     0.0398634 α      in ANC's #2, #3, #5, ...

........................................................................
.............................. CYCLE   22 ..............................
........................................................................
   1    -21.7543456 -0.217543E+02  0.788E-02    3.89       0.0  T
   2    -21.7543505 -0.493844E-05  0.469E-02    3.89       1.0  T
   3    -21.7543504  0.725109E-07  0.149E-02    3.89       1.9  T
   4    -21.7543509 -0.495156E-06  0.340E-03    3.89       8.5  T
   5    -21.7543510 -0.729986E-07  0.169E-03    3.89      17.1  T
   6    -21.7543510 -0.335340E-08  0.529E-04    3.89      54.6  T
     SCC iter.                  ...        0 min,  0.001 sec
     gradient                   ...        0 min,  0.001 sec
 * total energy  :   -21.5780509 Eh     change       -0.3068963E-03 Eh
   gradient norm :     0.0043302 Eh/α   predicted    -0.2390016E-03 ( -22.12%)
   displ. norm   :     0.0935696 α      lambda       -0.1376189E-03
   maximum displ.:     0.0611136 α      in ANC's #2, #4, #3, ...

........................................................................
.............................. CYCLE   23 ..............................
........................................................................
   1    -21.7533115 -0.217533E+02  0.844E-02    3.89       0.0  T
   2    -21.7533130 -0.157152E-05  0.514E-02    3.89       1.0  T
   3    -21.7533134 -0.384543E-06  0.613E-03    3.89       4.7  T
   4    -21.7533135 -0.722364E-07  0.274E-03    3.89      10.6  T
   5    -21.7533135 -0.255730E-08  0.137E-03    3.89      21.1  T
     SCC iter.                  ...        0 min,  0.001 sec
     gradient                   ...        0 min,  0.091 sec
 * total energy  :   -21.5781447 Eh     change       -0.9378396E-04 Eh
   gradient norm :     0.0031693 Eh/α   predicted    -0.6941256E-04 ( -25.99%)
   displ. norm   :     0.1246040 α      lambda       -0.1000459E-03
   maximum displ.:     0.0827358 α      in ANC's #2, #4, #3, ...

........................................................................
.............................. CYCLE   24 ..............................
........................................................................
   1    -21.7527656 -0.217528E+02  0.107E-01    3.89       0.0  T
   2    -21.7527668 -0.121703E-05  0.652E-02    3.89       1.0  T
   3    -21.7527674 -0.612518E-06  0.534E-03    3.89       5.4  T
   4    -21.7527675 -0.348936E-07  0.319E-03    3.89       9.0  T
   5    -21.7527675 -0.898368E-08  0.655E-04    3.89      44.1  T
   6    -21.7527675 -0.165378E-08  0.378E-04    3.89      76.3  T
     SCC iter.                  ...        0 min,  0.001 sec
     gradient                   ...        0 min,  0.001 sec
 * total energy  :   -21.5782215 Eh     change       -0.7677602E-04 Eh
   gradient norm :     0.0061157 Eh/α   predicted    -0.5080011E-04 ( -33.83%)
   displ. norm   :     0.1984240 α      lambda       -0.1584731E-03
   maximum displ.:     0.1256370 α      in ANC's #2, #4, #3, ...

........................................................................
.............................. CYCLE   25 ..............................
........................................................................
   1    -21.7521577 -0.217522E+02  0.175E-01    3.89       0.0  T
   2    -21.7521605 -0.273711E-05  0.107E-01    3.89       1.0  T
   3    -21.7521622 -0.170116E-05  0.826E-03    3.89       3.5  T
   4    -21.7521622 -0.581459E-07  0.451E-03    3.89       6.4  T
   5    -21.7521623 -0.211092E-07  0.113E-03    3.89      25.6  T
   6    -21.7521623 -0.397096E-08  0.556E-04    3.89      51.9  T
     SCC iter.                  ...        0 min,  0.001 sec
     gradient                   ...        0 min,  0.001 sec
 * total energy  :   -21.5783354 Eh     change       -0.1138898E-03 Eh
   gradient norm :     0.0093860 Eh/α   predicted    -0.8235585E-04 ( -27.69%)
   displ. norm   :     0.1963609 α      lambda       -0.2016490E-03
   maximum displ.:     0.1171989 α      in ANC's #4, #2, #3, ...

........................................................................
.............................. CYCLE   26 ..............................
........................................................................
   1    -21.7522366 -0.217522E+02  0.173E-01    3.90       0.0  T
   2    -21.7522391 -0.246799E-05  0.106E-01    3.90       1.0  T
   3    -21.7522406 -0.153728E-05  0.776E-03    3.90       3.7  T
   4    -21.7522406 -0.469284E-07  0.373E-03    3.90       7.7  T
   5    -21.7522407 -0.144349E-07  0.128E-03    3.90      22.5  T
   6    -21.7522407 -0.651232E-08  0.531E-04    3.90      54.3  T
     SCC iter.                  ...        0 min,  0.002 sec
     gradient                   ...        0 min,  0.001 sec
 * total energy  :   -21.5784914 Eh     change       -0.1560827E-03 Eh
   gradient norm :     0.0101220 Eh/α   predicted    -0.1047127E-03 ( -32.91%)
   displ. norm   :     0.2192447 α      lambda       -0.3626710E-03
   maximum displ.:     0.1205857 α      in ANC's #4, #2, #3, ...

........................................................................
.............................. CYCLE   27 ..............................
........................................................................
   1    -21.7543212 -0.217543E+02  0.191E-01    3.90       0.0  T
   2    -21.7543248 -0.366798E-05  0.115E-01    3.90       1.0  T
   3    -21.7543260 -0.118259E-05  0.928E-03    3.90       3.1  T
   4    -21.7543263 -0.249824E-06  0.511E-03    3.90       5.7  T
   5    -21.7543263 -0.176628E-07  0.255E-03    3.90      11.3  T
   6    -21.7543263 -0.228886E-07  0.557E-04    3.90      51.8  T
     SCC iter.                  ...        0 min,  0.001 sec
     gradient                   ...        0 min,  0.001 sec
 * total energy  :   -21.5787412 Eh     change       -0.2497718E-03 Eh
   gradient norm :     0.0053483 Eh/α   predicted    -0.1900531E-03 ( -23.91%)
   displ. norm   :     0.3835375 α      lambda       -0.2735921E-03
   maximum displ.:     0.2186866 α      in ANC's #2, #3, #4, ...

........................................................................
.............................. CYCLE   28 ..............................
........................................................................
   1    -21.7507774 -0.217508E+02  0.308E-01    3.89       0.0  T
   2    -21.7507829 -0.553496E-05  0.185E-01    3.90       1.0  T
   3    -21.7507845 -0.154840E-05  0.132E-02    3.89       2.2  T
   4    -21.7507853 -0.814985E-06  0.701E-03    3.90       4.1  T
   5    -21.7507854 -0.723531E-07  0.350E-03    3.90       8.2  T
   6    -21.7507854 -0.224265E-07  0.744E-04    3.90      38.8  T
   7    -21.7507854 -0.125106E-08  0.206E-04    3.90     140.1  T
     SCC iter.                  ...        0 min,  0.002 sec
     gradient                   ...        0 min,  0.001 sec
 * total energy  :   -21.5787612 Eh     change       -0.1999011E-04 Eh
   gradient norm :     0.0129646 Eh/α   predicted    -0.1569162E-03 ( 684.97%)
   displ. norm   :     0.1006691 α      lambda       -0.4180838E-03
   maximum displ.:     0.0725076 α      in ANC's #2, #4, #3, ...

........................................................................
.............................. CYCLE   29 ..............................
........................................................................
   1    -21.7556171 -0.217556E+02  0.957E-02    3.90       0.0  T
   2    -21.7556214 -0.433987E-05  0.570E-02    3.90       1.0  T
   3    -21.7556220 -0.588145E-06  0.120E-02    3.90       2.4  T
   4    -21.7556222 -0.175350E-06  0.337E-03    3.90       8.6  T
   5    -21.7556222 -0.141563E-07  0.164E-03    3.90      17.6  T
   6    -21.7556222 -0.365149E-08  0.701E-04    3.90      41.2  T
     SCC iter.                  ...        0 min,  0.001 sec
     gradient                   ...        0 min,  0.001 sec
 * total energy  :   -21.5789342 Eh     change       -0.1730163E-03 Eh
   gradient norm :     0.0029827 Eh/α   predicted    -0.2111594E-03 (  22.05%)
   displ. norm   :     0.1224291 α      lambda       -0.7209885E-04
   maximum displ.:     0.0705275 α      in ANC's #4, #3, #2, ...

........................................................................
.............................. CYCLE   30 ..............................
........................................................................
   1    -21.7547796 -0.217548E+02  0.117E-01    3.90       0.0  T
   2    -21.7547808 -0.124696E-05  0.714E-02    3.90       1.0  T
   3    -21.7547815 -0.673269E-06  0.546E-03    3.90       5.3  T
   4    -21.7547816 -0.578762E-07  0.329E-03    3.90       8.8  T
   5    -21.7547816 -0.720447E-08  0.125E-03    3.90      23.1  T
   6    -21.7547816 -0.594955E-08  0.409E-04    3.90      70.6  T
   7    -21.7547816 -0.695785E-09  0.189E-04    3.90     153.0  T
     SCC iter.                  ...        0 min,  0.092 sec
     gradient                   ...        0 min,  0.001 sec
 * total energy  :   -21.5789865 Eh     change       -0.5226630E-04 Eh
   gradient norm :     0.0022436 Eh/α   predicted    -0.3659088E-04 ( -29.99%)
   displ. norm   :     0.2439035 α      lambda       -0.8489481E-04
   maximum displ.:     0.1468957 α      in ANC's #3, #2, #4, ...

........................................................................
.............................. CYCLE   31 ..............................
........................................................................
   1    -21.7532348 -0.217532E+02  0.200E-01    3.89       0.0  T
   2    -21.7532368 -0.197372E-05  0.120E-01    3.90       1.0  T
   3    -21.7532377 -0.916017E-06  0.747E-03    3.89       3.9  T
   4    -21.7532378 -0.168858E-06  0.446E-03    3.90       6.5  T
   5    -21.7532379 -0.157655E-07  0.197E-03    3.89      14.6  T
   6    -21.7532379 -0.127202E-07  0.324E-04    3.89      89.0  T
   7    -21.7532379 -0.198199E-09  0.125E-04    3.89     230.8  T
     SCC iter.                  ...        0 min,  0.003 sec
     gradient                   ...        0 min,  0.001 sec
 * total energy  :   -21.5789984 Eh     change       -0.1188258E-04 Eh
   gradient norm :     0.0058793 Eh/α   predicted    -0.4497138E-04 ( 278.46%)
   displ. norm   :     0.0818214 α      lambda       -0.7334573E-04
   maximum displ.:     0.0484464 α      in ANC's #2, #3, #4, ...

........................................................................
.............................. CYCLE   32 ..............................
........................................................................
   1    -21.7550622 -0.217551E+02  0.676E-02    3.90       0.0  T
   2    -21.7550629 -0.664152E-06  0.403E-02    3.90       1.0  T
   3    -21.7550630 -0.730473E-07  0.427E-03    3.90       6.8  T
   4    -21.7550630 -0.599289E-07  0.163E-03    3.90      17.7  T
   5    -21.7550630 -0.405419E-08  0.989E-04    3.90      29.2  T
     SCC iter.                  ...        0 min,  0.001 sec
     gradient                   ...        0 min,  0.091 sec
 * total energy  :   -21.5790322 Eh     change       -0.3383334E-04 Eh
   gradient norm :     0.0015349 Eh/α   predicted    -0.3691866E-04 (   9.12%)
   displ. norm   :     0.0756959 α      lambda       -0.1160394E-04
   maximum displ.:     0.0517780 α      in ANC's #3, #4, #2, ...

........................................................................
.............................. CYCLE   33 ..............................
........................................................................
   1    -21.7553197 -0.217553E+02  0.627E-02    3.90       0.0  T
   2    -21.7553199 -0.184098E-06  0.378E-02    3.90       1.0  T
   3    -21.7553201 -0.119029E-06  0.209E-03    3.90      13.8  T
   4    -21.7553201 -0.345841E-08  0.127E-03    3.90      22.8  T
   5    -21.7553201 -0.100148E-08  0.314E-04    3.90      91.8  T
   6    -21.7553201 -0.691770E-09  0.903E-05    3.90     319.7  T
     SCC iter.                  ...        0 min,  0.001 sec
     gradient                   ...        0 min,  0.001 sec
 * total energy  :   -21.5790448 Eh     change       -0.1264118E-04 Eh
   gradient norm :     0.0009920 Eh/α   predicted    -0.5816206E-05 ( -53.99%)
   displ. norm   :     0.0785583 α      lambda       -0.6986652E-05
   maximum displ.:     0.0556853 α      in ANC's #3, #4, #2, ...

........................................................................
.............................. CYCLE   34 ..............................
........................................................................
   1    -21.7553181 -0.217553E+02  0.640E-02    3.90       0.0  T
   2    -21.7553183 -0.215467E-06  0.386E-02    3.90       1.0  T
   3    -21.7553184 -0.134877E-06  0.238E-03    3.90      12.2  T
   4    -21.7553184 -0.565661E-08  0.140E-03    3.90      20.6  T
   5    -21.7553184 -0.244626E-08  0.433E-04    3.90      66.7  T
   6    -21.7553184 -0.814524E-09  0.130E-04    3.90     221.8  T
     SCC iter.                  ...        0 min,  0.001 sec
     gradient                   ...        0 min,  0.001 sec
 * total energy  :   -21.5790506 Eh     change       -0.5757755E-05 Eh
   gradient norm :     0.0008146 Eh/α   predicted    -0.3501911E-05 ( -39.18%)
   displ. norm   :     0.0168084 α      lambda       -0.1709753E-05
   maximum displ.:     0.0126776 α      in ANC's #3, #7, #4, ...

........................................................................
.............................. CYCLE   35 ..............................
........................................................................
   1    -21.7555559 -0.217556E+02  0.163E-02    3.90       0.0  T
   2    -21.7555559 -0.385301E-07  0.101E-02    3.90       2.9  T
   3    -21.7555560 -0.205796E-07  0.938E-04    3.90      30.8  T
   4    -21.7555560 -0.100336E-08  0.537E-04    3.90      53.7  T
     SCC iter.                  ...        0 min,  0.001 sec
     gradient                   ...        0 min,  0.001 sec
 * total energy  :   -21.5790517 Eh     change       -0.1121973E-05 Eh
   gradient norm :     0.0003828 Eh/α   predicted    -0.8533803E-06 ( -23.94%)
   displ. norm   :     0.0072411 α      lambda       -0.3942577E-06
   maximum displ.:     0.0042528 α      in ANC's #3, #2, #1, ...

   *** GEOMETRY OPTIMIZATION CONVERGED AFTER 35 ITERATIONS ***

------------------------------------------------------------------------
 total energy gain   :        -0.0166783 Eh      -10.4658 kcal/mol
 total RMSD          :         1.1505945 a0        0.6089 Å
 total power (kW/mol):        -1.2511119 (step)  -21.8952 (real)
------------------------------------------------------------------------

 ANCopt (total)                0 d,  0 h,  0 min,  2.000 sec
 optimizer setup                ...        0 min,  0.000 sec (  0.015%)
 model hessian                  ...        0 min,  0.007 sec (  0.355%)
 ANC generation                 ...        0 min,  0.001 sec (  0.032%)
 coordinate transformation      ...        0 min,  0.001 sec (  0.071%)
 single point calculation       ...        0 min,  1.975 sec ( 98.741%)
 optimization log               ...        0 min,  0.003 sec (  0.145%)
 hessian update                 ...        0 min,  0.004 sec (  0.219%)
 rational function              ...        0 min,  0.003 sec (  0.129%)

================
 final structure:
================
12
 xtb: 6.2.3 (830e466)
C         1.81100647813897    1.33185211022045   -2.31880124404095
C         0.18775825329623    0.09496085149831   -0.77918380122026
C         1.57270974521594    0.18058418578576   -1.33775409962900
O         0.78101037637560    2.27909124038239   -2.40983245164783
O         0.72110301154180    3.06155124854418   -1.22059854651502
O         2.46597168350429   -0.58066429391765   -1.07136197714812
H         0.65938468158932    3.96705534549569   -1.55322109966920
H         2.77253128892481    1.80651458018382   -2.08265995590174
H         1.87004495630854    0.91509051160517   -3.32942936878053
H         0.06996214581417   -0.81227056078709   -0.19443688890368
H        -0.53759504181770    0.12934052351436   -1.58893054429164
H         0.01512242110802    0.96648425747453   -0.14960002225193
 
 Bond Distances (Angstroems)
 ---------------------------
C1-C3=1.5312         C1-O4=1.4023         C1-H8=1.0980         C1-H9=1.0948         C2-C3=1.4958         C2-H10=1.0858        
C2-H11=1.0877        C2-H12=1.0889        C3-C1=1.5312         C3-C2=1.4958         C3-O6=1.2035         O4-C1=1.4023         
O4-O5=1.4248         O5-O4=1.4248         O5-H7=0.9666         O6-C3=1.2035         H7-O5=0.9666         H8-C1=1.0980         
H9-C1=1.0948         H10-C2=1.0858        H11-C2=1.0877        H12-C2=1.0889        
 C  H  Rav=1.0910 sigma=0.0046  Rmin=1.0858  Rmax=1.0980     5
 C  C  Rav=1.5135 sigma=0.0177  Rmin=1.4958  Rmax=1.5312     2
 O  H  Rav=0.9666 sigma=0.0000  Rmin=0.9666  Rmax=0.9666     1
 O  C  Rav=1.3029 sigma=0.0994  Rmin=1.2035  Rmax=1.4023     2
 O  O  Rav=1.4248 sigma=0.0000  Rmin=1.4248  Rmax=1.4248     1
 
 selected bond angles (degree)
 --------------------
O4-C1-C3=115.80                H8-C1-C3=108.88                H8-C1-O4=111.42                H9-C1-C3=108.28                
H9-C1-O4=103.70                H9-C1-H8=108.41                H10-C2-C3=110.45               H11-C2-C3=109.73               
H11-C2-H10=110.79              H12-C2-C3=108.47               H12-C2-H10=109.89              H12-C2-H11=107.42              
C2-C3-C1=115.24                O6-C3-C1=120.12                O6-C3-C2=124.64                O5-O4-C1=110.34                
H7-O5-O4=103.29                
 
 selected dihedral angles (degree)
 ---------------------------------
C2-C3-C1-O4=  9.72            C2-C3-C1-H8=136.16            C2-C3-C1-H9=253.83            O6-C3-C1-O4=189.34            
O6-C3-C1-H8=315.78            O6-C3-C1-H9= 73.45            C1-C3-C2-H10=172.99           C1-C3-C2-H11= 50.56           
C1-C3-C2-H12=293.48           O6-C3-C2-H10=353.39           O6-C3-C2-H11=230.95           O6-C3-C2-H12=113.87           
O5-O4-C1-C3= 70.65            O5-O4-C1-H8=305.51            O5-O4-C1-H9=189.10            H7-O5-O4-C1=132.98            
           -------------------------------------------------
          |                Final Singlepoint                |
           -------------------------------------------------

          ...................................................
          :                      SETUP                      :
          :.................................................:
          :  # basis functions                  30          :
          :  # atomic orbitals                  30          :
          :  # shells                           18          :
          :  # electrons                        36          :
          :  max. iterations                   100          :
          :  Hamiltonian                  GFN2-xTB          :
          :  restarted?                      false          :
          :  GBSA solvation                  false          :
          :  PC potential                    false          :
          :  electronic temp.          300.0000000     K    :
          :  accuracy                    1.0000000          :
          :  -> integral cutoff          0.2500000E+02      :
          :  -> integral neglect         0.1000000E-07      :
          :  -> SCF convergence          0.1000000E-05 Eh   :
          :  -> wf. convergence          0.1000000E-03 e    :
          :  Broyden damping             0.4000000          :
          ...................................................

 iter      E             dE          RMSdq      gap      omega  full diag
   1    -21.7555560 -0.217556E+02  0.146E-04    3.90       0.0  T
   2    -21.7555560 -0.873221E-10  0.802E-05    3.90     359.8  T
   3    -21.7555560 -0.302194E-10  0.522E-05    3.90     552.6  T

   *** convergence criteria satisfied after 3 iterations ***

         #    Occupation            Energy/Eh            Energy/eV
      -------------------------------------------------------------
         1        2.0000           -0.7397844             -20.1306
       ...           ...                  ...                  ...
        12        2.0000           -0.5207192             -14.1695
        13        2.0000           -0.4967585             -13.5175
        14        2.0000           -0.4896585             -13.3243
        15        2.0000           -0.4764764             -12.9656
        16        2.0000           -0.4741140             -12.9013
        17        2.0000           -0.4448894             -12.1061
        18        2.0000           -0.3999042             -10.8819 (HOMO)
        19                         -0.2565332              -6.9806 (LUMO)
        20                         -0.1633361              -4.4446
        21                          0.0558782               1.5205
        22                          0.0678900               1.8474
        23                          0.1179931               3.2108
       ...                                ...                  ...
        30                          0.6273307              17.0705
      -------------------------------------------------------------
                  HL-Gap            0.1433710 Eh            3.9013 eV
             Fermi-level           -0.3282187 Eh           -8.9313 eV

 SCC (total)                   0 d,  0 h,  0 min,  0.004 sec
 SCC setup                      ...        0 min,  0.000 sec (  6.333%)
 Dispersion                     ...        0 min,  0.000 sec (  1.181%)
 integral evaluation            ...        0 min,  0.000 sec ( 13.196%)
 zeroth order Hamiltonian       ...        0 min,  0.000 sec (  2.026%)
 iterations                     ...        0 min,  0.001 sec ( 37.260%)
 molecular gradient             ...        0 min,  0.001 sec ( 27.774%)
 printout                       ...        0 min,  0.000 sec (  6.326%)

         :::::::::::::::::::::::::::::::::::::::::::::::::::::
         ::                     SUMMARY                     ::
         :::::::::::::::::::::::::::::::::::::::::::::::::::::
         :: total energy             -21.579051728032 Eh    ::
         :: gradient norm              0.000385006140 Eh/a0 ::
         :: HOMO-LUMO gap              3.901323736280 eV    ::
         ::.................................................::
         :: SCC energy               -21.755555963526 Eh    ::
         :: -> isotropic ES            0.050812549060 Eh    ::
         :: -> anisotropic ES         -0.004339252270 Eh    ::
         :: -> anisotropic XC         -0.004467027394 Eh    ::
         :: -> dispersion             -0.005962102825 Eh    ::
         :: repulsion energy           0.176496519976 Eh    ::
         :: add. restraining           0.000000000000 Eh    ::
         :::::::::::::::::::::::::::::::::::::::::::::::::::::

           -------------------------------------------------
          |                Property Printout                |
           -------------------------------------------------

    * Orbital Energies and Occupations

         #    Occupation            Energy/Eh            Energy/eV
      -------------------------------------------------------------
         1        2.0000           -0.7397844             -20.1306
       ...           ...                  ...                  ...
         6        2.0000           -0.6239134             -16.9775
         7        2.0000           -0.6049788             -16.4623
         8        2.0000           -0.5910669             -16.0838
         9        2.0000           -0.5651708             -15.3791
        10        2.0000           -0.5497606             -14.9597
        11        2.0000           -0.5414875             -14.7346
        12        2.0000           -0.5207192             -14.1695
        13        2.0000           -0.4967585             -13.5175
        14        2.0000           -0.4896585             -13.3243
        15        2.0000           -0.4764764             -12.9656
        16        2.0000           -0.4741140             -12.9013
        17        2.0000           -0.4448894             -12.1061
        18        2.0000           -0.3999042             -10.8819 (HOMO)
        19                         -0.2565332              -6.9806 (LUMO)
        20                         -0.1633361              -4.4446
        21                          0.0558782               1.5205
        22                          0.0678900               1.8474
        23                          0.1179931               3.2108
        24                          0.1496015               4.0709
        25                          0.1689544               4.5975
        26                          0.1814052               4.9363
        27                          0.1910987               5.2001
        28                          0.2207566               6.0071
        29                          0.2614594               7.1147
        30                          0.6273307              17.0705
      -------------------------------------------------------------
                  HL-Gap            0.1433710 Eh            3.9013 eV
             Fermi-level           -0.3282187 Eh           -8.9313 eV

     #   Z        covCN         q      C6AA      α(0)
     1   6 C      3.677     0.053    19.899     6.391
     2   6 C      3.754    -0.139    23.226     6.872
     3   6 C      2.807     0.237    23.043     7.864
     4   8 O      1.779    -0.202    17.357     5.626
     5   8 O      1.735    -0.323    19.398     5.947
     6   8 O      0.857    -0.353    20.763     6.109
     7   1 H      0.805     0.320     0.664     1.280
     8   1 H      0.923     0.071     2.070     2.250
     9   1 H      0.924     0.089     1.887     2.148
    10   1 H      0.925     0.069     2.096     2.264
    11   1 H      0.925     0.079     1.985     2.203
    12   1 H      0.925     0.098     1.806     2.101

 Mol. C6AA /au·bohr⁶  :       1219.572775
 Mol. C8AA /au·bohr⁸  :      26059.482508
 Mol. α(0) /au        :         51.055046


Wiberg/Mayer (AO) data.
largest (>0.10) Wiberg bond orders for each atom
          total WBO             WBO to atom ...
     1  C   3.940        O    4 0.998    C    3 0.959    H    8 0.951    H    9 0.931
     2  C   3.992        C    3 1.023    H   10 0.982    H   11 0.958    H   12 0.943
     3  C   3.920        O    6 1.867    C    2 1.023    C    1 0.959
     4  O   2.026        C    1 0.998    O    5 0.972
     5  O   1.911        O    4 0.972    H    7 0.891
     6  O   2.079        C    3 1.867
     7  H   0.898        O    5 0.891
     8  H   0.995        C    1 0.951
     9  H   0.992        C    1 0.931
    10  H   0.995        C    2 0.982
    11  H   0.994        C    2 0.958
    12  H   0.990        C    2 0.943

molecular dipole:
                 x           y           z       tot (Debye)
 q only:       -0.527       0.724      -0.320
   full:       -0.552       1.008      -0.469       3.156
molecular quadrupole (traceless):
                xx          xy          yy          xz          yz          zz
 q only:       -6.318       5.164       4.611      -1.785      -3.444       1.707
  q+dip:       -8.113       7.945       6.361      -2.425      -5.728       1.753
   full:       -8.774       7.657       6.524      -2.251      -4.804       2.251

           -------------------------------------------------
          |                Geometry Summary                 |
           -------------------------------------------------

      molecular mass/u    :       90.0780670
   center of mass at/Å    :        1.2352729       1.1377955      -1.5261353
  moments of inertia/u·Å² :        0.7627650E+02   0.2073931E+03   0.2443096E+03
rotational constants/cm⁻¹ :        0.2210069E+00   0.8128348E-01   0.6900112E-01

 * 9 selected distances

     #   Z        #   Z                                     value/Å
     1   6 C      4   8 O                                 1.4022983
     4   8 O      5   8 O                                 1.4248192 (max)
     3   6 C      6   8 O                                 1.2034870
     5   8 O      7   1 H                                 0.9666357 (min)
     1   6 C      8   1 H                                 1.0979969
     1   6 C      9   1 H                                 1.0947808
     2   6 C     10   1 H                                 1.0857595
     2   6 C     11   1 H                                 1.0876622
     2   6 C     12   1 H                                 1.0889132

 * 4 distinct bonds (by element types)

   Z      Z             #   av. dist./Å        max./Å        min./Å
   1 H    6 C           5     1.0910225     1.0979969     1.0857595
   1 H    8 O           1     0.9666357     0.9666357     0.9666357
   6 C    8 O           2     1.3028927     1.4022983     1.2034870
   8 O    8 O           1     1.4248192     1.4248192     1.4248192


optimized geometry written to: xtbopt.xyz


           -------------------------------------------------
          | TOTAL ENERGY              -21.579051728032 Eh   |
          | GRADIENT NORM               0.000385006140 Eh/α |
          | HOMO-LUMO GAP               3.901323736280 eV   |
           -------------------------------------------------

------------------------------------------------------------------------
 * finished run on 2020/12/23 at 21:42:51.166     
------------------------------------------------------------------------
 total:
 * wall-time:     0 d,  0 h,  0 min,  2.470 sec
 *  cpu-time:     0 d,  0 h,  0 min, 10.213 sec
 * ratio c/w:     4.135 speedup
 SCF:
 * wall-time:     0 d,  0 h,  0 min,  0.187 sec
 *  cpu-time:     0 d,  0 h,  0 min,  0.538 sec
 * ratio c/w:     2.872 speedup
 ANC optimizer:
 * wall-time:     0 d,  0 h,  0 min,  2.007 sec
 *  cpu-time:     0 d,  0 h,  0 min,  8.207 sec
 * ratio c/w:     4.089 speedup

