      -----------------------------------------------------------      
     |                   =====================                   |     
     |                           x T B                           |     
     |                   =====================                   |     
     |                         S. Grimme                         |     
     |          Mulliken Center for Theoretical Chemistry        |     
     |                    University of Bonn                     |     
      -----------------------------------------------------------      

   * xtb version 6.2.3 (830e466) compiled by 'ehlert@majestix' on 2020-03-16

   xtb is free software: you can redistribute it and/or modify it under
   the terms of the GNU Lesser General Public License as published by
   the Free Software Foundation, either version 3 of the License, or
   (at your option) any later version.
   
   xtb is distributed in the hope that it will be useful,
   but WITHOUT ANY WARRANTY; without even the implied warranty of
   MERCHANTABILITY or FITNESS FOR A PARTICULAR PURPOSE.  See the
   GNU Lesser General Public License for more details.
   
   Cite this work as:
   * S. Grimme, C. Bannwarth, P. Shushkov, J. Chem. Theory Comput., 2017,
     13, 1989-2009. DOI: 10.1021/acs.jctc.7b00118
   * C. Bannwarth, S. Ehlert and S. Grimme., J. Chem. Theory Comput., 2019,
     15, 1652-1671. DOI: 10.1021/acs.jctc.8b01176
   * P. Pracht, E. Caldeweyher, S. Ehlert, S. Grimme, ChemRxiv, 2019, preprint.
     DOI: 10.26434/chemrxiv.8326202.v1
   
   for DFT-D4:
   * E. Caldeweyher, C. Bannwarth and S. Grimme, J. Chem. Phys., 2017,
     147, 034112. DOI: 10.1063/1.4993215
   * E. Caldeweyher, S. Ehlert, A. Hansen, H. Neugebauer, S. Spicher,
     C. Bannwarth and S. Grimme, J. Chem. Phys., 2019, 150, 154122.
     DOI: 10.1063/1.5090222
   
   for sTDA-xTB:
   * S. Grimme and C. Bannwarth, J. Chem. Phys., 2016, 145, 054103.
     DOI: 10.1063/1.4959605
   
   in the mass-spec context:
   * V. Asgeirsson, C. Bauer and S. Grimme, Chem. Sci., 2017, 8, 4879.
     DOI: 10.1039/c7sc00601b
   
   for metadynamics refer to:
   * S. Grimme, J. Chem. Theory Comput., 2019, 155, 2847-2862
     DOI: 10.1021/acs.jctc.9b00143
   
   with help from (in alphabetical order)
   C. Bannwarth, F. Bohle, G. Brandenburg, E. Caldeweyher, M. Checinski,
   S. Dohm, S. Ehlert, S. Ehrlich, F. März, H. Neugebauer, J. Pisarek,
   P. Pracht, P. Shushkov, and S. Spicher.
   
 * started run on 2020/12/23 at 21:42:12.051     

           -------------------------------------------------
          |                Calculation Setup                |
           -------------------------------------------------

          program call               : xtb -c 0 -u 0 -a 1.0 --iterations 100 --opt normal --namespace product_20 /scratch/bell/zhao922/YARP/paper-example/potential_product/test/reaction_channel/pp_0/pp_21_0.xyz
          hostname                   : bell-fe05.rcac.purdue.edu
          calculation namespace      : product_20
          coordinate file            : /scratch/bell/zhao922/YARP/paper-example/potential_product/test/reaction_channel/pp_0/pp_21_0.xyz
          omp threads                :                    32
          number of atoms            :                    12
          number of electrons        :                    36
          charge                     :                     0
          spin                       :                   0.0
          first test random number   :      0.38072976579984

           ------------------------------------------------- 
          |                 G F N 2 - x T B                 |
          | Geometry, Frequencies, Noncovalent interactions |
          |            JCTC 2019 parametrisation            |
           ------------------------------------------------- 
             k(s)              :                1.8500
             k(p)              :                2.2300
             k(d)              :                2.2300
             k(f)              :                2.0000
             kEN (H0ij)        :               -2.0000
             D4 a1             :                0.5200
             D4 a2             :                5.0000
             D4 s6             :                1.0000
             D4 s8             :                2.7000
             D4 s9             :                5.0000
             alphaj            :                2.0000

  Z AO/shell   Hii/eV     exponent
  1     Wed Apr 25 08:07:45 CEST 2018   EN: 2.200 GM2: 0.406  GM3: 0.0800  RAES: 1.40
     1s    -10.707211    1.230000
  6     Wed Apr 25 08:07:45 CEST 2018   EN: 2.550 GM2: 0.538  GM3: 0.1500  RAES: 3.00
     2s    -13.970922    2.096432
     2p    -10.063292    1.800000
  8     Wed Apr 25 08:07:45 CEST 2018   EN: 3.440 GM2: 0.452  GM3:-0.0517  RAES: 1.80
     2s    -20.229985    2.439742
     2p    -15.503117    2.137023

           ------------------------------------------------- 
          |        Self-Consistent Charge Iterations        |
           ------------------------------------------------- 

          ...................................................
          :                      SETUP                      :
          :.................................................:
          :  # basis functions                  30          :
          :  # atomic orbitals                  30          :
          :  # shells                           18          :
          :  # electrons                        36          :
          :  max. iterations                   100          :
          :  Hamiltonian                  GFN2-xTB          :
          :  restarted?                      false          :
          :  GBSA solvation                  false          :
          :  PC potential                    false          :
          :  electronic temp.          300.0000000     K    :
          :  accuracy                    1.0000000          :
          :  -> integral cutoff          0.2500000E+02      :
          :  -> integral neglect         0.1000000E-07      :
          :  -> SCF convergence          0.1000000E-05 Eh   :
          :  -> wf. convergence          0.1000000E-03 e    :
          :  Broyden damping             0.4000000          :
          ...................................................

 iter      E             dE          RMSdq      gap      omega  full diag
   1    -21.7355630 -0.217356E+02  0.517E+00    4.12       0.0  T
   2    -21.7724107 -0.368476E-01  0.257E+00    3.26       1.0  T
   3    -21.7734343 -0.102369E-02  0.169E+00    3.68       1.0  T
   4    -21.7811007 -0.766640E-02  0.229E-01    3.39       1.0  T
   5    -21.7812103 -0.109544E-03  0.915E-02    3.47       1.0  T
   6    -21.7812266 -0.163249E-04  0.343E-02    3.47       1.0  T
   7    -21.7812271 -0.434954E-06  0.838E-03    3.46       3.4  T
   8    -21.7812274 -0.388022E-06  0.272E-03    3.46      10.6  T
   9    -21.7812274 -0.534086E-08  0.108E-03    3.46      26.6  T
  10    -21.7812275 -0.499155E-08  0.393E-04    3.46      73.4  T
  11    -21.7812275 -0.976549E-09  0.901E-05    3.46     320.2  T

   *** convergence criteria satisfied after 11 iterations ***

         #    Occupation            Energy/Eh            Energy/eV
      -------------------------------------------------------------
         1        2.0000           -0.7238221             -19.6962
       ...           ...                  ...                  ...
        12        2.0000           -0.5316526             -14.4670
        13        2.0000           -0.5281315             -14.3712
        14        2.0000           -0.4913798             -13.3711
        15        2.0000           -0.4752745             -12.9329
        16        2.0000           -0.4624446             -12.5838
        17        2.0000           -0.4281126             -11.6495
        18        2.0000           -0.4110763             -11.1860 (HOMO)
        19                         -0.2838341              -7.7235 (LUMO)
        20                         -0.0005287              -0.0144
        21                          0.0194460               0.5292
        22                          0.0673375               1.8323
        23                          0.0843019               2.2940
       ...                                ...                  ...
        30                          0.5239994              14.2587
      -------------------------------------------------------------
                  HL-Gap            0.1272422 Eh            3.4624 eV
             Fermi-level           -0.3474552 Eh           -9.4547 eV

 SCC (total)                   0 d,  0 h,  0 min,  0.096 sec
 SCC setup                      ...        0 min,  0.000 sec (  0.183%)
 Dispersion                     ...        0 min,  0.000 sec (  0.066%)
 integral evaluation            ...        0 min,  0.001 sec (  1.381%)
 zeroth order Hamiltonian       ...        0 min,  0.000 sec (  0.081%)
 iterations                     ...        0 min,  0.006 sec (  6.506%)
 molecular gradient             ...        0 min,  0.087 sec ( 91.218%)
 printout                       ...        0 min,  0.000 sec (  0.363%)

         :::::::::::::::::::::::::::::::::::::::::::::::::::::
         ::                     SUMMARY                     ::
         :::::::::::::::::::::::::::::::::::::::::::::::::::::
         :: total energy             -21.619898717116 Eh    ::
         :: gradient norm              0.085663277970 Eh/a0 ::
         :: HOMO-LUMO gap              3.462436639900 eV    ::
         ::.................................................::
         :: SCC energy               -21.781227452432 Eh    ::
         :: -> isotropic ES            0.065797792990 Eh    ::
         :: -> anisotropic ES          0.006062255114 Eh    ::
         :: -> anisotropic XC         -0.001293676452 Eh    ::
         :: -> dispersion             -0.006051158347 Eh    ::
         :: repulsion energy           0.161322917538 Eh    ::
         :: add. restraining           0.000000000000 Eh    ::
         :::::::::::::::::::::::::::::::::::::::::::::::::::::

      ----------------------------------------------------------- 
     |                   =====================                   |
     |                        A N C O P T                        |
     |                   =====================                   |
     |               Approximate Normal Coordinate               |
     |                Rational Function Optimizer                |
      ----------------------------------------------------------- 

          ...................................................
          :                      SETUP                      :
          :.................................................:
          :   optimization level            normal          :
          :   max. optcycles                   200          :
          :   ANC micro-cycles                  20          :
          :   degrees of freedom                30          :
          :.................................................:
          :   RF solver                   davidson          :
          :   write xtbopt.log                true          :
          :   linear?                        false          :
          :   energy convergence         0.5000000E-05 Eh   :
          :   grad. convergence          0.1000000E-02 Eh/α :
          :   maximium RF displ.         1.0000000          :
          :   Hlow (freq-cutoff)         0.1000000E-01      :
          :   Hmax (freq-cutoff)         5.0000000          :
          :   S6 in model hess.         20.0000000          :
          ...................................................

generating ANC from model Hessian ...
Using Lindh-Hessian (1995)
 Shifting diagonal of input Hessian by   4.073971973255317E-003
 Lowest  eigenvalues of input Hessian
   -0.000000   -0.000000    0.000000    0.000000    0.000000    0.000000
    0.010000    0.013605    0.016306    0.021369    0.023757    0.038888
    0.052582    0.059355    0.067393    0.072882    0.085441    0.094527
 Highest eigenvalues
    1.185237    1.201810    1.297152    1.465610    1.528533    2.100904
 

........................................................................
.............................. CYCLE    1 ..............................
........................................................................
   1    -21.7812275 -0.217812E+02  0.238E-05    3.46       0.0  T
   2    -21.7812275 -0.260769E-11  0.147E-05    3.46    1965.5  T
   3    -21.7812275 -0.124345E-11  0.683E-06    3.46    4228.8  T
     SCC iter.                  ...        0 min,  0.001 sec
     gradient                   ...        0 min,  0.001 sec
 * total energy  :   -21.6198987 Eh     change        0.1496037E-08 Eh
   gradient norm :     0.0856645 Eh/α   predicted     0.0000000E+00 (-100.00%)
   displ. norm   :     0.2153816 α      lambda       -0.7524148E-02
   maximum displ.:     0.0993560 α      in ANC's #8, #11, #5, ...

........................................................................
.............................. CYCLE    2 ..............................
........................................................................
   1    -21.7970748 -0.217971E+02  0.327E-01    3.67       0.0  T
   2    -21.7972145 -0.139663E-03  0.196E-01    3.63       1.0  T
   3    -21.7972236 -0.905870E-05  0.682E-02    3.62       1.0  T
   4    -21.7972300 -0.648958E-05  0.190E-02    3.61       1.5  T
   5    -21.7972310 -0.974088E-06  0.741E-03    3.62       3.9  T
   6    -21.7972312 -0.162942E-06  0.408E-03    3.62       7.1  T
   7    -21.7972312 -0.225909E-07  0.884E-04    3.62      32.7  T
     SCC iter.                  ...        0 min,  0.085 sec
     gradient                   ...        0 min,  0.001 sec
 * total energy  :   -21.6251907 Eh     change       -0.5291943E-02 Eh
   gradient norm :     0.0346799 Eh/α   predicted    -0.3936593E-02 ( -25.61%)
   displ. norm   :     0.2526703 α      lambda       -0.3088265E-02
   maximum displ.:     0.1265379 α      in ANC's #1, #4, #8, ...

........................................................................
.............................. CYCLE    3 ..............................
........................................................................
   1    -21.8043398 -0.218043E+02  0.372E-01    3.76       0.0  T
   2    -21.8044221 -0.822630E-04  0.227E-01    3.73       1.0  T
   3    -21.8044270 -0.494637E-05  0.488E-02    3.72       1.0  T
   4    -21.8044319 -0.490981E-05  0.129E-02    3.72       2.2  T
   5    -21.8044325 -0.538110E-06  0.423E-03    3.72       6.8  T
   6    -21.8044325 -0.112993E-07  0.205E-03    3.72      14.1  T
     SCC iter.                  ...        0 min,  0.002 sec
     gradient                   ...        0 min,  0.001 sec
 * total energy  :   -21.6270543 Eh     change       -0.1863647E-02 Eh
   gradient norm :     0.0144859 Eh/α   predicted    -0.1642707E-02 ( -11.86%)
   displ. norm   :     0.2252772 α      lambda       -0.9786276E-03
   maximum displ.:     0.1355387 α      in ANC's #4, #3, #1, ...

........................................................................
.............................. CYCLE    4 ..............................
........................................................................
   1    -21.8034675 -0.218035E+02  0.311E-01    3.77       0.0  T
   2    -21.8034816 -0.140693E-04  0.193E-01    3.76       1.0  T
   3    -21.8034854 -0.378045E-05  0.169E-02    3.76       1.7  T
   4    -21.8034864 -0.980533E-06  0.776E-03    3.76       3.7  T
   5    -21.8034864 -0.827018E-07  0.356E-03    3.76       8.1  T
   6    -21.8034865 -0.198469E-07  0.154E-03    3.76      18.7  T
   7    -21.8034865 -0.496669E-08  0.303E-04    3.76      95.2  T
     SCC iter.                  ...        0 min,  0.002 sec
     gradient                   ...        0 min,  0.001 sec
 * total energy  :   -21.6275036 Eh     change       -0.4492581E-03 Eh
   gradient norm :     0.0240599 Eh/α   predicted    -0.5141501E-03 (  14.44%)
   displ. norm   :     0.1512715 α      lambda       -0.7626038E-03
   maximum displ.:     0.0925967 α      in ANC's #1, #4, #2, ...

........................................................................
.............................. CYCLE    5 ..............................
........................................................................
   1    -21.8038117 -0.218038E+02  0.190E-01    3.76       0.0  T
   2    -21.8038163 -0.452080E-05  0.117E-01    3.76       1.0  T
   3    -21.8038180 -0.174019E-05  0.108E-02    3.76       2.7  T
   4    -21.8038184 -0.365393E-06  0.563E-03    3.76       5.1  T
   5    -21.8038184 -0.430919E-07  0.212E-03    3.76      13.6  T
     SCC iter.                  ...        0 min,  0.002 sec
     gradient                   ...        0 min,  0.086 sec
 * total energy  :   -21.6280371 Eh     change       -0.5334929E-03 Eh
   gradient norm :     0.0140201 Eh/α   predicted    -0.3900262E-03 ( -26.89%)
   displ. norm   :     0.1753084 α      lambda       -0.5793318E-03
   maximum displ.:     0.0967917 α      in ANC's #1, #4, #2, ...

........................................................................
.............................. CYCLE    6 ..............................
........................................................................
   1    -21.8050111 -0.218050E+02  0.228E-01    3.77       0.0  T
   2    -21.8050168 -0.573497E-05  0.140E-01    3.77       1.0  T
   3    -21.8050189 -0.213138E-05  0.123E-02    3.77       2.4  T
   4    -21.8050195 -0.569669E-06  0.652E-03    3.77       4.4  T
   5    -21.8050195 -0.564812E-07  0.259E-03    3.77      11.1  T
   6    -21.8050196 -0.134232E-07  0.950E-04    3.77      30.4  T
     SCC iter.                  ...        0 min,  0.002 sec
     gradient                   ...        0 min,  0.001 sec
 * total energy  :   -21.6284642 Eh     change       -0.4271181E-03 Eh
   gradient norm :     0.0091989 Eh/α   predicted    -0.2985690E-03 ( -30.10%)
   displ. norm   :     0.1779446 α      lambda       -0.4494887E-03
   maximum displ.:     0.0918087 α      in ANC's #4, #1, #2, ...

........................................................................
.............................. CYCLE    7 ..............................
........................................................................
   1    -21.8058472 -0.218058E+02  0.257E-01    3.75       0.0  T
   2    -21.8058529 -0.577872E-05  0.159E-01    3.76       1.0  T
   3    -21.8058556 -0.267739E-05  0.105E-02    3.76       2.7  T
   4    -21.8058558 -0.205321E-06  0.548E-03    3.76       5.3  T
   5    -21.8058559 -0.325826E-07  0.200E-03    3.76      14.4  T
   6    -21.8058559 -0.435833E-08  0.708E-04    3.76      40.8  T
     SCC iter.                  ...        0 min,  0.002 sec
     gradient                   ...        0 min,  0.001 sec
 * total energy  :   -21.6287673 Eh     change       -0.3031712E-03 Eh
   gradient norm :     0.0090316 Eh/α   predicted    -0.2318623E-03 ( -23.52%)
   displ. norm   :     0.1052828 α      lambda       -0.3766129E-03
   maximum displ.:     0.0539932 α      in ANC's #6, #25, #5, ...

........................................................................
.............................. CYCLE    8 ..............................
........................................................................
   1    -21.8098651 -0.218099E+02  0.167E-01    3.74       0.0  T
   2    -21.8098787 -0.136056E-04  0.102E-01    3.74       1.0  T
   3    -21.8098813 -0.262097E-05  0.189E-02    3.74       1.5  T
   4    -21.8098820 -0.643936E-06  0.775E-03    3.74       3.7  T
   5    -21.8098822 -0.182649E-06  0.332E-03    3.74       8.7  T
   6    -21.8098822 -0.145747E-07  0.162E-03    3.74      17.8  T
   7    -21.8098822 -0.446277E-08  0.310E-04    3.74      93.2  T
     SCC iter.                  ...        0 min,  0.002 sec
     gradient                   ...        0 min,  0.001 sec
 * total energy  :   -21.6287688 Eh     change       -0.1503257E-05 Eh
   gradient norm :     0.0175112 Eh/α   predicted    -0.1903955E-03 (*******%)
   displ. norm   :     0.1958595 α      lambda       -0.6261038E-03
   maximum displ.:     0.0986975 α      in ANC's #4, #5, #7, ...

........................................................................
.............................. CYCLE    9 ..............................
........................................................................
   1    -21.8062186 -0.218062E+02  0.336E-01    3.71       0.0  T
   2    -21.8062342 -0.156012E-04  0.207E-01    3.71       1.0  T
   3    -21.8062395 -0.529100E-05  0.200E-02    3.71       1.4  T
   4    -21.8062409 -0.143621E-05  0.983E-03    3.71       2.9  T
   5    -21.8062411 -0.200293E-06  0.393E-03    3.71       7.3  T
   6    -21.8062412 -0.187861E-07  0.158E-03    3.71      18.2  T
   7    -21.8062412 -0.591115E-08  0.305E-04    3.71      94.7  T
     SCC iter.                  ...        0 min,  0.002 sec
     gradient                   ...        0 min,  0.001 sec
 * total energy  :   -21.6289442 Eh     change       -0.1753087E-03 Eh
   gradient norm :     0.0148690 Eh/α   predicted    -0.3250604E-03 (  85.42%)
   displ. norm   :     0.1445887 α      lambda       -0.3785737E-03
   maximum displ.:     0.0742930 α      in ANC's #1, #4, #2, ...

........................................................................
.............................. CYCLE   10 ..............................
........................................................................
   1    -21.8071352 -0.218071E+02  0.207E-01    3.74       0.0  T
   2    -21.8071410 -0.588123E-05  0.128E-01    3.74       1.0  T
   3    -21.8071436 -0.253043E-05  0.110E-02    3.73       2.6  T
   4    -21.8071437 -0.156257E-06  0.411E-03    3.73       7.0  T
   5    -21.8071437 -0.129084E-07  0.203E-03    3.74      14.2  T
   6    -21.8071438 -0.904183E-08  0.438E-04    3.73      66.0  T
     SCC iter.                  ...        0 min,  0.002 sec
     gradient                   ...        0 min,  0.001 sec
 * total energy  :   -21.6290923 Eh     change       -0.1481090E-03 Eh
   gradient norm :     0.0031487 Eh/α   predicted    -0.1932452E-03 (  30.48%)
   displ. norm   :     0.0570369 α      lambda       -0.7773323E-04
   maximum displ.:     0.0310717 α      in ANC's #1, #5, #7, ...

........................................................................
.............................. CYCLE   11 ..............................
........................................................................
   1    -21.8069626 -0.218070E+02  0.899E-02    3.73       0.0  T
   2    -21.8069633 -0.734458E-06  0.557E-02    3.73       1.0  T
   3    -21.8069637 -0.390216E-06  0.389E-03    3.73       7.4  T
   4    -21.8069637 -0.275794E-07  0.211E-03    3.73      13.7  T
   5    -21.8069638 -0.102256E-07  0.832E-04    3.73      34.7  T
   6    -21.8069638 -0.676106E-09  0.267E-04    3.73     108.2  T
     SCC iter.                  ...        0 min,  0.091 sec
     gradient                   ...        0 min,  0.002 sec
 * total energy  :   -21.6291634 Eh     change       -0.7112910E-04 Eh
   gradient norm :     0.0027143 Eh/α   predicted    -0.3899372E-04 ( -45.18%)
   displ. norm   :     0.2856972 α      lambda       -0.3272015E-03
   maximum displ.:     0.1627952 α      in ANC's #1, #4, #5, ...

........................................................................
.............................. CYCLE   12 ..............................
........................................................................
   1    -21.8041346 -0.218041E+02  0.432E-01    3.66       0.0  T
   2    -21.8041532 -0.186427E-04  0.268E-01    3.67       1.0  T
   3    -21.8041627 -0.950389E-05  0.213E-02    3.67       1.4  T
   4    -21.8041639 -0.118353E-05  0.115E-02    3.67       2.5  T
   5    -21.8041642 -0.337802E-06  0.435E-03    3.67       6.6  T
   6    -21.8041643 -0.156091E-07  0.115E-03    3.67      25.1  T
   7    -21.8041643 -0.399361E-08  0.509E-04    3.67      56.7  T
   8    -21.8041643 -0.212506E-09  0.151E-04    3.67     191.7  T
     SCC iter.                  ...        0 min,  0.003 sec
     gradient                   ...        0 min,  0.001 sec
 * total energy  :   -21.6293086 Eh     change       -0.1452269E-03 Eh
   gradient norm :     0.0122945 Eh/α   predicted    -0.1769555E-03 (  21.85%)
   displ. norm   :     0.0748482 α      lambda       -0.1675967E-03
   maximum displ.:     0.0641641 α      in ANC's #1, #3, #2, ...

........................................................................
.............................. CYCLE   13 ..............................
........................................................................
   1    -21.8057817 -0.218058E+02  0.792E-02    3.68       0.0  T
   2    -21.8057833 -0.163276E-05  0.477E-02    3.68       1.0  T
   3    -21.8057837 -0.373978E-06  0.699E-03    3.68       4.1  T
   4    -21.8057838 -0.120784E-06  0.337E-03    3.68       8.6  T
   5    -21.8057839 -0.435641E-07  0.138E-03    3.68      20.9  T
   6    -21.8057839 -0.117862E-08  0.481E-04    3.68      60.1  T
     SCC iter.                  ...        0 min,  0.002 sec
     gradient                   ...        0 min,  0.001 sec
 * total energy  :   -21.6294111 Eh     change       -0.1025206E-03 Eh
   gradient norm :     0.0045533 Eh/α   predicted    -0.8426791E-04 ( -17.80%)
   displ. norm   :     0.1137161 α      lambda       -0.9207487E-04
   maximum displ.:     0.0900186 α      in ANC's #1, #3, #4, ...

........................................................................
.............................. CYCLE   14 ..............................
........................................................................
   1    -21.8062856 -0.218063E+02  0.137E-01    3.67       0.0  T
   2    -21.8062878 -0.215067E-05  0.846E-02    3.67       1.0  T
   3    -21.8062889 -0.119086E-05  0.662E-03    3.67       4.4  T
   4    -21.8062890 -0.518323E-07  0.310E-03    3.67       9.3  T
   5    -21.8062890 -0.108755E-07  0.122E-03    3.67      23.7  T
   6    -21.8062890 -0.196549E-08  0.290E-04    3.67      99.5  T
     SCC iter.                  ...        0 min,  0.002 sec
     gradient                   ...        0 min,  0.001 sec
 * total energy  :   -21.6294901 Eh     change       -0.7900204E-04 Eh
   gradient norm :     0.0030301 Eh/α   predicted    -0.4663377E-04 ( -40.97%)
   displ. norm   :     0.2546485 α      lambda       -0.1610075E-03
   maximum displ.:     0.1913001 α      in ANC's #1, #4, #3, ...

........................................................................
.............................. CYCLE   15 ..............................
........................................................................
   1    -21.8053675 -0.218054E+02  0.319E-01    3.63       0.0  T
   2    -21.8053790 -0.114710E-04  0.198E-01    3.63       1.0  T
   3    -21.8053855 -0.646236E-05  0.158E-02    3.63       1.8  T
   4    -21.8053857 -0.255341E-06  0.849E-03    3.63       3.4  T
   5    -21.8053860 -0.246973E-06  0.351E-03    3.63       8.2  T
   6    -21.8053860 -0.129033E-07  0.860E-04    3.63      33.6  T
   7    -21.8053860 -0.168450E-08  0.404E-04    3.63      71.4  T
     SCC iter.                  ...        0 min,  0.003 sec
     gradient                   ...        0 min,  0.001 sec
 * total energy  :   -21.6295913 Eh     change       -0.1011460E-03 Eh
   gradient norm :     0.0046845 Eh/α   predicted    -0.8572396E-04 ( -15.25%)
   displ. norm   :     0.0922277 α      lambda       -0.4839780E-04
   maximum displ.:     0.0811264 α      in ANC's #1, #4, #3, ...

........................................................................
.............................. CYCLE   16 ..............................
........................................................................
   1    -21.8064675 -0.218065E+02  0.934E-02    3.63       0.0  T
   2    -21.8064684 -0.933997E-06  0.574E-02    3.63       1.0  T
   3    -21.8064689 -0.484934E-06  0.481E-03    3.63       6.0  T
   4    -21.8064689 -0.236930E-07  0.247E-03    3.63      11.7  T
   5    -21.8064689 -0.184213E-07  0.106E-03    3.63      27.2  T
     SCC iter.                  ...        0 min,  0.002 sec
     gradient                   ...        0 min,  0.002 sec
 * total energy  :   -21.6296227 Eh     change       -0.3143475E-04 Eh
   gradient norm :     0.0019981 Eh/α   predicted    -0.2440574E-04 ( -22.36%)
   displ. norm   :     0.1044341 α      lambda       -0.1954387E-04
   maximum displ.:     0.0851974 α      in ANC's #1, #3, #4, ...

........................................................................
.............................. CYCLE   17 ..............................
........................................................................
   1    -21.8062483 -0.218062E+02  0.120E-01    3.61       0.0  T
   2    -21.8062504 -0.201676E-05  0.737E-02    3.61       1.0  T
   3    -21.8062512 -0.881629E-06  0.660E-03    3.61       4.4  T
   4    -21.8062513 -0.583150E-07  0.304E-03    3.61       9.5  T
   5    -21.8062513 -0.247331E-07  0.160E-03    3.61      18.0  T
   6    -21.8062513 -0.294511E-08  0.420E-04    3.61      68.7  T
   7    -21.8062513 -0.639407E-09  0.153E-04    3.61     188.5  T
     SCC iter.                  ...        0 min,  0.003 sec
     gradient                   ...        0 min,  0.091 sec
 * total energy  :   -21.6296432 Eh     change       -0.2042524E-04 Eh
   gradient norm :     0.0022189 Eh/α   predicted    -0.9820411E-05 ( -51.92%)
   displ. norm   :     0.0877184 α      lambda       -0.2143746E-04
   maximum displ.:     0.0704610 α      in ANC's #1, #6, #3, ...

........................................................................
.............................. CYCLE   18 ..............................
........................................................................
   1    -21.8065972 -0.218066E+02  0.100E-01    3.61       0.0  T
   2    -21.8065983 -0.107425E-05  0.618E-02    3.61       1.0  T
   3    -21.8065988 -0.497168E-06  0.510E-03    3.61       5.7  T
   4    -21.8065988 -0.772512E-07  0.268E-03    3.61      10.8  T
   5    -21.8065989 -0.641779E-08  0.895E-04    3.61      32.3  T
   6    -21.8065989 -0.798082E-09  0.329E-04    3.61      87.7  T
     SCC iter.                  ...        0 min,  0.003 sec
     gradient                   ...        0 min,  0.002 sec
 * total energy  :   -21.6296558 Eh     change       -0.1269441E-04 Eh
   gradient norm :     0.0015769 Eh/α   predicted    -0.1080104E-04 ( -14.91%)
   displ. norm   :     0.0575554 α      lambda       -0.6284004E-05
   maximum displ.:     0.0439979 α      in ANC's #1, #6, #3, ...

........................................................................
.............................. CYCLE   19 ..............................
........................................................................
   1    -21.8066616 -0.218067E+02  0.664E-02    3.60       0.0  T
   2    -21.8066622 -0.629609E-06  0.409E-02    3.60       1.0  T
   3    -21.8066625 -0.267624E-06  0.377E-03    3.60       7.7  T
   4    -21.8066625 -0.330242E-07  0.207E-03    3.60      14.0  T
   5    -21.8066625 -0.671184E-08  0.923E-04    3.60      31.3  T
   6    -21.8066625 -0.162140E-08  0.343E-04    3.60      84.2  T
     SCC iter.                  ...        0 min,  0.093 sec
     gradient                   ...        0 min,  0.001 sec
 * total energy  :   -21.6296598 Eh     change       -0.3999095E-05 Eh
   gradient norm :     0.0008108 Eh/α   predicted    -0.3147385E-05 ( -21.30%)
   displ. norm   :     0.0168798 α      lambda       -0.1805696E-05
   maximum displ.:     0.0082739 α      in ANC's #4, #1, #25, ...

   *** GEOMETRY OPTIMIZATION CONVERGED AFTER 19 ITERATIONS ***

------------------------------------------------------------------------
 total energy gain   :        -0.0097611 Eh       -6.1252 kcal/mol
 total RMSD          :         0.4317365 a0        0.2285 Å
 total power (kW/mol):        -1.3488336 (step)  -25.5461 (real)
------------------------------------------------------------------------

 ANCopt (total)                0 d,  0 h,  0 min,  1.003 sec
 optimizer setup                ...        0 min,  0.000 sec (  0.043%)
 model hessian                  ...        0 min,  0.006 sec (  0.565%)
 ANC generation                 ...        0 min,  0.000 sec (  0.041%)
 coordinate transformation      ...        0 min,  0.001 sec (  0.075%)
 single point calculation       ...        0 min,  0.795 sec ( 79.264%)
 optimization log               ...        0 min,  0.002 sec (  0.209%)
 hessian update                 ...        0 min,  0.193 sec ( 19.243%)
 rational function              ...        0 min,  0.002 sec (  0.168%)

================
 final structure:
================
12
 xtb: 6.2.3 (830e466)
C         0.94087247780914    1.14716059024828   -2.48234482088541
C         0.91381175004052    1.07424965393109   -0.93624926220885
C         1.89935125600924    0.01560788113809   -0.48268047961213
O         0.15898593670112    2.22044735326387   -2.93405018209025
O         1.20923046786858    2.32315888299252   -0.38298285201662
O         2.95680210394598    0.21541427958767    0.03117143346248
H         1.06543098427261    2.99700804785285   -1.06307858485485
H         1.95955957676885    1.36557631103591   -2.81230425002566
H         0.61691532326645    0.19307101253735   -2.91435256287540
H         1.53482820219190   -1.01158760913579   -0.69726832094401
H        -0.77105086894237    2.04665377496512   -2.74572516522882
H        -0.09572720993201    0.75282982158302   -0.61594495272048
 
 Bond Distances (Angstroems)
 ---------------------------
C1-C2=1.5481         C1-O4=1.4026         C1-H8=1.0928         C1-H9=1.0963         C2-C1=1.5481         C2-C3=1.5158         
C2-O5=1.3976         C2-H12=1.1068        C3-C2=1.5158         C3-O6=1.1925         C3-H10=1.1109        O4-C1=1.4026         
O4-H11=0.9647        O5-C2=1.3976         O5-H7=0.9681         O6-C3=1.1925         H7-O5=0.9681         H8-C1=1.0928         
H9-C1=1.0963         H10-C3=1.1109        H11-O4=0.9647        H12-C2=1.1068        
 C  H  Rav=1.1017 sigma=0.0074  Rmin=1.0928  Rmax=1.1109     4
 C  C  Rav=1.5319 sigma=0.0161  Rmin=1.5158  Rmax=1.5481     2
 O  H  Rav=0.9664 sigma=0.0017  Rmin=0.9647  Rmax=0.9681     2
 O  C  Rav=1.3309 sigma=0.0979  Rmin=1.1925  Rmax=1.4026     3
 
 selected bond angles (degree)
 --------------------
O4-C1-C2=110.36                H8-C1-C2=109.10                H8-C1-O4=105.63                H9-C1-C2=110.33                
H9-C1-O4=111.98                H9-C1-H8=109.29                C3-C2-C1=108.69                O5-C2-C1=110.46                
O5-C2-C3=111.61                H12-C2-C1=108.58               H12-C2-C3=107.67               H12-C2-O5=109.74               
O6-C3-C2=126.05                H10-C3-C2=112.00               H10-C3-O6=121.95               H11-O4-C1=109.68               
H7-O5-C2=108.21                
 
 selected dihedral angles (degree)
 ---------------------------------
C3-C2-C1-O4=186.86            C3-C2-C1-H8=302.50            C3-C2-C1-H9= 62.58            O5-C2-C1-O4=309.62            
O5-C2-C1-H8= 65.26            O5-C2-C1-H9=185.34            H12-C2-C1-O4= 70.00           H12-C2-C1-H8=185.64           
H12-C2-C1-H9=305.72           O6-C3-C2-C1=106.57            O6-C3-C2-O5=344.50            O6-C3-C2-H12=224.01           
H10-C3-C2-C1=287.47           H10-C3-C2-O5=165.40           H10-C3-C2-H12= 44.91          H11-O4-C1-C2=292.47           
H11-O4-C1-H8=174.68           H11-O4-C1-H9= 55.80           H7-O5-C2-C1= 19.09            H7-O5-C2-C3=140.13            
H7-O5-C2-H12=259.41           
           -------------------------------------------------
          |                Final Singlepoint                |
           -------------------------------------------------

          ...................................................
          :                      SETUP                      :
          :.................................................:
          :  # basis functions                  30          :
          :  # atomic orbitals                  30          :
          :  # shells                           18          :
          :  # electrons                        36          :
          :  max. iterations                   100          :
          :  Hamiltonian                  GFN2-xTB          :
          :  restarted?                      false          :
          :  GBSA solvation                  false          :
          :  PC potential                    false          :
          :  electronic temp.          300.0000000     K    :
          :  accuracy                    1.0000000          :
          :  -> integral cutoff          0.2500000E+02      :
          :  -> integral neglect         0.1000000E-07      :
          :  -> SCF convergence          0.1000000E-05 Eh   :
          :  -> wf. convergence          0.1000000E-03 e    :
          :  Broyden damping             0.4000000          :
          ...................................................

 iter      E             dE          RMSdq      gap      omega  full diag
   1    -21.8066625 -0.218067E+02  0.812E-05    3.60       0.0  T
   2    -21.8066625 -0.636291E-11  0.484E-05    3.60     596.9  T
   3    -21.8066625 -0.154898E-11  0.194E-05    3.60    1485.1  T

   *** convergence criteria satisfied after 3 iterations ***

         #    Occupation            Energy/Eh            Energy/eV
      -------------------------------------------------------------
         1        2.0000           -0.7323687             -19.9288
       ...           ...                  ...                  ...
        12        2.0000           -0.5402815             -14.7018
        13        2.0000           -0.5267442             -14.3334
        14        2.0000           -0.5006142             -13.6224
        15        2.0000           -0.4850773             -13.1996
        16        2.0000           -0.4574757             -12.4485
        17        2.0000           -0.4351623             -11.8414
        18        2.0000           -0.4102236             -11.1628 (HOMO)
        19                         -0.2778159              -7.5598 (LUMO)
        20                          0.0159857               0.4350
        21                          0.0305064               0.8301
        22                          0.0613103               1.6683
        23                          0.0983620               2.6766
       ...                                ...                  ...
        30                          0.6261398              17.0381
      -------------------------------------------------------------
                  HL-Gap            0.1324077 Eh            3.6030 eV
             Fermi-level           -0.3440198 Eh           -9.3613 eV

 SCC (total)                   0 d,  0 h,  0 min,  0.094 sec
 SCC setup                      ...        0 min,  0.000 sec (  0.227%)
 Dispersion                     ...        0 min,  0.000 sec (  0.045%)
 integral evaluation            ...        0 min,  0.001 sec (  0.533%)
 zeroth order Hamiltonian       ...        0 min,  0.000 sec (  0.268%)
 iterations                     ...        0 min,  0.001 sec (  1.545%)
 molecular gradient             ...        0 min,  0.091 sec ( 97.100%)
 printout                       ...        0 min,  0.000 sec (  0.067%)

         :::::::::::::::::::::::::::::::::::::::::::::::::::::
         ::                     SUMMARY                     ::
         :::::::::::::::::::::::::::::::::::::::::::::::::::::
         :: total energy             -21.629659838922 Eh    ::
         :: gradient norm              0.000812820245 Eh/a0 ::
         :: HOMO-LUMO gap              3.602997662749 eV    ::
         ::.................................................::
         :: SCC energy               -21.806662499372 Eh    ::
         :: -> isotropic ES            0.063495152641 Eh    ::
         :: -> anisotropic ES          0.004200916300 Eh    ::
         :: -> anisotropic XC         -0.001571319105 Eh    ::
         :: -> dispersion             -0.006098074552 Eh    ::
         :: repulsion energy           0.176997641094 Eh    ::
         :: add. restraining           0.000000000000 Eh    ::
         :::::::::::::::::::::::::::::::::::::::::::::::::::::

           -------------------------------------------------
          |                Property Printout                |
           -------------------------------------------------

    * Orbital Energies and Occupations

         #    Occupation            Energy/Eh            Energy/eV
      -------------------------------------------------------------
         1        2.0000           -0.7323687             -19.9288
       ...           ...                  ...                  ...
         6        2.0000           -0.6164257             -16.7738
         7        2.0000           -0.6076949             -16.5362
         8        2.0000           -0.5862467             -15.9526
         9        2.0000           -0.5842248             -15.8976
        10        2.0000           -0.5575590             -15.1720
        11        2.0000           -0.5538707             -15.0716
        12        2.0000           -0.5402815             -14.7018
        13        2.0000           -0.5267442             -14.3334
        14        2.0000           -0.5006142             -13.6224
        15        2.0000           -0.4850773             -13.1996
        16        2.0000           -0.4574757             -12.4485
        17        2.0000           -0.4351623             -11.8414
        18        2.0000           -0.4102236             -11.1628 (HOMO)
        19                         -0.2778159              -7.5598 (LUMO)
        20                          0.0159857               0.4350
        21                          0.0305064               0.8301
        22                          0.0613103               1.6683
        23                          0.0983620               2.6766
        24                          0.1123166               3.0563
        25                          0.1411526               3.8410
        26                          0.1517583               4.1296
        27                          0.2015206               5.4837
        28                          0.2156858               5.8691
        29                          0.2477252               6.7409
        30                          0.6261398              17.0381
      -------------------------------------------------------------
                  HL-Gap            0.1324077 Eh            3.6030 eV
             Fermi-level           -0.3440198 Eh           -9.3613 eV

     #   Z        covCN         q      C6AA      α(0)
     1   6 C      3.676     0.068    19.652     6.351
     2   6 C      3.723     0.086    19.251     6.266
     3   6 C      2.758     0.202    23.705     7.973
     4   8 O      1.656    -0.426    21.358     6.239
     5   8 O      1.656    -0.423    21.298     6.230
     6   8 O      0.856    -0.274    19.315     5.892
     7   1 H      0.805     0.314     0.680     1.295
     8   1 H      0.924     0.069     2.096     2.264
     9   1 H      0.924     0.029     2.598     2.521
    10   1 H      0.921     0.018     2.757     2.597
    11   1 H      0.805     0.298     0.727     1.340
    12   1 H      0.922     0.037     2.488     2.467

 Mol. C6AA /au·bohr⁶  :       1237.623800
 Mol. C8AA /au·bohr⁸  :      26273.655134
 Mol. α(0) /au        :         51.434093


Wiberg/Mayer (AO) data.
largest (>0.10) Wiberg bond orders for each atom
          total WBO             WBO to atom ...
     1  C   3.956        O    4 1.011    H    9 0.971    H    8 0.970    C    2 0.944
     2  C   3.970        O    5 1.016    C    3 0.973    C    1 0.944    H   12 0.938
     3  C   3.925        O    6 1.961    C    2 0.973    H   10 0.928
     4  O   1.990        C    1 1.011    H   11 0.896
     5  O   1.973        C    2 1.016    H    7 0.875
     6  O   2.132        C    3 1.961
     7  H   0.901        O    5 0.875
     8  H   0.995        C    1 0.970
     9  H   0.999        C    1 0.971
    10  H   1.000        C    3 0.928
    11  H   0.911        O    4 0.896
    12  H   0.999        C    2 0.938

molecular dipole:
                 x           y           z       tot (Debye)
 q only:       -1.094      -0.287      -0.778
   full:       -1.500      -0.522      -0.987       4.752
molecular quadrupole (traceless):
                xx          xy          yy          xz          yz          zz
 q only:       -5.150      -3.524       2.044      -1.206      -0.509       3.105
  q+dip:       -5.752      -4.519       1.771      -1.775      -0.032       3.981
   full:       -6.296      -4.910       1.749      -2.030      -0.210       4.546

           -------------------------------------------------
          |                Geometry Summary                 |
           -------------------------------------------------

      molecular mass/u    :       90.0780670
   center of mass at/Å    :        1.3169758       1.2145426      -1.2252020
  moments of inertia/u·Å² :        0.6527005E+02   0.2261830E+03   0.2640230E+03
rotational constants/cm⁻¹ :        0.2582751E+00   0.7453094E-01   0.6384912E-01

 * 8 selected distances

     #   Z        #   Z                                     value/Å
     1   6 C      4   8 O                                 1.4026150 (max)
     2   6 C      5   8 O                                 1.3975515
     3   6 C      6   8 O                                 1.1925471
     5   8 O      7   1 H                                 0.9681328
     1   6 C      8   1 H                                 1.0928413
     1   6 C      9   1 H                                 1.0962964
     4   8 O     11   1 H                                 0.9646963 (min)
     2   6 C     12   1 H                                 1.1068308

 * 3 distinct bonds (by element types)

   Z      Z             #   av. dist./Å        max./Å        min./Å
   1 H    6 C           3     1.0986562     1.1068308     1.0928413
   1 H    8 O           2     0.9664146     0.9681328     0.9646963
   6 C    8 O           3     1.3309045     1.4026150     1.1925471


optimized geometry written to: xtbopt.xyz


           -------------------------------------------------
          | TOTAL ENERGY              -21.629659838922 Eh   |
          | GRADIENT NORM               0.000812820245 Eh/α |
          | HOMO-LUMO GAP               3.602997662749 eV   |
           -------------------------------------------------

------------------------------------------------------------------------
 * finished run on 2020/12/23 at 21:42:13.466     
------------------------------------------------------------------------
 total:
 * wall-time:     0 d,  0 h,  0 min,  1.414 sec
 *  cpu-time:     0 d,  0 h,  0 min,  5.963 sec
 * ratio c/w:     4.216 speedup
 SCF:
 * wall-time:     0 d,  0 h,  0 min,  0.096 sec
 *  cpu-time:     0 d,  0 h,  0 min,  0.316 sec
 * ratio c/w:     3.281 speedup
 ANC optimizer:
 * wall-time:     0 d,  0 h,  0 min,  1.101 sec
 *  cpu-time:     0 d,  0 h,  0 min,  4.437 sec
 * ratio c/w:     4.030 speedup

