12
 energy: -21.589934792182 gnorm: 0.123066282695 xtb: 6.2.3 (830e466)
C         0.68455000000000    1.27718000000000   -2.73342000000000
C         0.51722000000000    0.35343000000000   -1.58479000000000
C         1.24243000000000    1.17376000000000   -0.57864000000000
O         0.50009000000000    2.55440000000000   -2.17274000000000
O         0.85749000000000    2.49830000000000   -0.87715000000000
O         2.63157000000000    1.03547000000000   -0.73366000000000
H         3.04637000000000    1.65028000000000   -0.07428000000000
H         1.71251000000000    1.21909000000000   -3.15877000000000
H        -0.05744000000000    1.05862000000000   -3.53029000000000
H         0.94280000000000    0.86154000000000    0.44672000000000
H         0.87371000000000   -0.68887000000000   -1.72898000000000
H        -0.56232000000000    0.34639000000000   -1.30980000000000
12
 energy: -21.600964638587 gnorm: 0.049108858658 xtb: 6.2.3 (830e466)
C         0.68083376042281    1.27374302184022   -2.76446683782823
C         0.51114606288306    0.34230237060322   -1.58864782738461
C         1.24334408444407    1.16416155458922   -0.55339273303791
O         0.48051297891494    2.54817914003545   -2.19365920629951
O         0.85476149772105    2.48327095413404   -0.84978369198164
O         2.62929983690932    1.00645348473563   -0.69766967787847
H         3.06020957650806    1.63801607985477   -0.09417986994449
H         1.69953204036149    1.20520625426570   -3.18505470959143
H        -0.05622786788882    1.11700829917664   -3.56099410856419
H         0.94047933604364    0.92891349570330    0.48311585443140
H         0.89576529083361   -0.66843428598130   -1.72537584235270
H        -0.55067659715323    0.30076963104312   -1.30569134956823
12
 energy: -21.603653048030 gnorm: 0.010753924198 xtb: 6.2.3 (830e466)
C         0.67765684840636    1.27632417138449   -2.77114575766773
C         0.50948830028524    0.32835694210351   -1.58959918764947
C         1.23947003069696    1.16934870269743   -0.54646469864646
O         0.47454518541909    2.55750390726721   -2.21050343260499
O         0.86296367514202    2.48943038490083   -0.83557973615099
O         2.61931624867156    0.97524064968731   -0.67461660980250
H         3.07157564894653    1.61745357253715   -0.11463143195085
H         1.68915614960421    1.19169924816402   -3.18982057910627
H        -0.06907945842366    1.15308759345951   -3.55330489325842
H         0.91498305093928    0.98218063327762    0.48835146860335
H         0.94163996814444   -0.65627647411122   -1.72769041604146
H        -0.54273564783202    0.25524066863215   -1.31079472572421
12
 energy: -21.604075362569 gnorm: 0.005841031684 xtb: 6.2.3 (830e466)
C         0.67234812131686    1.27897433504122   -2.77250816011227
C         0.50984819366938    0.32686599874214   -1.58840655485122
C         1.23364660658962    1.17424514678762   -0.54000708385670
O         0.48270884883155    2.56326142756615   -2.21877196683218
O         0.87697143864498    2.49542714688934   -0.83441655701909
O         2.60828184507004    0.95218390808188   -0.65703882842305
H         3.07779669493561    1.61074942544090   -0.12815893937017
H         1.67990672840198    1.18608799726665   -3.19663473398459
H        -0.08358273522205    1.16702621657503   -3.54805623178815
H         0.89380183554459    1.00280421953708    0.49272864715212
H         0.97738636799680   -0.64237886336659   -1.73083089015917
H        -0.54013394577938    0.22434304143858   -1.31369870075553
12
 energy: -21.604245672017 gnorm: 0.005809453839 xtb: 6.2.3 (830e466)
C         0.66621617225377    1.28236846671105   -2.77319478169384
C         0.51232518963248    0.32845643560853   -1.58849748549909
C         1.22992304589627    1.17885484815118   -0.53659292643387
O         0.49477440640520    2.56905767620014   -2.22395217371144
O         0.89393466708692    2.50151082293799   -0.83728146593865
O         2.60120313623745    0.93664057530592   -0.63663306386179
H         3.07854174637350    1.60739080329071   -0.13072470686911
H         1.66768909441669    1.17982380229792   -3.21124397677115
H        -0.10077744525034    1.17302464077207   -3.53943853586719
H         0.87601457173254    1.01248912057789    0.49246137113146
H         1.00404927810740   -0.62835658661434   -1.73418750641976
H        -0.53491386289190    0.19832939476093   -1.31651474806557
12
 energy: -21.604330444286 gnorm: 0.004168623562 xtb: 6.2.3 (830e466)
C         0.66067420446610    1.28511046270119   -2.77417600592629
C         0.51646306682219    0.33044748174169   -1.58965553031825
C         1.22789333417014    1.18148254776518   -0.53466739078985
O         0.50678667345385    2.57304291773480   -2.22652796786772
O         0.91000998762517    2.50541274957677   -0.84224732833361
O         2.59770558245936    0.92586737445349   -0.61577589697936
H         3.07663017348420    1.60792175678461   -0.12813652617460
H         1.65488691952202    1.17518329852578   -3.22915459507883
H        -0.11760568878154    1.17583283654810   -3.53033031697294
H         0.86071525273010    1.01655668205064    0.49079879080044
H         1.02225854115527   -0.61795429239519   -1.73732888196523
H        -0.52743804710687    0.18068618451293   -1.31859835039376
12
 energy: -21.604358179251 gnorm: 0.002442904965 xtb: 6.2.3 (830e466)
C         0.65796890746274    1.28618320231108   -2.77502390956509
C         0.51949434867181    0.33113874907645   -1.59085239755945
C         1.22732081650339    1.18155223132579   -0.53379802727431
O         0.51354968544850    2.57433908279431   -2.22651146625914
O         0.91929685550658    2.50628479525303   -0.84594389681650
O         2.59705962623060    0.92058435904008   -0.60220884812290
H         3.07476184322558    1.61138999450876   -0.12653897211595
H         1.64709512077207    1.17318621599425   -3.24047954791893
H        -0.12696084526330    1.17746189531283   -3.52459104596462
H         0.85216403819236    1.01751103017336    0.48938220314603
H         1.02975391528607   -0.61429498779030   -1.73939753710417
H        -0.52252431203642    0.17425343200036   -1.31983655444497
12
 energy: -21.604366355882 gnorm: 0.001411052617 xtb: 6.2.3 (830e466)
C         0.65740271680636    1.28627984772525   -2.77550886729620
C         0.52077639513659    0.33090944463689   -1.59146289719343
C         1.22727507845552    1.18073207923105   -0.53328733134409
O         0.51562309139714    2.57441752864836   -2.22565092357655
O         0.92312678241703    2.50603126164708   -0.84755502375503
O         2.59715883443787    0.91836345508771   -0.59591760290603
H         3.07381082263187    1.61459929451434   -0.12773156272039
H         1.64438809645516    1.17284600796439   -3.24441952752775
H        -0.12991654957499    1.17877638180795   -3.52228364674629
H         0.84872175141970    1.01779941639015    0.48873337781792
H         1.03156013433255   -0.61425772928308   -1.74034837398348
H        -0.52094715391480    0.17309301162993   -1.32036762076869
12
 energy: -21.604371633270 gnorm: 0.001155827246 xtb: 6.2.3 (830e466)
C         0.65796152701719    1.28598026580887   -2.77572222687887
C         0.52133996397360    0.33011595259740   -1.59176781636495
C         1.22723886335776    1.17905041664971   -0.53234783767816
O         0.51559207606687    2.57400891560860   -2.22386018784220
O         0.92594640142540    2.50526484447316   -0.84822690882652
O         2.59715743245074    0.91597107833764   -0.59086553587543
H         3.07324407026001    1.61956473548115   -0.13346479591235
H         1.64420400800109    1.17354247686245   -3.24498479868107
H        -0.12998891811566    1.18044553081714   -3.52128555672473
H         0.84611473567920    1.01778930912232    0.48859631709558
H         1.03104344919402   -0.61576829649551   -1.74090538639523
H        -0.52087360931022    0.17362477073708   -1.32096526591606
12
 energy: -21.604374770900 gnorm: 0.000822830067 xtb: 6.2.3 (830e466)
C         0.65888224951966    1.28576476377540   -2.77527872610337
C         0.52058381088835    0.32979585660476   -1.59142942587380
C         1.22718166902702    1.17830541052400   -0.53192346765404
O         0.51335794286236    2.57359717158620   -2.22290165032150
O         0.92562193467760    2.50494120982128   -0.84739136805777
O         2.59693707830871    0.91550609994844   -0.59150474866854
H         3.07345596527787    1.62113994336566   -0.13863478371165
H         1.64669001935049    1.17476370619356   -3.24166072634819
H        -0.12717659587370    1.18037499074793   -3.52270765113233
H         0.84655256594359    1.01721150479046    0.48906616393132
H         1.02909895111431   -0.61681816723609   -1.74036268912022
H        -0.52220559109627    0.17500750987843   -1.32107092693990
