      -----------------------------------------------------------      
     |                   =====================                   |     
     |                           x T B                           |     
     |                   =====================                   |     
     |                         S. Grimme                         |     
     |          Mulliken Center for Theoretical Chemistry        |     
     |                    University of Bonn                     |     
      -----------------------------------------------------------      

   * xtb version 6.2.3 (830e466) compiled by 'ehlert@majestix' on 2020-03-16

   xtb is free software: you can redistribute it and/or modify it under
   the terms of the GNU Lesser General Public License as published by
   the Free Software Foundation, either version 3 of the License, or
   (at your option) any later version.
   
   xtb is distributed in the hope that it will be useful,
   but WITHOUT ANY WARRANTY; without even the implied warranty of
   MERCHANTABILITY or FITNESS FOR A PARTICULAR PURPOSE.  See the
   GNU Lesser General Public License for more details.
   
   Cite this work as:
   * S. Grimme, C. Bannwarth, P. Shushkov, J. Chem. Theory Comput., 2017,
     13, 1989-2009. DOI: 10.1021/acs.jctc.7b00118
   * C. Bannwarth, S. Ehlert and S. Grimme., J. Chem. Theory Comput., 2019,
     15, 1652-1671. DOI: 10.1021/acs.jctc.8b01176
   * P. Pracht, E. Caldeweyher, S. Ehlert, S. Grimme, ChemRxiv, 2019, preprint.
     DOI: 10.26434/chemrxiv.8326202.v1
   
   for DFT-D4:
   * E. Caldeweyher, C. Bannwarth and S. Grimme, J. Chem. Phys., 2017,
     147, 034112. DOI: 10.1063/1.4993215
   * E. Caldeweyher, S. Ehlert, A. Hansen, H. Neugebauer, S. Spicher,
     C. Bannwarth and S. Grimme, J. Chem. Phys., 2019, 150, 154122.
     DOI: 10.1063/1.5090222
   
   for sTDA-xTB:
   * S. Grimme and C. Bannwarth, J. Chem. Phys., 2016, 145, 054103.
     DOI: 10.1063/1.4959605
   
   in the mass-spec context:
   * V. Asgeirsson, C. Bauer and S. Grimme, Chem. Sci., 2017, 8, 4879.
     DOI: 10.1039/c7sc00601b
   
   for metadynamics refer to:
   * S. Grimme, J. Chem. Theory Comput., 2019, 155, 2847-2862
     DOI: 10.1021/acs.jctc.9b00143
   
   with help from (in alphabetical order)
   C. Bannwarth, F. Bohle, G. Brandenburg, E. Caldeweyher, M. Checinski,
   S. Dohm, S. Ehlert, S. Ehrlich, F. März, H. Neugebauer, J. Pisarek,
   P. Pracht, P. Shushkov, and S. Spicher.
   
 * started run on 2020/12/23 at 21:43:53.465     

           -------------------------------------------------
          |                Calculation Setup                |
           -------------------------------------------------

          program call               : xtb -c 0 -u 0 -a 1.0 --iterations 100 --opt normal --namespace product_37 /scratch/bell/zhao922/YARP/paper-example/potential_product/test/reaction_channel/pp_0/pp_9_2.xyz
          hostname                   : bell-fe05.rcac.purdue.edu
          calculation namespace      : product_37
          coordinate file            : /scratch/bell/zhao922/YARP/paper-example/potential_product/test/reaction_channel/pp_0/pp_9_2.xyz
          omp threads                :                    32
          number of atoms            :                    12
          number of electrons        :                    36
          charge                     :                     0
          spin                       :                   0.0
          first test random number   :      0.72077341203845

           ------------------------------------------------- 
          |                 G F N 2 - x T B                 |
          | Geometry, Frequencies, Noncovalent interactions |
          |            JCTC 2019 parametrisation            |
           ------------------------------------------------- 
             k(s)              :                1.8500
             k(p)              :                2.2300
             k(d)              :                2.2300
             k(f)              :                2.0000
             kEN (H0ij)        :               -2.0000
             D4 a1             :                0.5200
             D4 a2             :                5.0000
             D4 s6             :                1.0000
             D4 s8             :                2.7000
             D4 s9             :                5.0000
             alphaj            :                2.0000

  Z AO/shell   Hii/eV     exponent
  1     Wed Apr 25 08:07:45 CEST 2018   EN: 2.200 GM2: 0.406  GM3: 0.0800  RAES: 1.40
     1s    -10.707211    1.230000
  6     Wed Apr 25 08:07:45 CEST 2018   EN: 2.550 GM2: 0.538  GM3: 0.1500  RAES: 3.00
     2s    -13.970922    2.096432
     2p    -10.063292    1.800000
  8     Wed Apr 25 08:07:45 CEST 2018   EN: 3.440 GM2: 0.452  GM3:-0.0517  RAES: 1.80
     2s    -20.229985    2.439742
     2p    -15.503117    2.137023

           ------------------------------------------------- 
          |        Self-Consistent Charge Iterations        |
           ------------------------------------------------- 

          ...................................................
          :                      SETUP                      :
          :.................................................:
          :  # basis functions                  30          :
          :  # atomic orbitals                  30          :
          :  # shells                           18          :
          :  # electrons                        36          :
          :  max. iterations                   100          :
          :  Hamiltonian                  GFN2-xTB          :
          :  restarted?                      false          :
          :  GBSA solvation                  false          :
          :  PC potential                    false          :
          :  electronic temp.          300.0000000     K    :
          :  accuracy                    1.0000000          :
          :  -> integral cutoff          0.2500000E+02      :
          :  -> integral neglect         0.1000000E-07      :
          :  -> SCF convergence          0.1000000E-05 Eh   :
          :  -> wf. convergence          0.1000000E-03 e    :
          :  Broyden damping             0.4000000          :
          ...................................................

 iter      E             dE          RMSdq      gap      omega  full diag
   1    -21.6701675 -0.216702E+02  0.496E+00    3.98       0.0  T
   2    -21.6981934 -0.280260E-01  0.267E+00    3.17       1.0  T
   3    -21.6980321  0.161293E-03  0.171E+00    3.60       1.0  T
   4    -21.7066715 -0.863933E-02  0.154E-01    3.32       1.0  T
   5    -21.7067247 -0.532588E-04  0.781E-02    3.36       1.0  T
   6    -21.7067348 -0.101050E-04  0.313E-02    3.36       1.0  T
   7    -21.7067354 -0.600272E-06  0.945E-03    3.36       3.1  T
   8    -21.7067358 -0.336714E-06  0.319E-03    3.36       9.1  T
   9    -21.7067358  0.139043E-09  0.104E-03    3.36      27.7  T
  10    -21.7067358 -0.946441E-08  0.300E-04    3.36      96.2  T
  11    -21.7067358 -0.328512E-09  0.108E-04    3.36     268.3  T

   *** convergence criteria satisfied after 11 iterations ***

         #    Occupation            Energy/Eh            Energy/eV
      -------------------------------------------------------------
         1        2.0000           -0.7509911             -20.4355
       ...           ...                  ...                  ...
        12        2.0000           -0.5203165             -14.1585
        13        2.0000           -0.5132418             -13.9660
        14        2.0000           -0.4941081             -13.4454
        15        2.0000           -0.4827565             -13.1365
        16        2.0000           -0.4646516             -12.6438
        17        2.0000           -0.4277017             -11.6384
        18        2.0000           -0.4168928             -11.3442 (HOMO)
        19                         -0.2934717              -7.9858 (LUMO)
        20                         -0.0554769              -1.5096
        21                          0.0541099               1.4724
        22                          0.0643268               1.7504
        23                          0.0787586               2.1431
       ...                                ...                  ...
        30                          0.5169625              14.0673
      -------------------------------------------------------------
                  HL-Gap            0.1234211 Eh            3.3585 eV
             Fermi-level           -0.3551823 Eh           -9.6650 eV

 SCC (total)                   0 d,  0 h,  0 min,  0.010 sec
 SCC setup                      ...        0 min,  0.000 sec (  1.653%)
 Dispersion                     ...        0 min,  0.000 sec (  0.612%)
 integral evaluation            ...        0 min,  0.001 sec (  9.099%)
 zeroth order Hamiltonian       ...        0 min,  0.000 sec (  0.651%)
 iterations                     ...        0 min,  0.006 sec ( 58.756%)
 molecular gradient             ...        0 min,  0.003 sec ( 26.594%)
 printout                       ...        0 min,  0.000 sec (  0.797%)

         :::::::::::::::::::::::::::::::::::::::::::::::::::::
         ::                     SUMMARY                     ::
         :::::::::::::::::::::::::::::::::::::::::::::::::::::
         :: total energy             -21.547411505437 Eh    ::
         :: gradient norm              0.131482433347 Eh/a0 ::
         :: HOMO-LUMO gap              3.358458259384 eV    ::
         ::.................................................::
         :: SCC energy               -21.706735778917 Eh    ::
         :: -> isotropic ES            0.045525833373 Eh    ::
         :: -> anisotropic ES         -0.001380205017 Eh    ::
         :: -> anisotropic XC         -0.008205586343 Eh    ::
         :: -> dispersion             -0.006096285735 Eh    ::
         :: repulsion energy           0.159316220140 Eh    ::
         :: add. restraining           0.000000000000 Eh    ::
         :::::::::::::::::::::::::::::::::::::::::::::::::::::

      ----------------------------------------------------------- 
     |                   =====================                   |
     |                        A N C O P T                        |
     |                   =====================                   |
     |               Approximate Normal Coordinate               |
     |                Rational Function Optimizer                |
      ----------------------------------------------------------- 

          ...................................................
          :                      SETUP                      :
          :.................................................:
          :   optimization level            normal          :
          :   max. optcycles                   200          :
          :   ANC micro-cycles                  20          :
          :   degrees of freedom                30          :
          :.................................................:
          :   RF solver                   davidson          :
          :   write xtbopt.log                true          :
          :   linear?                        false          :
          :   energy convergence         0.5000000E-05 Eh   :
          :   grad. convergence          0.1000000E-02 Eh/α :
          :   maximium RF displ.         1.0000000          :
          :   Hlow (freq-cutoff)         0.1000000E-01      :
          :   Hmax (freq-cutoff)         5.0000000          :
          :   S6 in model hess.         20.0000000          :
          ...................................................

generating ANC from model Hessian ...
Using Lindh-Hessian (1995)
 Shifting diagonal of input Hessian by   2.193728907397912E-003
 Lowest  eigenvalues of input Hessian
   -0.000000   -0.000000   -0.000000    0.000000    0.000000    0.000000
    0.010000    0.011590    0.013434    0.015032    0.018208    0.032421
    0.044201    0.055114    0.064259    0.072542    0.079478    0.085182
 Highest eigenvalues
    1.140656    1.188181    1.321438    1.418938    1.635029    2.096600
 

........................................................................
.............................. CYCLE    1 ..............................
........................................................................
   1    -21.7067358 -0.217067E+02  0.616E-05    3.36       0.0  T
   2    -21.7067358 -0.198632E-10  0.376E-05    3.36     768.1  T
   3    -21.7067358 -0.105231E-10  0.193E-05    3.36    1497.1  T
     SCC iter.                  ...        0 min,  0.001 sec
     gradient                   ...        0 min,  0.002 sec
 * total energy  :   -21.5474115 Eh     change       -0.7373657E-09 Eh
   gradient norm :     0.1314825 Eh/α   predicted     0.0000000E+00 (-100.00%)
   displ. norm   :     0.2041805 α      lambda       -0.1541441E-01
   maximum displ.:     0.0754414 α      in ANC's #15, #19, #11, ...

........................................................................
.............................. CYCLE    2 ..............................
........................................................................
   1    -21.7268910 -0.217269E+02  0.321E-01    3.54       0.0  T
   2    -21.7270846 -0.193683E-03  0.193E-01    3.49       1.0  T
   3    -21.7271021 -0.174580E-04  0.753E-02    3.48       1.0  T
   4    -21.7271049 -0.282799E-05  0.184E-02    3.47       1.6  T
   5    -21.7271063 -0.141570E-05  0.555E-03    3.48       5.2  T
   6    -21.7271064 -0.595029E-07  0.338E-03    3.48       8.5  T
     SCC iter.                  ...        0 min,  0.085 sec
     gradient                   ...        0 min,  0.002 sec
 * total energy  :   -21.5575799 Eh     change       -0.1016844E-01 Eh
   gradient norm :     0.0477393 Eh/α   predicted    -0.8028512E-02 ( -21.04%)
   displ. norm   :     0.1769952 α      lambda       -0.3209308E-02
   maximum displ.:     0.0790343 α      in ANC's #4, #3, #2, ...

........................................................................
.............................. CYCLE    3 ..............................
........................................................................
   1    -21.7337880 -0.217338E+02  0.254E-01    3.57       0.0  T
   2    -21.7338597 -0.717829E-04  0.156E-01    3.55       1.0  T
   3    -21.7338663 -0.653555E-05  0.463E-02    3.53       1.0  T
   4    -21.7338690 -0.274294E-05  0.130E-02    3.54       2.2  T
   5    -21.7338697 -0.712107E-06  0.425E-03    3.54       6.8  T
   6    -21.7338698 -0.226826E-07  0.242E-03    3.54      11.9  T
     SCC iter.                  ...        0 min,  0.002 sec
     gradient                   ...        0 min,  0.001 sec
 * total energy  :   -21.5593821 Eh     change       -0.1802171E-02 Eh
   gradient norm :     0.0077669 Eh/α   predicted    -0.1654922E-02 (  -8.17%)
   displ. norm   :     0.1273358 α      lambda       -0.3463018E-03
   maximum displ.:     0.0923852 α      in ANC's #4, #2, #5, ...

........................................................................
.............................. CYCLE    4 ..............................
........................................................................
   1    -21.7333030 -0.217333E+02  0.194E-01    3.54       0.0  T
   2    -21.7333109 -0.791754E-05  0.123E-01    3.54       1.0  T
   3    -21.7333123 -0.136393E-05  0.202E-02    3.53       1.4  T
   4    -21.7333154 -0.307102E-05  0.813E-03    3.54       3.6  T
   5    -21.7333155 -0.151878E-06  0.325E-03    3.54       8.9  T
   6    -21.7333156 -0.184282E-07  0.945E-04    3.54      30.5  T
   7    -21.7333156 -0.399827E-08  0.537E-04    3.54      53.8  T
     SCC iter.                  ...        0 min,  0.002 sec
     gradient                   ...        0 min,  0.002 sec
 * total energy  :   -21.5595368 Eh     change       -0.1547079E-03 Eh
   gradient norm :     0.0071497 Eh/α   predicted    -0.1759586E-03 (  13.74%)
   displ. norm   :     0.1126248 α      lambda       -0.2168093E-03
   maximum displ.:     0.0683089 α      in ANC's #4, #2, #1, ...

........................................................................
.............................. CYCLE    5 ..............................
........................................................................
   1    -21.7323696 -0.217324E+02  0.172E-01    3.55       0.0  T
   2    -21.7323749 -0.522527E-05  0.108E-01    3.54       1.0  T
   3    -21.7323783 -0.344332E-05  0.996E-03    3.54       2.9  T
   4    -21.7323785 -0.164029E-06  0.571E-03    3.54       5.1  T
   5    -21.7323785 -0.617515E-07  0.226E-03    3.54      12.8  T
   6    -21.7323785 -0.174501E-07  0.100E-03    3.54      28.9  T
     SCC iter.                  ...        0 min,  0.005 sec
     gradient                   ...        0 min,  0.001 sec
 * total energy  :   -21.5596608 Eh     change       -0.1239605E-03 Eh
   gradient norm :     0.0102872 Eh/α   predicted    -0.1097781E-03 ( -11.44%)
   displ. norm   :     0.0602850 α      lambda       -0.1500093E-03
   maximum displ.:     0.0397816 α      in ANC's #4, #2, #1, ...

........................................................................
.............................. CYCLE    6 ..............................
........................................................................
   1    -21.7328117 -0.217328E+02  0.103E-01    3.54       0.0  T
   2    -21.7328140 -0.227520E-05  0.644E-02    3.55       1.0  T
   3    -21.7328147 -0.681593E-06  0.810E-03    3.55       3.6  T
   4    -21.7328149 -0.272536E-06  0.364E-03    3.55       7.9  T
   5    -21.7328150 -0.169213E-07  0.170E-03    3.55      17.0  T
   6    -21.7328150 -0.520717E-08  0.507E-04    3.55      57.0  T
     SCC iter.                  ...        0 min,  0.096 sec
     gradient                   ...        0 min,  0.004 sec
 * total energy  :   -21.5597786 Eh     change       -0.1178161E-03 Eh
   gradient norm :     0.0069255 Eh/α   predicted    -0.7527542E-04 ( -36.11%)
   displ. norm   :     0.1943006 α      lambda       -0.2565222E-03
   maximum displ.:     0.1456387 α      in ANC's #4, #2, #1, ...

........................................................................
.............................. CYCLE    7 ..............................
........................................................................
   1    -21.7321924 -0.217322E+02  0.348E-01    3.54       0.0  T
   2    -21.7322127 -0.202567E-04  0.220E-01    3.55       1.0  T
   3    -21.7322240 -0.113387E-04  0.213E-02    3.55       1.4  T
   4    -21.7322258 -0.173955E-05  0.119E-02    3.55       2.4  T
   5    -21.7322260 -0.183218E-06  0.450E-03    3.55       6.4  T
   6    -21.7322260 -0.718534E-07  0.204E-03    3.55      14.1  T
   7    -21.7322260 -0.162693E-07  0.123E-03    3.55      23.5  T
     SCC iter.                  ...        0 min,  0.003 sec
     gradient                   ...        0 min,  0.001 sec
 * total energy  :   -21.5599275 Eh     change       -0.1488915E-03 Eh
   gradient norm :     0.0126631 Eh/α   predicted    -0.1331034E-03 ( -10.60%)
   displ. norm   :     0.1213652 α      lambda       -0.3022617E-03
   maximum displ.:     0.0804028 α      in ANC's #4, #3, #1, ...

........................................................................
.............................. CYCLE    8 ..............................
........................................................................
   1    -21.7341053 -0.217341E+02  0.209E-01    3.55       0.0  T
   2    -21.7341150 -0.972822E-05  0.130E-01    3.55       1.0  T
   3    -21.7341183 -0.324582E-05  0.155E-02    3.56       1.9  T
   4    -21.7341190 -0.733212E-06  0.693E-03    3.56       4.2  T
   5    -21.7341191 -0.773186E-07  0.319E-03    3.56       9.0  T
   6    -21.7341191 -0.102099E-07  0.110E-03    3.56      26.1  T
   7    -21.7341191 -0.397107E-08  0.538E-04    3.56      53.6  T
     SCC iter.                  ...        0 min,  0.092 sec
     gradient                   ...        0 min,  0.002 sec
 * total energy  :   -21.5601068 Eh     change       -0.1793257E-03 Eh
   gradient norm :     0.0072459 Eh/α   predicted    -0.1533562E-03 ( -14.48%)
   displ. norm   :     0.3007877 α      lambda       -0.3092313E-03
   maximum displ.:     0.2144251 α      in ANC's #4, #3, #2, ...

........................................................................
.............................. CYCLE    9 ..............................
........................................................................
   1    -21.7312318 -0.217312E+02  0.520E-01    3.56       0.0  T
   2    -21.7312765 -0.446932E-04  0.329E-01    3.57       1.0  T
   3    -21.7313034 -0.269164E-04  0.289E-02    3.56       1.0  T
   4    -21.7313059 -0.250738E-05  0.169E-02    3.57       1.7  T
   5    -21.7313063 -0.353749E-06  0.743E-03    3.57       3.9  T
   6    -21.7313065 -0.206087E-06  0.289E-03    3.57      10.0  T
   7    -21.7313065 -0.303114E-07  0.175E-03    3.57      16.5  T
     SCC iter.                  ...        0 min,  0.002 sec
     gradient                   ...        0 min,  0.001 sec
 * total energy  :   -21.5602134 Eh     change       -0.1065628E-03 Eh
   gradient norm :     0.0188885 Eh/α   predicted    -0.1686108E-03 (  58.23%)
   displ. norm   :     0.0552701 α      lambda       -0.4088003E-03
   maximum displ.:     0.0293700 α      in ANC's #4, #3, #1, ...

........................................................................
.............................. CYCLE   10 ..............................
........................................................................
   1    -21.7343588 -0.217344E+02  0.840E-02    3.60       0.0  T
   2    -21.7343649 -0.612926E-05  0.513E-02    3.60       1.0  T
   3    -21.7343660 -0.110140E-05  0.162E-02    3.60       1.8  T
   4    -21.7343667 -0.710650E-06  0.606E-03    3.59       4.8  T
   5    -21.7343668 -0.105196E-06  0.308E-03    3.60       9.4  T
   6    -21.7343669 -0.253641E-07  0.174E-03    3.60      16.6  T
   7    -21.7343669 -0.110628E-07  0.623E-04    3.60      46.3  T
     SCC iter.                  ...        0 min,  0.092 sec
     gradient                   ...        0 min,  0.001 sec
 * total energy  :   -21.5604417 Eh     change       -0.2283091E-03 Eh
   gradient norm :     0.0044541 Eh/α   predicted    -0.2050250E-03 ( -10.20%)
   displ. norm   :     0.2331771 α      lambda       -0.2855083E-03
   maximum displ.:     0.1361740 α      in ANC's #4, #3, #2, ...

........................................................................
.............................. CYCLE   11 ..............................
........................................................................
   1    -21.7334386 -0.217334E+02  0.353E-01    3.61       0.0  T
   2    -21.7334570 -0.183965E-04  0.221E-01    3.61       1.0  T
   3    -21.7334669 -0.984364E-05  0.178E-02    3.61       1.6  T
   4    -21.7334675 -0.582227E-06  0.101E-02    3.61       2.8  T
   5    -21.7334675 -0.702493E-07  0.422E-03    3.61       6.8  T
   6    -21.7334676 -0.580066E-07  0.141E-03    3.61      20.4  T
   7    -21.7334676 -0.635609E-08  0.664E-04    3.61      43.5  T
     SCC iter.                  ...        0 min,  0.002 sec
     gradient                   ...        0 min,  0.001 sec
 * total energy  :   -21.5606761 Eh     change       -0.2344458E-03 Eh
   gradient norm :     0.0075527 Eh/α   predicted    -0.1505164E-03 ( -35.80%)
   displ. norm   :     0.3758923 α      lambda       -0.4127640E-03
   maximum displ.:     0.2093352 α      in ANC's #4, #3, #2, ...

........................................................................
.............................. CYCLE   12 ..............................
........................................................................
   1    -21.7291955 -0.217292E+02  0.573E-01    3.60       0.0  T
   2    -21.7292558 -0.602848E-04  0.359E-01    3.62       1.0  T
   3    -21.7292824 -0.265464E-04  0.345E-02    3.62       1.0  T
   4    -21.7292859 -0.348350E-05  0.177E-02    3.62       1.6  T
   5    -21.7292862 -0.370770E-06  0.964E-03    3.62       3.0  T
   6    -21.7292864 -0.208289E-06  0.333E-03    3.62       8.7  T
   7    -21.7292865 -0.417453E-07  0.133E-03    3.62      21.7  T
   8    -21.7292865 -0.598044E-08  0.821E-04    3.62      35.1  T
     SCC iter.                  ...        0 min,  0.092 sec
     gradient                   ...        0 min,  0.001 sec
 * total energy  :   -21.5606518 Eh     change        0.2428816E-04 Eh
   gradient norm :     0.0284072 Eh/α   predicted    -0.2355412E-03 (*******%)
   displ. norm   :     0.1364664 α      lambda       -0.7965248E-03
   maximum displ.:     0.0957000 α      in ANC's #4, #3, #2, ...

........................................................................
.............................. CYCLE   13 ..............................
........................................................................
   1    -21.7350073 -0.217350E+02  0.231E-01    3.65       0.0  T
   2    -21.7350251 -0.177545E-04  0.144E-01    3.64       1.0  T
   3    -21.7350310 -0.595944E-05  0.222E-02    3.65       1.3  T
   4    -21.7350325 -0.146943E-05  0.982E-03    3.64       2.9  T
   5    -21.7350328 -0.239959E-06  0.548E-03    3.64       5.3  T
   6    -21.7350328 -0.664747E-07  0.235E-03    3.64      12.3  T
     SCC iter.                  ...        0 min,  0.002 sec
     gradient                   ...        0 min,  0.001 sec
 * total energy  :   -21.5609796 Eh     change       -0.3277440E-03 Eh
   gradient norm :     0.0093215 Eh/α   predicted    -0.4056818E-03 (  23.78%)
   displ. norm   :     0.1454367 α      lambda       -0.2339262E-03
   maximum displ.:     0.0790646 α      in ANC's #3, #1, #5, ...

........................................................................
.............................. CYCLE   14 ..............................
........................................................................
   1    -21.7347428 -0.217347E+02  0.187E-01    3.66       0.0  T
   2    -21.7347492 -0.645988E-05  0.117E-01    3.67       1.0  T
   3    -21.7347520 -0.279535E-05  0.131E-02    3.66       2.2  T
   4    -21.7347528 -0.764211E-06  0.650E-03    3.66       4.4  T
   5    -21.7347529 -0.821542E-07  0.312E-03    3.66       9.2  T
   6    -21.7347529 -0.196574E-07  0.115E-03    3.66      25.1  T
   7    -21.7347529 -0.375256E-08  0.483E-04    3.66      59.8  T
     SCC iter.                  ...        0 min,  0.095 sec
     gradient                   ...        0 min,  0.001 sec
 * total energy  :   -21.5611224 Eh     change       -0.1428135E-03 Eh
   gradient norm :     0.0105782 Eh/α   predicted    -0.1194363E-03 ( -16.37%)
   displ. norm   :     0.3038027 α      lambda       -0.4637690E-03
   maximum displ.:     0.1394083 α      in ANC's #3, #4, #5, ...

........................................................................
.............................. CYCLE   15 ..............................
........................................................................
   1    -21.7332463 -0.217332E+02  0.441E-01    3.70       0.0  T
   2    -21.7332754 -0.290079E-04  0.277E-01    3.71       1.0  T
   3    -21.7332926 -0.172201E-04  0.252E-02    3.71       1.1  T
   4    -21.7332947 -0.210095E-05  0.145E-02    3.71       2.0  T
   5    -21.7332949 -0.236090E-06  0.660E-03    3.71       4.4  T
   6    -21.7332950 -0.137283E-06  0.195E-03    3.71      14.8  T
   7    -21.7332951 -0.119648E-07  0.114E-03    3.71      25.3  T
     SCC iter.                  ...        0 min,  0.094 sec
     gradient                   ...        0 min,  0.002 sec
 * total energy  :   -21.5613683 Eh     change       -0.2459317E-03 Eh
   gradient norm :     0.0150621 Eh/α   predicted    -0.2532899E-03 (   2.99%)
   displ. norm   :     0.1335646 α      lambda       -0.4010989E-03
   maximum displ.:     0.0936909 α      in ANC's #5, #4, #2, ...

........................................................................
.............................. CYCLE   16 ..............................
........................................................................
   1    -21.7331962 -0.217332E+02  0.181E-01    3.66       0.0  T
   2    -21.7332059 -0.965732E-05  0.112E-01    3.68       1.0  T
   3    -21.7332065 -0.573186E-06  0.227E-02    3.67       1.3  T
   4    -21.7332092 -0.273998E-05  0.722E-03    3.68       4.0  T
   5    -21.7332093 -0.135580E-06  0.391E-03    3.68       7.4  T
   6    -21.7332094 -0.228294E-07  0.188E-03    3.68      15.3  T
   7    -21.7332094 -0.652585E-08  0.258E-04    3.68     112.1  T
     SCC iter.                  ...        0 min,  0.004 sec
     gradient                   ...        0 min,  0.091 sec
 * total energy  :   -21.5616266 Eh     change       -0.2582732E-03 Eh
   gradient norm :     0.0165986 Eh/α   predicted    -0.2041269E-03 ( -20.96%)
   displ. norm   :     0.1527466 α      lambda       -0.8734043E-03
   maximum displ.:     0.0829786 α      in ANC's #1, #5, #19, ...

........................................................................
.............................. CYCLE   17 ..............................
........................................................................
   1    -21.7432777 -0.217433E+02  0.219E-01    3.79       0.0  T
   2    -21.7432975 -0.198391E-04  0.136E-01    3.77       1.0  T
   3    -21.7432990 -0.152184E-05  0.268E-02    3.77       1.1  T
   4    -21.7433023 -0.323364E-05  0.862E-03    3.77       3.3  T
   5    -21.7433025 -0.197428E-06  0.512E-03    3.77       5.6  T
   6    -21.7433025 -0.435171E-07  0.204E-03    3.77      14.1  T
   7    -21.7433025 -0.981182E-08  0.693E-04    3.77      41.7  T
     SCC iter.                  ...        0 min,  0.002 sec
     gradient                   ...        0 min,  0.002 sec
 * total energy  :   -21.5612797 Eh     change        0.3469407E-03 Eh
   gradient norm :     0.0313196 Eh/α   predicted    -0.4468918E-03 (-228.81%)
   displ. norm   :     0.2947643 α      lambda       -0.1545456E-02
   maximum displ.:     0.1622519 α      in ANC's #5, #3, #4, ...

........................................................................
.............................. CYCLE   18 ..............................
........................................................................
   1    -21.7348230 -0.217348E+02  0.352E-01    3.68       0.0  T
   2    -21.7348584 -0.353866E-04  0.221E-01    3.72       1.0  T
   3    -21.7348593 -0.846563E-06  0.463E-02    3.71       1.0  T
   4    -21.7348733 -0.140245E-04  0.135E-02    3.72       2.1  T
   5    -21.7348735 -0.244966E-06  0.815E-03    3.72       3.5  T
   6    -21.7348737 -0.107238E-06  0.243E-03    3.72      11.9  T
   7    -21.7348737 -0.155236E-07  0.851E-04    3.72      33.9  T
     SCC iter.                  ...        0 min,  0.092 sec
     gradient                   ...        0 min,  0.002 sec
 * total energy  :   -21.5620965 Eh     change       -0.8168219E-03 Eh
   gradient norm :     0.0136392 Eh/α   predicted    -0.8398685E-03 (   2.82%)
   displ. norm   :     0.0573782 α      lambda       -0.2185258E-03
   maximum displ.:     0.0297491 α      in ANC's #4, #5, #1, ...

........................................................................
.............................. CYCLE   19 ..............................
........................................................................
   1    -21.7357722 -0.217358E+02  0.898E-02    3.72       0.0  T
   2    -21.7357749 -0.270775E-05  0.567E-02    3.72       1.0  T
   3    -21.7357759 -0.963789E-06  0.792E-03    3.72       3.6  T
   4    -21.7357760 -0.148203E-06  0.341E-03    3.72       8.5  T
   5    -21.7357760 -0.260110E-07  0.135E-03    3.72      21.4  T
   6    -21.7357760 -0.173063E-08  0.587E-04    3.72      49.1  T
     SCC iter.                  ...        0 min,  0.002 sec
     gradient                   ...        0 min,  0.001 sec
 * total energy  :   -21.5622160 Eh     change       -0.1194675E-03 Eh
   gradient norm :     0.0118461 Eh/α   predicted    -0.1096219E-03 (  -8.24%)
   displ. norm   :     0.1957929 α      lambda       -0.2533291E-03
   maximum displ.:     0.1072024 α      in ANC's #5, #3, #19, ...

........................................................................
.............................. CYCLE   20 ..............................
........................................................................
   1    -21.7355396 -0.217355E+02  0.220E-01    3.73       0.0  T
   2    -21.7355452 -0.557666E-05  0.136E-01    3.73       1.0  T
   3    -21.7355491 -0.391104E-05  0.113E-02    3.73       2.5  T
   4    -21.7355494 -0.268866E-06  0.695E-03    3.73       4.2  T
   5    -21.7355494 -0.516687E-07  0.167E-03    3.73      17.3  T
   6    -21.7355495 -0.132021E-07  0.632E-04    3.73      45.7  T
     SCC iter.                  ...        0 min,  0.092 sec
     gradient                   ...        0 min,  0.001 sec
 * total energy  :   -21.5624028 Eh     change       -0.1868087E-03 Eh
   gradient norm :     0.0119259 Eh/α   predicted    -0.1315216E-03 ( -29.60%)
   displ. norm   :     0.2754695 α      lambda       -0.6479822E-03
   maximum displ.:     0.1610171 α      in ANC's #1, #5, #3, ...
 * RMSD in coord.:     0.7249723 α      energy gain  -0.1499126E-01 Eh

generating ANC from model Hessian ...
Using Lindh-Hessian (1995)
 Shifting diagonal of input Hessian by   3.566691164572938E-003
 Lowest  eigenvalues of input Hessian
   -0.000000   -0.000000   -0.000000   -0.000000   -0.000000    0.000000
    0.010000    0.012944    0.013859    0.017182    0.020994    0.027646
    0.047265    0.057362    0.061858    0.072427    0.084532    0.086743
 Highest eigenvalues
    1.145995    1.174534    1.249194    1.335671    1.521058    2.275755
 

........................................................................
.............................. CYCLE   21 ..............................
........................................................................
   1    -21.7423645 -0.217424E+02  0.309E-01    3.85       0.0  T
   2    -21.7423915 -0.270127E-04  0.191E-01    3.83       1.0  T
   3    -21.7423957 -0.423226E-05  0.345E-02    3.83       1.0  T
   4    -21.7424018 -0.602601E-05  0.127E-02    3.82       2.3  T
   5    -21.7424022 -0.399394E-06  0.660E-03    3.82       4.4  T
   6    -21.7424022 -0.659016E-07  0.281E-03    3.82      10.3  T
   7    -21.7424022 -0.209978E-07  0.900E-04    3.82      32.1  T
   8    -21.7424022 -0.282126E-08  0.528E-04    3.82      54.7  T
     SCC iter.                  ...        0 min,  0.002 sec
     gradient                   ...        0 min,  0.001 sec
 * total energy  :   -21.5624326 Eh     change       -0.2980552E-04 Eh
   gradient norm :     0.0230193 Eh/α   predicted     0.0000000E+00 (-100.00%)
   displ. norm   :     0.1255565 α      lambda       -0.7112445E-03
   maximum displ.:     0.0699737 α      in ANC's #2, #4, #1, ...

........................................................................
.............................. CYCLE   22 ..............................
........................................................................
   1    -21.7384492 -0.217384E+02  0.157E-01    3.73       0.0  T
   2    -21.7384589 -0.970157E-05  0.969E-02    3.75       1.0  T
   3    -21.7384584  0.481731E-06  0.248E-02    3.74       1.2  T
   4    -21.7384616 -0.316657E-05  0.618E-03    3.75       4.7  T
   5    -21.7384617 -0.998311E-07  0.331E-03    3.75       8.7  T
   6    -21.7384617 -0.173840E-07  0.148E-03    3.75      19.5  T
     SCC iter.                  ...        0 min,  0.005 sec
     gradient                   ...        0 min,  0.001 sec
 * total energy  :   -21.5627106 Eh     change       -0.2779866E-03 Eh
   gradient norm :     0.0079242 Eh/α   predicted    -0.3612277E-03 (  29.94%)
   displ. norm   :     0.0928564 α      lambda       -0.3536328E-03
   maximum displ.:     0.0540284 α      in ANC's #4, #2, #5, ...

........................................................................
.............................. CYCLE   23 ..............................
........................................................................
   1    -21.7368207 -0.217368E+02  0.101E-01    3.70       0.0  T
   2    -21.7368241 -0.343468E-05  0.617E-02    3.71       1.0  T
   3    -21.7368240  0.156275E-06  0.138E-02    3.71       2.1  T
   4    -21.7368249 -0.915254E-06  0.367E-03    3.71       7.9  T
   5    -21.7368250 -0.498472E-07  0.175E-03    3.71      16.5  T
   6    -21.7368250 -0.459533E-08  0.853E-04    3.71      33.9  T
     SCC iter.                  ...        0 min,  0.093 sec
     gradient                   ...        0 min,  0.001 sec
 * total energy  :   -21.5628673 Eh     change       -0.1567573E-03 Eh
   gradient norm :     0.0082446 Eh/α   predicted    -0.1783412E-03 (  13.77%)
   displ. norm   :     0.0543595 α      lambda       -0.8258099E-04
   maximum displ.:     0.0367276 α      in ANC's #1, #4, #5, ...

........................................................................
.............................. CYCLE   24 ..............................
........................................................................
   1    -21.7377063 -0.217377E+02  0.721E-02    3.73       0.0  T
   2    -21.7377069 -0.660363E-06  0.451E-02    3.72       1.0  T
   3    -21.7377072 -0.311680E-06  0.469E-03    3.72       6.2  T
   4    -21.7377074 -0.115787E-06  0.222E-03    3.72      13.0  T
   5    -21.7377074 -0.487452E-08  0.999E-04    3.72      28.9  T
     SCC iter.                  ...        0 min,  0.001 sec
     gradient                   ...        0 min,  0.001 sec
 * total energy  :   -21.5629362 Eh     change       -0.6888989E-04 Eh
   gradient norm :     0.0041015 Eh/α   predicted    -0.4141243E-04 ( -39.89%)
   displ. norm   :     0.1952207 α      lambda       -0.1800493E-03
   maximum displ.:     0.1137114 α      in ANC's #1, #4, #5, ...

........................................................................
.............................. CYCLE   25 ..............................
........................................................................
   1    -21.7381510 -0.217382E+02  0.251E-01    3.72       0.0  T
   2    -21.7381577 -0.673997E-05  0.156E-01    3.72       1.0  T
   3    -21.7381628 -0.505190E-05  0.111E-02    3.72       2.6  T
   4    -21.7381629 -0.109817E-06  0.636E-03    3.72       4.5  T
   5    -21.7381629 -0.697722E-07  0.144E-03    3.72      20.1  T
   6    -21.7381629 -0.770261E-08  0.637E-04    3.72      45.3  T
     SCC iter.                  ...        0 min,  0.092 sec
     gradient                   ...        0 min,  0.001 sec
 * total energy  :   -21.5630754 Eh     change       -0.1392398E-03 Eh
   gradient norm :     0.0031992 Eh/α   predicted    -0.9345666E-04 ( -32.88%)
   displ. norm   :     0.3120131 α      lambda       -0.1974951E-03
   maximum displ.:     0.1670514 α      in ANC's #1, #4, #5, ...

........................................................................
.............................. CYCLE   26 ..............................
........................................................................
   1    -21.7362392 -0.217362E+02  0.377E-01    3.68       0.0  T
   2    -21.7362558 -0.165832E-04  0.234E-01    3.69       1.0  T
   3    -21.7362652 -0.942835E-05  0.228E-02    3.68       1.3  T
   4    -21.7362675 -0.225782E-05  0.120E-02    3.69       2.4  T
   5    -21.7362677 -0.151595E-06  0.444E-03    3.69       6.5  T
   6    -21.7362677 -0.408288E-07  0.138E-03    3.69      21.0  T
   7    -21.7362677 -0.591092E-08  0.421E-04    3.69      68.6  T
   8    -21.7362677 -0.221721E-09  0.195E-04    3.69     147.7  T
     SCC iter.                  ...        0 min,  0.002 sec
     gradient                   ...        0 min,  0.001 sec
 * total energy  :   -21.5631895 Eh     change       -0.1140901E-03 Eh
   gradient norm :     0.0096897 Eh/α   predicted    -0.1083643E-03 (  -5.02%)
   displ. norm   :     0.0860791 α      lambda       -0.1074681E-03
   maximum displ.:     0.0538003 α      in ANC's #2, #5, #1, ...

........................................................................
.............................. CYCLE   27 ..............................
........................................................................
   1    -21.7376918 -0.217377E+02  0.889E-02    3.71       0.0  T
   2    -21.7376932 -0.147314E-05  0.547E-02    3.70       1.0  T
   3    -21.7376937 -0.493661E-06  0.579E-03    3.70       5.0  T
   4    -21.7376938 -0.105556E-06  0.282E-03    3.70      10.3  T
   5    -21.7376939 -0.117211E-07  0.146E-03    3.70      19.8  T
     SCC iter.                  ...        0 min,  0.091 sec
     gradient                   ...        0 min,  0.002 sec
 * total energy  :   -21.5632670 Eh     change       -0.7744642E-04 Eh
   gradient norm :     0.0037405 Eh/α   predicted    -0.5413329E-04 ( -30.10%)
   displ. norm   :     0.1544300 α      lambda       -0.7202434E-04
   maximum displ.:     0.0764268 α      in ANC's #2, #5, #4, ...

........................................................................
.............................. CYCLE   28 ..............................
........................................................................
   1    -21.7376611 -0.217377E+02  0.174E-01    3.69       0.0  T
   2    -21.7376644 -0.334237E-05  0.108E-01    3.69       1.0  T
   3    -21.7376667 -0.225537E-05  0.948E-03    3.69       3.0  T
   4    -21.7376669 -0.261796E-06  0.566E-03    3.69       5.1  T
   5    -21.7376670 -0.418893E-07  0.156E-03    3.69      18.5  T
   6    -21.7376670 -0.639881E-08  0.537E-04    3.69      53.8  T
   7    -21.7376670 -0.815266E-09  0.156E-04    3.69     185.3  T
     SCC iter.                  ...        0 min,  0.004 sec
     gradient                   ...        0 min,  0.002 sec
 * total energy  :   -21.5633091 Eh     change       -0.4212316E-04 Eh
   gradient norm :     0.0050096 Eh/α   predicted    -0.3687049E-04 ( -12.47%)
   displ. norm   :     0.0301512 α      lambda       -0.4439860E-04
   maximum displ.:     0.0155049 α      in ANC's #2, #6, #5, ...

........................................................................
.............................. CYCLE   29 ..............................
........................................................................
   1    -21.7396494 -0.217396E+02  0.427E-02    3.71       0.0  T
   2    -21.7396501 -0.675335E-06  0.261E-02    3.71       1.1  T
   3    -21.7396500  0.384066E-07  0.622E-03    3.71       4.6  T
   4    -21.7396502 -0.196963E-06  0.165E-03    3.71      17.5  T
   5    -21.7396502 -0.733387E-08  0.861E-04    3.71      33.5  T
     SCC iter.                  ...        0 min,  0.003 sec
     gradient                   ...        0 min,  0.001 sec
 * total energy  :   -21.5633222 Eh     change       -0.1307416E-04 Eh
   gradient norm :     0.0035269 Eh/α   predicted    -0.2221957E-04 (  69.95%)
   displ. norm   :     0.0890286 α      lambda       -0.2691776E-04
   maximum displ.:     0.0465095 α      in ANC's #1, #4, #5, ...

........................................................................
.............................. CYCLE   30 ..............................
........................................................................
   1    -21.7386078 -0.217386E+02  0.108E-01    3.70       0.0  T
   2    -21.7386090 -0.119082E-05  0.665E-02    3.70       1.0  T
   3    -21.7386097 -0.676735E-06  0.546E-03    3.70       5.3  T
   4    -21.7386098 -0.989237E-07  0.311E-03    3.70       9.3  T
   5    -21.7386098 -0.108441E-07  0.134E-03    3.70      21.5  T
   6    -21.7386098 -0.368087E-08  0.387E-04    3.70      74.6  T
   7    -21.7386098 -0.533358E-09  0.116E-04    3.70     249.9  T
     SCC iter.                  ...        0 min,  0.093 sec
     gradient                   ...        0 min,  0.002 sec
 * total energy  :   -21.5633384 Eh     change       -0.1623507E-04 Eh
   gradient norm :     0.0022478 Eh/α   predicted    -0.1356666E-04 ( -16.44%)
   displ. norm   :     0.0364673 α      lambda       -0.9905135E-05
   maximum displ.:     0.0262402 α      in ANC's #4, #5, #2, ...

........................................................................
.............................. CYCLE   31 ..............................
........................................................................
   1    -21.7384219 -0.217384E+02  0.431E-02    3.70       0.0  T
   2    -21.7384222 -0.302162E-06  0.266E-02    3.70       1.1  T
   3    -21.7384224 -0.145683E-06  0.280E-03    3.70      10.3  T
   4    -21.7384224 -0.291401E-07  0.149E-03    3.70      19.3  T
   5    -21.7384224 -0.276021E-08  0.586E-04    3.70      49.3  T
   6    -21.7384224 -0.375291E-09  0.217E-04    3.70     133.1  T
     SCC iter.                  ...        0 min,  0.003 sec
     gradient                   ...        0 min,  0.091 sec
 * total energy  :   -21.5633455 Eh     change       -0.7080195E-05 Eh
   gradient norm :     0.0024841 Eh/α   predicted    -0.4957510E-05 ( -29.98%)
   displ. norm   :     0.0481749 α      lambda       -0.1545884E-04
   maximum displ.:     0.0375685 α      in ANC's #4, #6, #3, ...

........................................................................
.............................. CYCLE   32 ..............................
........................................................................
   1    -21.7385415 -0.217385E+02  0.694E-02    3.70       0.0  T
   2    -21.7385422 -0.717982E-06  0.435E-02    3.70       1.0  T
   3    -21.7385427 -0.448709E-06  0.418E-03    3.70       6.9  T
   4    -21.7385427 -0.437327E-07  0.246E-03    3.70      11.7  T
   5    -21.7385427 -0.870301E-08  0.734E-04    3.70      39.3  T
   6    -21.7385427 -0.979568E-09  0.207E-04    3.70     139.5  T
     SCC iter.                  ...        0 min,  0.003 sec
     gradient                   ...        0 min,  0.001 sec
 * total energy  :   -21.5633532 Eh     change       -0.7736632E-05 Eh
   gradient norm :     0.0024764 Eh/α   predicted    -0.7745966E-05 (   0.12%)
   displ. norm   :     0.0193765 α      lambda       -0.8625197E-05
   maximum displ.:     0.0136851 α      in ANC's #4, #3, #1, ...

........................................................................
.............................. CYCLE   33 ..............................
........................................................................
   1    -21.7388825 -0.217389E+02  0.249E-02    3.71       0.0  T
   2    -21.7388827 -0.168097E-06  0.155E-02    3.71       1.9  T
   3    -21.7388828 -0.746532E-07  0.184E-03    3.71      15.6  T
   4    -21.7388828 -0.449974E-08  0.783E-04    3.71      36.9  T
   5    -21.7388828 -0.560664E-09  0.359E-04    3.71      80.5  T
     SCC iter.                  ...        0 min,  0.093 sec
     gradient                   ...        0 min,  0.002 sec
 * total energy  :   -21.5633575 Eh     change       -0.4286897E-05 Eh
   gradient norm :     0.0012955 Eh/α   predicted    -0.4314242E-05 (   0.64%)
   displ. norm   :     0.0575698 α      lambda       -0.5550100E-05
   maximum displ.:     0.0307885 α      in ANC's #4, #3, #5, ...

........................................................................
.............................. CYCLE   34 ..............................
........................................................................
   1    -21.7387295 -0.217387E+02  0.748E-02    3.71       0.0  T
   2    -21.7387302 -0.731275E-06  0.467E-02    3.71       1.0  T
   3    -21.7387308 -0.526295E-06  0.400E-03    3.71       7.2  T
   4    -21.7387308 -0.251444E-07  0.249E-03    3.71      11.6  T
   5    -21.7387308 -0.985041E-08  0.477E-04    3.71      60.5  T
   6    -21.7387308 -0.659593E-09  0.186E-04    3.71     155.1  T
     SCC iter.                  ...        0 min,  0.003 sec
     gradient                   ...        0 min,  0.091 sec
 * total energy  :   -21.5633620 Eh     change       -0.4483927E-05 Eh
   gradient norm :     0.0010239 Eh/α   predicted    -0.2779527E-05 ( -38.01%)
   displ. norm   :     0.0234176 α      lambda       -0.3024781E-05
   maximum displ.:     0.0157669 α      in ANC's #1, #2, #6, ...

........................................................................
.............................. CYCLE   35 ..............................
........................................................................
   1    -21.7392155 -0.217392E+02  0.396E-02    3.72       0.0  T
   2    -21.7392159 -0.418326E-06  0.252E-02    3.72       1.1  T
   3    -21.7392160 -0.132329E-06  0.321E-03    3.72       9.0  T
   4    -21.7392161 -0.543970E-07  0.100E-03    3.72      28.8  T
   5    -21.7392161 -0.189107E-08  0.491E-04    3.72      58.8  T
   6    -21.7392161 -0.342258E-09  0.239E-04    3.72     120.6  T
     SCC iter.                  ...        0 min,  0.003 sec
     gradient                   ...        0 min,  0.001 sec
 * total energy  :   -21.5633635 Eh     change       -0.1487177E-05 Eh
   gradient norm :     0.0016923 Eh/α   predicted    -0.1512437E-05 (   1.70%)
   displ. norm   :     0.0146943 α      lambda       -0.1326445E-05
   maximum displ.:     0.0086674 α      in ANC's #5, #4, #3, ...

........................................................................
.............................. CYCLE   36 ..............................
........................................................................
   1    -21.7389988 -0.217390E+02  0.188E-02    3.71       0.0  T
   2    -21.7389989 -0.701989E-07  0.118E-02    3.71       2.5  T
   3    -21.7389989 -0.326010E-07  0.140E-03    3.71      20.6  T
   4    -21.7389989 -0.853949E-08  0.695E-04    3.71      41.5  T
   5    -21.7389989 -0.468816E-09  0.327E-04    3.71      88.3  T
     SCC iter.                  ...        0 min,  0.292 sec
     gradient                   ...        0 min,  0.001 sec
 * total energy  :   -21.5633648 Eh     change       -0.1302555E-05 Eh
   gradient norm :     0.0006250 Eh/α   predicted    -0.6626370E-06 ( -49.13%)
   displ. norm   :     0.0105518 α      lambda       -0.5334163E-06
   maximum displ.:     0.0068122 α      in ANC's #1, #2, #4, ...

   *** GEOMETRY OPTIMIZATION CONVERGED AFTER 36 ITERATIONS ***

------------------------------------------------------------------------
 total energy gain   :        -0.0159533 Eh      -10.0108 kcal/mol
 total RMSD          :         0.9460907 a0        0.5006 Å
 total power (kW/mol):        -1.1634821 (step)  -16.0990 (real)
------------------------------------------------------------------------

 ANCopt (total)                0 d,  0 h,  0 min,  2.602 sec
 optimizer setup                ...        0 min,  0.000 sec (  0.011%)
 model hessian                  ...        0 min,  0.007 sec (  0.279%)
 ANC generation                 ...        0 min,  0.001 sec (  0.033%)
 coordinate transformation      ...        0 min,  0.002 sec (  0.059%)
 single point calculation       ...        0 min,  2.482 sec ( 95.404%)
 optimization log               ...        0 min,  0.004 sec (  0.153%)
 hessian update                 ...        0 min,  0.003 sec (  0.123%)
 rational function              ...        0 min,  0.004 sec (  0.155%)

================
 final structure:
================
12
 xtb: 6.2.3 (830e466)
C         1.03842769265098    0.95166106594310   -1.82471960915098
C         0.13462438462509    1.02648626889428   -0.58772797504114
C         1.91670315545573   -0.28077850729106   -1.75892526064625
O         1.87296044514502    2.07370886023738   -1.95291499115259
O         1.08332455237082    3.20069694583190   -2.33717027976427
O         3.10452397847158   -0.31734893472705   -1.85817004974281
H         1.76290316145643    3.86345486823801   -2.51550143689785
H         0.74215183140476    1.06781961042368    0.31279073124008
H         0.41023448471110    0.85920457805492   -2.72675637852075
H         1.31131460816439   -1.19492147325303   -1.59451373108591
H        -0.51958365642518    0.16101688266286   -0.54597962844367
H        -0.46858463803069    1.92858983498502   -0.64621139079385
 
 Bond Distances (Angstroems)
 ---------------------------
C1-C2=1.5338         C1-C3=1.5148         C1-O4=1.4042         C1-H9=1.1031         C2-C1=1.5338         C2-H8=1.0871         
C2-H11=1.0857        C2-H12=1.0868        C3-C1=1.5148         C3-O6=1.1925         C3-H10=1.1087        O4-C1=1.4042         
O4-O5=1.4287         O5-O4=1.4287         O5-H7=0.9659         O6-C3=1.1925         H7-O5=0.9659         H8-C2=1.0871         
H9-C1=1.1031         H10-C3=1.1087        H11-C2=1.0857        H12-C2=1.0868        
 C  H  Rav=1.0943 sigma=0.0097  Rmin=1.0857  Rmax=1.1087     5
 C  C  Rav=1.5243 sigma=0.0095  Rmin=1.5148  Rmax=1.5338     2
 O  H  Rav=0.9659 sigma=0.0000  Rmin=0.9659  Rmax=0.9659     1
 O  C  Rav=1.2984 sigma=0.1059  Rmin=1.1925  Rmax=1.4042     2
 O  O  Rav=1.4287 sigma=0.0000  Rmin=1.4287  Rmax=1.4287     1
 
 selected bond angles (degree)
 --------------------
C3-C1-C2=110.26                O4-C1-C2=112.63                O4-C1-C3=108.03                H9-C1-C2=109.15                
H9-C1-C3=107.31                H9-C1-O4=109.31                H8-C2-C1=109.91                H11-C2-C1=110.32               
H11-C2-H8=109.59               H12-C2-C1=108.91               H12-C2-H8=108.86               H12-C2-H11=109.23              
O6-C3-C1=126.79                H10-C3-C1=111.14               H10-C3-O6=122.07               O5-O4-C1=109.05                
H7-O5-O4=101.66                
 
 selected dihedral angles (degree)
 ---------------------------------
H8-C2-C1-C3= 59.55            H8-C2-C1-O4=298.79            H8-C2-C1-H9=177.18            H11-C2-C1-C3=298.60           
H11-C2-C1-O4=177.84           H11-C2-C1-H9= 56.23           H12-C2-C1-C3=178.73           H12-C2-C1-O4= 57.97           
H12-C2-C1-H9=296.36           O6-C3-C1-C2=233.38            O6-C3-C1-O4=356.85            O6-C3-C1-H9=114.61            
H10-C3-C1-C2= 53.04           H10-C3-C1-O4=176.52           H10-C3-C1-H9=294.28           O5-O4-C1-C2=288.22            
O5-O4-C1-C3=166.20            O5-O4-C1-H9= 49.74            H7-O5-O4-C1=187.72            
           -------------------------------------------------
          |                Final Singlepoint                |
           -------------------------------------------------

          ...................................................
          :                      SETUP                      :
          :.................................................:
          :  # basis functions                  30          :
          :  # atomic orbitals                  30          :
          :  # shells                           18          :
          :  # electrons                        36          :
          :  max. iterations                   100          :
          :  Hamiltonian                  GFN2-xTB          :
          :  restarted?                      false          :
          :  GBSA solvation                  false          :
          :  PC potential                    false          :
          :  electronic temp.          300.0000000     K    :
          :  accuracy                    1.0000000          :
          :  -> integral cutoff          0.2500000E+02      :
          :  -> integral neglect         0.1000000E-07      :
          :  -> SCF convergence          0.1000000E-05 Eh   :
          :  -> wf. convergence          0.1000000E-03 e    :
          :  Broyden damping             0.4000000          :
          ...................................................

 iter      E             dE          RMSdq      gap      omega  full diag
   1    -21.7389989 -0.217390E+02  0.984E-05    3.71       0.0  T
   2    -21.7389989 -0.249365E-10  0.425E-05    3.71     678.7  T
   3    -21.7389989 -0.525802E-11  0.304E-05    3.71     948.7  T

   *** convergence criteria satisfied after 3 iterations ***

         #    Occupation            Energy/Eh            Energy/eV
      -------------------------------------------------------------
         1        2.0000           -0.7352420             -20.0070
       ...           ...                  ...                  ...
        12        2.0000           -0.5375832             -14.6284
        13        2.0000           -0.5153192             -14.0225
        14        2.0000           -0.4923228             -13.3968
        15        2.0000           -0.4869820             -13.2515
        16        2.0000           -0.4739037             -12.8956
        17        2.0000           -0.4227375             -11.5033
        18        2.0000           -0.4142495             -11.2723 (HOMO)
        19                         -0.2777684              -7.5585 (LUMO)
        20                         -0.1633912              -4.4461
        21                          0.0553061               1.5050
        22                          0.0802681               2.1842
        23                          0.0918652               2.4998
       ...                                ...                  ...
        30                          0.6256743              17.0255
      -------------------------------------------------------------
                  HL-Gap            0.1364811 Eh            3.7138 eV
             Fermi-level           -0.3460090 Eh           -9.4154 eV

 SCC (total)                   0 d,  0 h,  0 min,  0.003 sec
 SCC setup                      ...        0 min,  0.000 sec (  3.575%)
 Dispersion                     ...        0 min,  0.000 sec (  1.395%)
 integral evaluation            ...        0 min,  0.000 sec ( 15.658%)
 zeroth order Hamiltonian       ...        0 min,  0.000 sec (  1.871%)
 iterations                     ...        0 min,  0.001 sec ( 29.544%)
 molecular gradient             ...        0 min,  0.001 sec ( 39.388%)
 printout                       ...        0 min,  0.000 sec (  2.368%)

         :::::::::::::::::::::::::::::::::::::::::::::::::::::
         ::                     SUMMARY                     ::
         :::::::::::::::::::::::::::::::::::::::::::::::::::::
         :: total energy             -21.563364776964 Eh    ::
         :: gradient norm              0.000626971695 Eh/a0 ::
         :: HOMO-LUMO gap              3.713839127447 eV    ::
         ::.................................................::
         :: SCC energy               -21.738998918035 Eh    ::
         :: -> isotropic ES            0.046124607540 Eh    ::
         :: -> anisotropic ES         -0.003502636332 Eh    ::
         :: -> anisotropic XC         -0.004479044620 Eh    ::
         :: -> dispersion             -0.005958190189 Eh    ::
         :: repulsion energy           0.175625300518 Eh    ::
         :: add. restraining           0.000000000000 Eh    ::
         :::::::::::::::::::::::::::::::::::::::::::::::::::::

           -------------------------------------------------
          |                Property Printout                |
           -------------------------------------------------

    * Orbital Energies and Occupations

         #    Occupation            Energy/Eh            Energy/eV
      -------------------------------------------------------------
         1        2.0000           -0.7352420             -20.0070
       ...           ...                  ...                  ...
         6        2.0000           -0.6213394             -16.9075
         7        2.0000           -0.6131945             -16.6859
         8        2.0000           -0.5876473             -15.9907
         9        2.0000           -0.5648615             -15.3707
        10        2.0000           -0.5605432             -15.2532
        11        2.0000           -0.5501458             -14.9702
        12        2.0000           -0.5375832             -14.6284
        13        2.0000           -0.5153192             -14.0225
        14        2.0000           -0.4923228             -13.3968
        15        2.0000           -0.4869820             -13.2515
        16        2.0000           -0.4739037             -12.8956
        17        2.0000           -0.4227375             -11.5033
        18        2.0000           -0.4142495             -11.2723 (HOMO)
        19                         -0.2777684              -7.5585 (LUMO)
        20                         -0.1633912              -4.4461
        21                          0.0553061               1.5050
        22                          0.0802681               2.1842
        23                          0.0918652               2.4998
        24                          0.1255164               3.4155
        25                          0.1450639               3.9474
        26                          0.1603564               4.3635
        27                          0.1956793               5.3247
        28                          0.2312797               6.2934
        29                          0.2499001               6.8001
        30                          0.6256743              17.0255
      -------------------------------------------------------------
                  HL-Gap            0.1364811 Eh            3.7138 eV
             Fermi-level           -0.3460090 Eh           -9.4154 eV

     #   Z        covCN         q      C6AA      α(0)
     1   6 C      3.727     0.105    18.945     6.214
     2   6 C      3.753    -0.120    22.851     6.817
     3   6 C      2.758     0.207    23.610     7.957
     4   8 O      1.777    -0.196    17.249     5.608
     5   8 O      1.733    -0.325    19.424     5.951
     6   8 O      0.856    -0.281    19.447     5.912
     7   1 H      0.805     0.325     0.649     1.266
     8   1 H      0.925     0.060     2.202     2.321
     9   1 H      0.923     0.068     2.112     2.273
    10   1 H      0.922     0.032     2.553     2.499
    11   1 H      0.925     0.048     2.341     2.393
    12   1 H      0.925     0.076     2.025     2.225

 Mol. C6AA /au·bohr⁶  :       1234.914027
 Mol. C8AA /au·bohr⁸  :      26199.412147
 Mol. α(0) /au        :         51.435129


Wiberg/Mayer (AO) data.
largest (>0.10) Wiberg bond orders for each atom
          total WBO             WBO to atom ...
     1  C   3.949        O    4 0.988    C    2 0.975    C    3 0.970    H    9 0.929
     2  C   3.989        H    8 0.986    H   11 0.985    H   12 0.980    C    1 0.975
     3  C   3.923        O    6 1.956    C    1 0.970    H   10 0.926
     4  O   2.026        C    1 0.988    O    5 0.973
     5  O   1.901        O    4 0.973    H    7 0.887
     6  O   2.129        C    3 1.956
     7  H   0.894        O    5 0.887
     8  H   0.996        C    2 0.986
     9  H   0.995        C    1 0.929
    10  H   0.999        C    3 0.926
    11  H   0.998        C    2 0.985
    12  H   0.994        C    2 0.980

molecular dipole:
                 x           y           z       tot (Debye)
 q only:       -0.895       0.108       0.126
   full:       -1.015       0.142       0.079       2.614
molecular quadrupole (traceless):
                xx          xy          yy          xz          yz          zz
 q only:       -8.530       2.848       6.778       3.946      -1.554       1.753
  q+dip:      -11.258       4.944       8.094       4.738      -2.001       3.164
   full:      -11.574       4.685       8.159       4.728      -2.162       3.415

           -------------------------------------------------
          |                Geometry Summary                 |
           -------------------------------------------------

      molecular mass/u    :       90.0780670
   center of mass at/Å    :        1.5247188       1.1815846      -1.7345746
  moments of inertia/u·Å² :        0.8955652E+02   0.1894332E+03   0.2599106E+03
rotational constants/cm⁻¹ :        0.1882346E+00   0.8898985E-01   0.6485935E-01

 * 9 selected distances

     #   Z        #   Z                                     value/Å
     1   6 C      2   6 C                                 1.5338212 (max)
     1   6 C      4   8 O                                 1.4042330
     4   8 O      5   8 O                                 1.4287334
     3   6 C      6   8 O                                 1.1925205
     5   8 O      7   1 H                                 0.9658557 (min)
     2   6 C      8   1 H                                 1.0870750
     1   6 C      9   1 H                                 1.1031071
     2   6 C     11   1 H                                 1.0857110
     2   6 C     12   1 H                                 1.0867715

 * 5 distinct bonds (by element types)

   Z      Z             #   av. dist./Å        max./Å        min./Å
   1 H    6 C           4     1.0906661     1.1031071     1.0857110
   6 C    6 C           1     1.5338212     1.5338212     1.5338212
   1 H    8 O           1     0.9658557     0.9658557     0.9658557
   6 C    8 O           2     1.2983768     1.4042330     1.1925205
   8 O    8 O           1     1.4287334     1.4287334     1.4287334


optimized geometry written to: xtbopt.xyz


           -------------------------------------------------
          | TOTAL ENERGY              -21.563364776964 Eh   |
          | GRADIENT NORM               0.000626971695 Eh/α |
          | HOMO-LUMO GAP               3.713839127447 eV   |
           -------------------------------------------------

------------------------------------------------------------------------
 * finished run on 2020/12/23 at 21:43:56.463     
------------------------------------------------------------------------
 total:
 * wall-time:     0 d,  0 h,  0 min,  2.998 sec
 *  cpu-time:     0 d,  0 h,  0 min, 12.176 sec
 * ratio c/w:     4.062 speedup
 SCF:
 * wall-time:     0 d,  0 h,  0 min,  0.096 sec
 *  cpu-time:     0 d,  0 h,  0 min,  0.325 sec
 * ratio c/w:     3.376 speedup
 ANC optimizer:
 * wall-time:     0 d,  0 h,  0 min,  2.608 sec
 *  cpu-time:     0 d,  0 h,  0 min, 10.678 sec
 * ratio c/w:     4.094 speedup

