12
 energy: -21.637001473137 gnorm: 0.078402385554 xtb: 6.2.3 (830e466)
C         1.14541000000000    1.88593000000000   -1.74313000000000
C         0.53534000000000    0.80437000000000   -0.84333000000000
C         1.18416000000000   -0.53226000000000   -1.05613000000000
O         0.93369000000000    1.57149000000000   -3.09591000000000
O         0.52759000000000    3.11104000000000   -1.45754000000000
O         2.37657000000000   -0.68346000000000   -0.84256000000000
H         1.08520000000000    3.81479000000000   -1.88126000000000
H         2.23745000000000    1.97353000000000   -1.51868000000000
H         1.66244000000000    0.95505000000000   -3.36842000000000
H         0.59024000000000   -1.37528000000000   -1.39356000000000
H        -0.55235000000000    0.72050000000000   -1.05732000000000
H         0.66326000000000    1.09389000000000    0.22205000000000
12
 energy: -21.641582907579 gnorm: 0.031881100234 xtb: 6.2.3 (830e466)
C         1.15817151782348    1.87587394744980   -1.73225856943322
C         0.52021760137790    0.80074328569800   -0.83867292239013
C         1.19975105457954   -0.52385774532900   -1.03450384170850
O         0.96659864168851    1.58485065414209   -3.09515255521921
O         0.54186037438534    3.09332982574185   -1.44108770976506
O         2.38617599535424   -0.68228808663663   -0.87026229129450
H         1.03691482510865    3.79969452163143   -1.89525128666475
H         2.24275950014733    1.93762129628200   -1.50660967383362
H         1.65125964372834    0.95459250877008   -3.37614137248032
H         0.58231019188299   -1.35513735955941   -1.39260025110520
H        -0.55245967380002    0.74695988782443   -1.05846919103037
H         0.65544032772370    1.10720726398539    0.20521966492487
12
 energy: -21.642697213638 gnorm: 0.019500040356 xtb: 6.2.3 (830e466)
C         1.17594147486527    1.87768046346309   -1.71952718637383
C         0.51552385216314    0.79534887665319   -0.84219464044460
C         1.21887916054649   -0.51297228180321   -1.06118646568961
O         0.99869754009749    1.61623899688401   -3.09294247563823
O         0.56023717671691    3.08258224025636   -1.41613112046456
O         2.38778449102230   -0.69429632195683   -0.88130349500177
H         0.97962203704392    3.79218435123611   -1.92337728673868
H         2.25550087058495    1.91490696671347   -1.49079429817536
H         1.63749166311052    0.96482315756680   -3.38713107882952
H         0.55143373962288   -1.35620507823949   -1.33564036545319
H        -0.54173144774455    0.75078119707242   -1.07623262719812
H         0.64961944197068    1.10851743215410    0.19067104000746
12
 energy: -21.643539012299 gnorm: 0.017077416220 xtb: 6.2.3 (830e466)
C         1.18834317405146    1.88037744007891   -1.70668825391990
C         0.51599643576097    0.79344170505562   -0.83669550745464
C         1.21375029445858   -0.52167088855842   -1.02867454819604
O         1.02085109188510    1.63508700472356   -3.08556582765523
O         0.57542442571179    3.08023881597074   -1.40066566585800
O         2.39473792611865   -0.69497841732957   -0.92454637537557
H         0.94048312148734    3.78612442163508   -1.96269108355754
H         2.26654898964446    1.90555017276594   -1.47089440326000
H         1.62951107190747    0.95698730972108   -3.38290945171385
H         0.53840945447333   -1.34803123185697   -1.34321526835877
H        -0.53515724762098    0.74636062475608   -1.08602183023830
H         0.64010126212183    1.12010304303796    0.19277821558784
12
 energy: -21.644012641424 gnorm: 0.012521380051 xtb: 6.2.3 (830e466)
C         1.19492063543457    1.88744136575798   -1.70222539492734
C         0.51817401395610    0.79275406986527   -0.84406548505409
C         1.21274315992867   -0.52487283027359   -1.03106351502437
O         1.03318792902969    1.65758939895549   -3.08390055145246
O         0.58655802726843    3.08669507665613   -1.38915687446305
O         2.39918678158239   -0.69044951745862   -0.95183236833532
H         0.92666384639470    3.78184180318322   -1.97659512575403
H         2.27397948178906    1.90532899679606   -1.45811391824516
H         1.61584294066479    0.94564221971460   -3.37660721225479
H         0.53388518719512   -1.36086891539442   -1.30954259119781
H        -0.53431310653369    0.74133620882774   -1.10332026045777
H         0.62817110329016    1.11715212337014    0.19063329716619
12
 energy: -21.644680278325 gnorm: 0.025402327422 xtb: 6.2.3 (830e466)
C         1.21572617464037    1.90366376823045   -1.68909759764610
C         0.52359846916736    0.79031990615711   -0.86670159517345
C         1.20897712455317   -0.53273582967255   -1.04064462291661
O         1.06892375306656    1.71253714269402   -3.07591853789429
O         0.61798665135954    3.10165062076560   -1.35712657716782
O         2.40602020784089   -0.68137991613767   -1.03357871899007
H         0.88226447524214    3.76543250314955   -2.01984721111625
H         2.29653004136101    1.90799143235073   -1.42945683166693
H         1.58790715999777    0.93592059172779   -3.35627267941575
H         0.51677691687074   -1.39704621000424   -1.20016651910167
H        -0.53004706244111    0.73285679855770   -1.14852250383909
H         0.59433608834157    1.10037919218150    0.18154339492804
12
 energy: -21.645063946157 gnorm: 0.018180182582 xtb: 6.2.3 (830e466)
C         1.21829286113027    1.90598999478132   -1.69003471299102
C         0.52609694050459    0.79067265227019   -0.87669911606662
C         1.20665356382337   -0.53464386624950   -1.04327636331110
O         1.07222042093587    1.71929205239149   -3.07460545237281
O         0.62395319217305    3.10776279644720   -1.35664480053109
O         2.40247573748046   -0.68008641516969   -1.05620864789203
H         0.88087436597603    3.75393999898196   -2.01584269340088
H         2.29980016222929    1.91186816738812   -1.42793743163347
H         1.58488811506278    0.94821918128768   -3.35456851635694
H         0.51938402999582   -1.40736448179545   -1.15478751426616
H        -0.52902074062796    0.73277564106330   -1.16265501246737
H         0.58338135131643    1.09116427860338    0.17747026128948
12
 energy: -21.645578135420 gnorm: 0.019409113694 xtb: 6.2.3 (830e466)
C         1.23829934103032    1.90836613903218   -1.67555762416579
C         0.53026346741550    0.79028719011108   -0.88721589242338
C         1.20425539847862   -0.53682192721232   -1.04608923184928
O         1.09035595040821    1.73918745306194   -3.05915949949314
O         0.65140556912940    3.11408577254052   -1.33001758676726
O         2.39277211263012   -0.69139615416513   -1.10600703658547
H         0.82910355790411    3.73360590872463   -2.06345216260508
H         2.31958868360048    1.90912220073146   -1.41398537002156
H         1.57633879508737    0.96917987145935   -3.34815665811536
H         0.51679233661909   -1.40907914331903   -1.08758111356668
H        -0.52046319078464    0.74315250910715   -1.19248261875085
H         0.56028797848140    1.06990017992817    0.17391479434386
12
 energy: -21.646098067880 gnorm: 0.024998531927 xtb: 6.2.3 (830e466)
C         1.25369825228581    1.90944150152245   -1.66405419416263
C         0.52416329564507    0.79103281597497   -0.89923923181772
C         1.20592228629467   -0.53338897249467   -1.04302618984360
O         1.12404842501655    1.76453192902435   -3.05349049769474
O         0.67161744905098    3.11968355506745   -1.31642443992745
O         2.39719444867878   -0.68354236989445   -1.19212215380916
H         0.79335636431645    3.71861353221217   -2.07595078598902
H         2.32959110382596    1.90053053117207   -1.38755639408007
H         1.55979263642360    0.95278093465507   -3.33666399104597
H         0.51416559711152   -1.40785537394282   -1.00562964626153
H        -0.51687387107607    0.74825714479746   -1.22361122515600
H         0.53232401242667    1.05950477190594    0.16197874978790
12
 energy: -21.645920919251 gnorm: 0.027929529009 xtb: 6.2.3 (830e466)
C         1.25845652569815    1.90592720163442   -1.66253925033688
C         0.51865396317264    0.79345934148628   -0.90459617829842
C         1.21461575032406   -0.52596614409148   -1.03754349638250
O         1.13339106448860    1.76824352965134   -3.05577709955466
O         0.67847969450912    3.12319132139406   -1.31797251920214
O         2.38911212445697   -0.68701468334527   -1.20601812924006
H         0.78586623733401    3.72084950320447   -2.05074734357281
H         2.32747122686551    1.89125740533417   -1.38207109826606
H         1.53449135284415    0.92417882790580   -3.33901609630806
H         0.53649529884014   -1.38462265012792   -0.98823536754090
H        -0.50972959657175    0.75249372775645   -1.24076676324090
H         0.52169635803842    1.05759261919767    0.14949334194341
12
 energy: -21.646750030530 gnorm: 0.013147169073 xtb: 6.2.3 (830e466)
C         1.26727416771556    1.91242479966447   -1.65858040690089
C         0.52622922290620    0.79194867637710   -0.91504160420476
C         1.20798613827422   -0.53537638982049   -1.04250844817757
O         1.14843237508668    1.78067432895850   -3.05168509175388
O         0.68937237336571    3.13012895292072   -1.30662924231955
O         2.38097599296569   -0.69828529386745   -1.25732909508136
H         0.75589630940921    3.71431136952347   -2.06847384474045
H         2.33539827232918    1.89744405076023   -1.37209534141445
H         1.54823793315043    0.95301598227919   -3.33795728817773
H         0.51880197805154   -1.40595228350024   -0.90721961601353
H        -0.50226613159430    0.74860888156353   -1.26278986623529
H         0.51266136833988    1.05064692514096    0.14451984501947
12
 energy: -21.646909890773 gnorm: 0.019344543024 xtb: 6.2.3 (830e466)
C         1.27864402380816    1.91609636992109   -1.65127687006987
C         0.52940502417972    0.79302761373500   -0.91928961729258
C         1.20585617090623   -0.53738209169739   -1.04064062170270
O         1.16089285362117    1.79357184169778   -3.04393317491517
O         0.70978088322435    3.13705350290055   -1.29257368340946
O         2.37122998071623   -0.70340338752571   -1.30156812069875
H         0.72860843822118    3.70087379345692   -2.08914831470390
H         2.34688022363379    1.89598391859359   -1.36229885931928
H         1.53723342142246    0.95493703007305   -3.33063135098572
H         0.52641896753114   -1.40213884466296   -0.86378173659334
H        -0.49640211395648    0.74504422690674   -1.28630257907914
H         0.49045212669205    1.04592602660132    0.14565492876991
12
 energy: -21.647156212933 gnorm: 0.018861267829 xtb: 6.2.3 (830e466)
C         1.27913420736827    1.91588802662761   -1.65220731346692
C         0.53004806810273    0.79400950434956   -0.91731784773467
C         1.20288293855399   -0.53868373364633   -1.04000120656602
O         1.16471671240984    1.78809485661582   -3.04391176932629
O         0.71241398929507    3.13736797866764   -1.29510819373723
O         2.36086830533642   -0.70884329742090   -1.33089036105793
H         0.72394938959795    3.69681210933616   -2.08425290704179
H         2.34708391611892    1.89725596430453   -1.36029450006285
H         1.54772902992950    0.96308121054835   -3.32957028391328
H         0.53151557982548   -1.39633194044232   -0.83912656102095
H        -0.49534945905676    0.73895290532479   -1.28961652899078
H         0.48400732251857    1.05198641573507    0.14650747291871
12
 energy: -21.647445712992 gnorm: 0.016080230490 xtb: 6.2.3 (830e466)
C         1.29041025344393    1.92388790975451   -1.65087103721560
C         0.53109124645196    0.79395448081312   -0.93360777619228
C         1.20350249609456   -0.54112122128061   -1.04682475768268
O         1.18930861639118    1.81203528571940   -3.04579545471014
O         0.73397233049562    3.14683709214556   -1.28418619818068
O         2.33513472537383   -0.71735487706509   -1.40870307512617
H         0.69651528011108    3.68793672184481   -2.07251202632669
H         2.35602918976670    1.89499586753416   -1.34491337920244
H         1.53617474849527    0.95999126623219   -3.32508058809859
H         0.54853052339149   -1.39931510447315   -0.72645435744468
H        -0.48836331350307    0.72598174299235   -1.32534159575643
H         0.45669390348746    1.05176083578276    0.12850024593640
12
 energy: -21.647827113314 gnorm: 0.008340279436 xtb: 6.2.3 (830e466)
C         1.29444032520428    1.92418945910174   -1.64633590963560
C         0.53051153447195    0.79554472779801   -0.92838512575272
C         1.20214362355816   -0.53830017797173   -1.04925097066673
O         1.20021094168252    1.81032778010830   -3.04090252396965
O         0.74135938349012    3.14662809215573   -1.28309749658529
O         2.31725436212902   -0.72505286235385   -1.44189411773210
H         0.67528320683035    3.68024023455020   -2.08121095590300
H         2.35926618809194    1.88976185684402   -1.33586722946816
H         1.54060745649588    0.95216851075254   -3.31536551798043
H         0.56278409827289   -1.38090302116741   -0.71786757375403
H        -0.48626169669035    0.72697062373703   -1.32375089415047
H         0.45140057646322    1.05801477644540    0.12813831559820
12
 energy: -21.645877784463 gnorm: 0.075995613474 xtb: 6.2.3 (830e466)
C         1.31806208378314    1.92592414380456   -1.62648422949253
C         0.52820994089206    0.80108668691557   -0.92844362305836
C         1.19299321372229   -0.53308677733360   -1.05252198198556
O         1.25827544293319    1.81764150257627   -3.02169172402366
O         0.77542010998122    3.15457068756171   -1.27207465319221
O         2.26378228818668   -0.74676975121817   -1.63368362950985
H         0.58585938231982    3.64450469555744   -2.11126626226034
H         2.37422555173869    1.87834006566658   -1.29160072062989
H         1.56080463658443    0.94356951466589   -3.28301772154869
H         0.59382086999994   -1.33970936067977   -0.58053573118821
H        -0.47460870316541    0.73527157192390   -1.35418100334025
H         0.41215518302394    1.05824702055962    0.11971128022957
12
 energy: -21.648284015724 gnorm: 0.007682012578 xtb: 6.2.3 (830e466)
C         1.30444010543353    1.92648977439211   -1.63987460476744
C         0.53044225493319    0.79850979054168   -0.93175208376025
C         1.19570573318250   -0.53639690133839   -1.05695557699422
O         1.22374316586081    1.81200642772064   -3.03268399549647
O         0.75792041684786    3.15208993871426   -1.27816447688684
O         2.27675670303125   -0.73624944884795   -1.53545626914960
H         0.63529103313212    3.66196654016096   -2.08909635923825
H         2.36551267379099    1.88613445705611   -1.31839564257524
H         1.55560438503442    0.95192626642697   -3.30051441080342
H         0.59093072876721   -1.36418901875557   -0.63665045579309
H        -0.48165941421284    0.73433684809683   -1.34023258162739
H         0.43431221419897    1.05296532583234    0.12398645709222
12
 energy: -21.648456724743 gnorm: 0.008426072184 xtb: 6.2.3 (830e466)
C         1.30472897702070    1.92615571688797   -1.63874262433415
C         0.52828842484644    0.79949229289786   -0.93103606903610
C         1.19232402915264   -0.53554746064409   -1.05759468688323
O         1.23000160144377    1.81053138218921   -3.03160965775142
O         0.76011235176343    3.15399842833916   -1.28011347494488
O         2.26205794441195   -0.73585684219401   -1.56771372564437
H         0.63037587099070    3.65654614569448   -2.08891507307700
H         2.36400469340678    1.88644989450489   -1.31320671760853
H         1.56466154342553    0.94922551661005   -3.29548244533784
H         0.60451695762777   -1.36030002752712   -0.61608528533025
H        -0.48349979085354    0.73789706785608   -1.34098852606164
H         0.43142739676380    1.05099788538552    0.12569828600941
12
 energy: -21.648506603448 gnorm: 0.040014678887 xtb: 6.2.3 (830e466)
C         1.31468734588508    1.92692545256191   -1.63003021923346
C         0.52171531011145    0.80380770032717   -0.93310876655100
C         1.17557690909953   -0.53374821615198   -1.06855411008652
O         1.26519967162981    1.81183522235792   -3.02316306598858
O         0.78171120828278    3.16544644806237   -1.27975148217724
O         2.17536177177948   -0.74809825705435   -1.73363244097863
H         0.57822621402607    3.62439797367716   -2.10113832972370
H         2.36532891758779    1.88575923446078   -1.28402669183725
H         1.61204537267645    0.95282308136404   -3.27549476782653
H         0.66982258933934   -1.34292990784352   -0.48081294770938
H        -0.48684087335737    0.75605748626088   -1.35456017150942
H         0.41616556293959    1.03731378197761    0.12848299362171
12
 energy: -21.649004191642 gnorm: 0.011255264408 xtb: 6.2.3 (830e466)
C         1.31002815453078    1.92577719160881   -1.63178912128562
C         0.52447592030254    0.80336623527306   -0.92722164104496
C         1.17963673597787   -0.53323494375760   -1.06867022235114
O         1.25109642340319    1.80395993136998   -3.02380626959574
O         0.76704757916076    3.15968109994913   -1.28516984760332
O         2.20106937136909   -0.74546321211140   -1.67015861070497
H         0.59429952129471    3.63584605901056   -2.10266349605725
H         2.36329722455967    1.88860016686287   -1.29317249256289
H         1.60624944509403    0.94865524980265   -3.27879233003227
H         0.64622518724913   -1.34609647005837   -0.54996970608882
H        -0.48714441738575    0.75628223937495   -1.33791684996763
H         0.43271885444397    1.04221645267536    0.13354058729461
12
 energy: -21.649270584652 gnorm: 0.009964751340 xtb: 6.2.3 (830e466)
C         1.31184368871634    1.92705389784870   -1.62813631888200
C         0.52375809429479    0.80575258107882   -0.92369917651621
C         1.17365347459100   -0.53170691006015   -1.07864644253048
O         1.26132498598931    1.79861905305076   -3.01920433871509
O         0.76756354062546    3.16255106509554   -1.28949694845147
O         2.17018925141761   -0.75092704055039   -1.71835593819609
H         0.57645868659625    3.62650511587057   -2.11097462376414
H         2.36284465544899    1.89118694845443   -1.28155794063807
H         1.62911863757237    0.94444945162801   -3.26677636859076
H         0.66407214138176   -1.33852799362501   -0.52562725473631
H        -0.48901064456025    0.76334668557506   -1.33157988450595
H         0.43718348792637    1.04128714563366    0.13826523552658
12
 energy: -21.649545819269 gnorm: 0.007290146774 xtb: 6.2.3 (830e466)
C         1.31119346684624    1.92979216919774   -1.62391541472966
C         0.52859818424371    0.80868904602038   -0.91206004503149
C         1.17514461465906   -0.52971335609570   -1.07403897973601
O         1.26972326846722    1.78827615488547   -3.01426505649648
O         0.75287945655083    3.16325338543356   -1.29967467202244
O         2.13496263316034   -0.75494055951444   -1.76308280752352
H         0.56559447357347    3.61760409572822   -2.12898861507520
H         2.36083542016900    1.90632464295481   -1.27031411635164
H         1.66973761720175    0.94347595817002   -3.25290679401953
H         0.65824173909141   -1.34481957739410   -0.53520354553278
H        -0.48834911618472    0.76328733135719   -1.31120814705551
H         0.45043824222167    1.04836070925684    0.14986819357427
12
 energy: -21.649932092442 gnorm: 0.006563180420 xtb: 6.2.3 (830e466)
C         1.30876048552658    1.93163548928243   -1.61764901610360
C         0.52847041586969    0.81041861409404   -0.90204341273270
C         1.15738748984572   -0.53294854886790   -1.09574402009478
O         1.28252790592340    1.77636350337664   -3.00724005564972
O         0.73435827752708    3.16300679935929   -1.31070749705955
O         2.08116996951454   -0.75879985054575   -1.83128591407299
H         0.55810262468816    3.60749849937481   -2.15028795235839
H         2.35558148659592    1.92077392878721   -1.25194077323113
H         1.73237859441947    0.94730074346454   -3.23501924311446
H         0.68173450452113   -1.34322903338079   -0.50514207066560
H        -0.49394721052396    0.76950282617901   -1.29037934309176
H         0.46247545609227    1.04806702887645    0.16164929817468
12
 energy: -21.650084857905 gnorm: 0.009096064702 xtb: 6.2.3 (830e466)
C         1.30580507563172    1.93327553986013   -1.61135719723094
C         0.52846088931658    0.81270482963111   -0.89152330774490
C         1.14712962260283   -0.53150912999817   -1.11284936550788
O         1.29835137850719    1.76271497576356   -2.99891514449222
O         0.71950980354383    3.16430629526658   -1.32400036370799
O         2.03683249052339   -0.75890448496105   -1.89253891639972
H         0.55366322252424    3.59811933131541   -2.17154011012833
H         2.34815172393766    1.93275229594001   -1.23233612612728
H         1.77283397574162    0.94255973378545   -3.21065110879759
H         0.70414097961044   -1.33812430090647   -0.48949271046975
H        -0.49647065117730    0.78010744414549   -1.27457614654031
H         0.47059148923781    1.04158747015795    0.17399049714694
12
 energy: -21.650193872160 gnorm: 0.003480443696 xtb: 6.2.3 (830e466)
C         1.30620310438976    1.93590262235234   -1.60736741446045
C         0.53079467146618    0.81418122815025   -0.88685788135585
C         1.14178659956584   -0.53038285285949   -1.12345887266232
O         1.30949457509775    1.75507521171711   -2.99237435948059
O         0.71201029349815    3.16605643889245   -1.33342558419511
O         2.01521756226982   -0.75954521508156   -1.91677728317766
H         0.54947228374557    3.59165920426879   -2.18458765253003
H         2.34550025746399    1.94378114937056   -1.22076414145330
H         1.78106929500392    0.93460251449677   -3.19127997165455
H         0.71535619967025   -1.33419578351457   -0.49075751449874
H        -0.49466098232751    0.79065982083495   -1.26852789492753
H         0.47675614015627    1.03179566137242    0.18038857039615
12
 energy: -21.650246257398 gnorm: 0.004289737798 xtb: 6.2.3 (830e466)
C         1.30783002219435    1.93969666312018   -1.60428124357399
C         0.53404391506852    0.81521715527105   -0.88478804601531
C         1.13808150587227   -0.53088250144383   -1.12830026168522
O         1.32292258443955    1.75168687692852   -2.98722443046269
O         0.70248350413454    3.16656082121200   -1.34144060851914
O         1.99110435224975   -0.76801122873472   -1.94301444156904
H         0.54190166137796    3.58546823985187   -2.19533775060340
H         2.34401216657451    1.95906161108204   -1.20901666505289
H         1.79180122626473    0.92847607839157   -3.17516881561859
H         0.72241072513112   -1.33117691045777   -0.48899883084039
H        -0.49330908458699    0.79826891207064   -1.26196089644442
H         0.48571742127969    1.02522428270845    0.18374199038512
12
 energy: -21.650278077526 gnorm: 0.003261542727 xtb: 6.2.3 (830e466)
C         1.31010265836834    1.94280493432092   -1.60344234242082
C         0.53680878583127    0.81556348154870   -0.88647598311880
C         1.13563287927860   -0.53230156140263   -1.13097879629013
O         1.33473527130767    1.75421337415351   -2.98542753625558
O         0.69652683700030    3.16586859656234   -1.34490745188250
O         1.97798362868477   -0.77595336067627   -1.95300243722036
H         0.53518928351441    3.58209604787089   -2.19942056205399
H         2.34342513184076    1.96948440700932   -1.20116678484143
H         1.79168594281816    0.92306073452945   -3.16772819359876
H         0.72594485426026   -1.32983677979131   -0.48657942996299
H        -0.49197635167410    0.80347987119014   -1.25981016901388
H         0.49294107876957    1.02111025468496    0.18314968665927
12
 energy: -21.650306933215 gnorm: 0.002689934260 xtb: 6.2.3 (830e466)
C         1.31300574862554    1.94687635675219   -1.60057990523555
C         0.53964990658017    0.81656274728892   -0.88717999815750
C         1.13137537671318   -0.53329605015898   -1.13817060244489
O         1.35561687268379    1.75633357136328   -2.98153056088232
O         0.68659325706770    3.16518412075254   -1.35075885820516
O         1.95338283589285   -0.78435951632492   -1.97954891926551
H         0.52598584314137    3.57658297015043   -2.20799301846107
H         2.34122358975502    1.98316602717671   -1.18532202069275
H         1.79513896282347    0.91211074009740   -3.15482579782462
H         0.73625190020712   -1.32736746688974   -0.47839239908594
H        -0.49102225295302    0.81029925301378   -1.25528644068847
H         0.50179795946282    1.01749724677839    0.18379852094379
12
 energy: -21.650318944082 gnorm: 0.001208180015 xtb: 6.2.3 (830e466)
C         1.31526160249582    1.94833884096373   -1.59921800177304
C         0.54102970940981    0.81675849524935   -0.88848973599232
C         1.13153179680306   -0.53347241683329   -1.14013079557691
O         1.36510834530833    1.76030684303576   -2.98004459998745
O         0.68516319032028    3.16507667225088   -1.35122692404307
O         1.94910170163375   -0.78612801443717   -1.98376219857787
H         0.52265159738392    3.57504685557798   -2.20930671342562
H         2.34112191747327    1.98651974453408   -1.17922976931009
H         1.78583558163957    0.90455286114914   -3.15261975590717
H         0.73909104721026   -1.32686324931833   -0.47728540394807
H        -0.48926760041536    0.81082359157029   -1.25680588837966
H         0.50237111073729    1.01862977625757    0.18232978692130
12
 energy: -21.650323150458 gnorm: 0.000734152074 xtb: 6.2.3 (830e466)
C         1.31600725360003    1.94823014273899   -1.59797957300627
C         0.54138066540167    0.81682066066681   -0.88764551892025
C         1.13204035136614   -0.53319677029296   -1.14052239518577
O         1.36630012290980    1.76048826047567   -2.97867969433903
O         0.68636359982727    3.16583250485461   -1.35099276718016
O         1.94781754482598   -0.78475782269554   -1.98704902679094
H         0.52278877588796    3.57418147676212   -2.20994737441663
H         2.34163164835314    1.98605631077074   -1.17767701631174
H         1.78262414594494    0.90300831487035   -3.15293418603894
H         0.74093096072832   -1.32640561118316   -0.47588094074030
H        -0.48793274901569    0.80894439761144   -1.25907227317397
H         0.49904768017045    1.02038813542094    0.18259076610403
