12
 energy: -21.489646336038 gnorm: 0.192491051778 xtb: 6.2.3 (830e466)
C         0.33107000000000    1.59934000000000   -2.46653000000000
C        -0.29400000000000    1.12868000000000   -1.38100000000000
C         2.48928000000000   -0.75266000000000   -0.83987000000000
O         0.80225000000000    2.86863000000000   -2.54485000000000
O         0.68767000000000    3.71605000000000   -1.57334000000000
O         2.94836000000000   -1.12893000000000    0.22518000000000
H         1.49737000000000    4.28289000000000   -1.64026000000000
H         2.82857000000000    0.17959000000000   -1.27787000000000
H         0.46690000000000    0.94248000000000   -3.31933000000000
H         1.73754000000000   -1.34739000000000   -1.34720000000000
H        -0.65381000000000    0.10461000000000   -1.36739000000000
H        -0.45220000000000    1.74630000000000   -0.50333000000000
12
 energy: -21.506160802893 gnorm: 0.075717009832 xtb: 6.2.3 (830e466)
C         0.32776378773904    1.59006468047903   -2.45450272660835
C        -0.28995127848137    1.12528483261791   -1.37311831754750
C         2.49110166622304   -0.75422160601788   -0.82356887921186
O         0.81599237605538    2.84981079353498   -2.60826002486483
O         0.68879871386574    3.71541585971411   -1.55846698478493
O         2.94744773567504   -1.12680868211738    0.22260706095702
H         1.48450889207158    4.27950358918394   -1.61859196654718
H         2.82670338128335    0.17818987222744   -1.28551767989416
H         0.46996268474904    0.96846108544271   -3.32319524628604
H         1.73952092846499   -1.34528929912522   -1.35370430051188
H        -0.66003236883947    0.11523581915955   -1.35206837035261
H        -0.45281651880637    1.74394305490081   -0.50740256434770
12
 energy: -21.507368590613 gnorm: 0.036855800774 xtb: 6.2.3 (830e466)
C         0.31145952696428    1.59085528762061   -2.44733577745897
C        -0.29539634778620    1.12942553270463   -1.37001265285845
C         2.56000392936840   -0.80061881116215   -0.85087478163761
O         0.82704214877879    2.83287047069833   -2.65365212212796
O         0.69379551676868    3.69392206929764   -1.53961928896281
O         2.92331017643011   -1.10734109559693    0.24792539412564
H         1.46981704633811    4.26491124281410   -1.61124723475960
H         2.80074559521535    0.18931868564233   -1.28296700858297
H         0.47781302780845    1.00445745047993   -3.33749245985595
H         1.72227170535567   -1.32473222339083   -1.34854978357061
H        -0.65664820235567    0.12163396191239   -1.33811485442851
H        -0.44521412288594    1.74488742897996   -0.50384942988216
12
 energy: -21.482121242332 gnorm: 0.148672800447 xtb: 6.2.3 (830e466)
C         0.27872146464354    1.59099872035429   -2.42109655920336
C        -0.31028395156219    1.13831763501017   -1.36034775171593
C         2.39475656676950   -0.68756245219397   -0.69190626935425
O         0.86016259530795    2.78903129328658   -2.75616685575019
O         0.70357649306245    3.65138361091477   -1.49848098282356
O         2.98695964371881   -1.14820173529034    0.22695870227737
H         1.43201994512612    4.24051941067198   -1.60653487936296
H         2.84473149374000    0.14209379280104   -1.34720120299332
H         0.50736618021391    1.08654917152187   -3.36430595755647
H         1.78630227724350   -1.34728748253023   -1.40934579657071
H        -0.65580416822689    0.13577119602910   -1.31232724145862
H        -0.43950854003670    1.74797683942469   -0.49503520548809
12
 energy: -21.509815256803 gnorm: 0.024459120484 xtb: 6.2.3 (830e466)
C         0.30476106076079    1.59037724125455   -2.45050349560216
C        -0.29856197516864    1.13336504405029   -1.36863346645283
C         2.48252773355998   -0.74641737350557   -0.78544223082867
O         0.83748396652651    2.81572488652707   -2.67223133964661
O         0.69829879847551    3.66935881902908   -1.52314879962515
O         2.95692967390773   -1.12783722884651    0.23412226355080
H         1.45514324832060    4.26092635667394   -1.61279924351340
H         2.81933131197947    0.16704656988875   -1.30268686369356
H         0.48260134832838    1.03310415695484   -3.35991945024091
H         1.75266611157916   -1.33376550309473   -1.36676737629499
H        -0.66210629897296    0.12644437050647   -1.32681500854546
H        -0.44007497929651    1.75126266056180   -0.50096498910710
12
 energy: -21.510661275417 gnorm: 0.007157492264 xtb: 6.2.3 (830e466)
C         0.30924426201079    1.58718593972730   -2.44871319410136
C        -0.29566296381698    1.12956288860687   -1.36921642041720
C         2.50459033300917   -0.75849628708957   -0.80646789303214
O         0.83757841193880    2.81850608528243   -2.64877912625834
O         0.70266302055437    3.67278436221321   -1.52399073819613
O         2.93735527898996   -1.11022103519065    0.25012377029508
H         1.45886729741180    4.26902384265695   -1.61932490760979
H         2.82409493311513    0.17091110593862   -1.30439382080196
H         0.46827040147054    1.02276829831859   -3.35715156586965
H         1.75511588407630   -1.33850453929796   -1.36844101318446
H        -0.67656831971736    0.12738355618690   -1.33709911766514
H        -0.43654853904248    1.74868578264730   -0.50233597315895
12
 energy: -21.510717177020 gnorm: 0.002142739125 xtb: 6.2.3 (830e466)
C         0.30611848576158    1.58617588164456   -2.44844632390673
C        -0.29981288050900    1.12759366302557   -1.37057219939414
C         2.50750941339967   -0.75782738630762   -0.80588968557719
O         0.84333147034928    2.81508348956494   -2.64677342975794
O         0.70915347402807    3.66997493536851   -1.51861192031150
O         2.93582142052803   -1.10645551018658    0.25093154834790
H         1.45804918467939    4.27368707369415   -1.62405315182564
H         2.82476875318669    0.17333771850493   -1.30301633279174
H         0.46370489768378    1.02459115450560   -3.35965124863300
H         1.75717909465712   -1.33758643037905   -1.36813084226063
H        -0.68475575646288    0.12706394632176   -1.34114076086940
H        -0.43206755730168    1.74395146424322   -0.50043565302003
12
 energy: -21.510784217809 gnorm: 0.005541690776 xtb: 6.2.3 (830e466)
C         0.30219673457844    1.58292467106417   -2.44736450291360
C        -0.30615881697589    1.12186137779965   -1.37209416023658
C         2.51179103379028   -0.75386965187316   -0.80512359745169
O         0.85699441409613    2.80683898962751   -2.63780592688728
O         0.72613969865763    3.66229581233104   -1.50553915456435
O         2.92984007698306   -1.09508117167332    0.25620914001459
H         1.45581769517619    4.28629428421628   -1.63680599184824
H         2.82965030775322    0.17741140137552   -1.30334658264314
H         0.44927652118975    1.02784723930666   -3.36526954780142
H         1.76525307373328   -1.33740950000581   -1.37043659245161
H        -0.70668513486428    0.12704515848415   -1.35167891430954
H        -0.42511560411771    1.73343138934728   -0.49653416890721
12
 energy: -21.510853097537 gnorm: 0.008425771003 xtb: 6.2.3 (830e466)
C         0.29532018437925    1.57837975234183   -2.44674839881456
C        -0.31795995155243    1.11503185938223   -1.37501166479715
C         2.51703726749255   -0.74547152870953   -0.80508692458059
O         0.87938611891572    2.79242426920452   -2.62253800582029
O         0.75267260851530    3.64838837706395   -1.48697207756745
O         2.91790502507641   -1.07410596303592    0.26658879371654
H         1.45212785677443    4.30138949239825   -1.65345131602576
H         2.83991334610358    0.18251063395163   -1.30738625265004
H         0.42729026202761    1.03171905174465   -3.37225433473614
H         1.78019593783499   -1.33705199972772   -1.37636112319979
H        -0.74002837170195    0.12858672370908   -1.36660120931594
H        -0.41486028386526    1.71778933167702   -0.48996748620892
12
 energy: -21.510928010652 gnorm: 0.006716747057 xtb: 6.2.3 (830e466)
C         0.29137088842497    1.57345319023669   -2.44543042233050
C        -0.32715404739149    1.11044721182396   -1.37618507206208
C         2.52098606265483   -0.73519009861618   -0.80651307530243
O         0.90088744664391    2.77694597213678   -2.60911504449667
O         0.77505672220791    3.63406292982167   -1.47384551893949
O         2.90533876374362   -1.05131897709738    0.27606980938624
H         1.44909064502522    4.30607722266980   -1.66198709640005
H         2.85196966409586    0.18654254658676   -1.31489491860923
H         0.40749995276942    1.03426783785469   -3.37709823839151
H         1.79548294842015   -1.33539949399008   -1.38343494864929
H        -0.77170918792618    0.13331274025407   -1.37818069200971
H        -0.40981985866794    1.70638891831918   -0.48517478219543
12
 energy: -21.511028751314 gnorm: 0.003761654520 xtb: 6.2.3 (830e466)
C         0.28805750667196    1.56634650298670   -2.44355173354887
C        -0.33908491079041    1.10720638259553   -1.37730153127021
C         2.52379051434504   -0.71818565068844   -0.81035865300255
O         0.92782039063949    2.75400537605888   -2.59281885668051
O         0.80416958546856    3.60946341366270   -1.45815151055468
O         2.88696963705300   -1.01902779454105    0.28571708438371
H         1.44445414685130    4.30372605639363   -1.66812338896644
H         2.86934736095498    0.19228444161215   -1.32775575390631
H         0.38682599713929    1.03555536351052   -3.38055411025816
H         1.81346606879583   -1.32874788896447   -1.39355386279211
H        -0.80935510584788    0.14271721735880   -1.38942492223379
H        -0.40746119128077    1.69424658001499   -0.47991276117028
12
 energy: -21.511077393371 gnorm: 0.009186490863 xtb: 6.2.3 (830e466)
C         0.28554602039401    1.55608861930467   -2.44077237472125
C        -0.35244912363139    1.10193922869002   -1.37883524364043
C         2.52593339167643   -0.69563430194600   -0.81492711178980
O         0.95801323785549    2.72554558466546   -2.57421058715635
O         0.84583752034952    3.57217886896856   -1.43278422988580
O         2.86757526997286   -0.98280684433571    0.29225402352735
H         1.43720009547384    4.30468191038466   -1.68061139343279
H         2.88665193837268    0.20398380701910   -1.33931482382760
H         0.36524437014815    1.03608419126440   -3.38540665495179
H         1.82875041789547   -1.31417530270175   -1.40365798487331
H        -0.85410398821122    0.15299346957585   -1.40351813406105
H        -0.40519915029528    1.67871076911065   -0.47400548518747
12
 energy: -21.511164849632 gnorm: 0.004613174782 xtb: 6.2.3 (830e466)
C         0.28373015946189    1.54665117492968   -2.43975114719267
C        -0.36630852619488    1.10224591721259   -1.38095772209970
C         2.52570261648501   -0.67163284902350   -0.82089990585042
O         0.97804671649198    2.70091556604471   -2.56585545231768
O         0.87446621914044    3.53961731477466   -1.42139154902409
O         2.85958370515910   -0.95532802036419    0.28782521234908
H         1.43914819482043    4.28192945990610   -1.67274668865538
H         2.89689404190093    0.22085282317940   -1.34741792875513
H         0.35865002351361    1.02920710630305   -3.38446077946403
H         1.83259448517474   -1.29126923691831   -1.40964154553389
H        -0.88323178070452    0.16356462223936   -1.40838724537368
H        -0.41027585524801    1.67283612171630   -0.47210524808277
12
 energy: -21.511243242435 gnorm: 0.006741246517 xtb: 6.2.3 (830e466)
C         0.27662388611926    1.53490832547774   -2.43823233310486
C        -0.38485261405924    1.09770185898367   -1.38364386637504
C         2.53066081984573   -0.64589395491448   -0.82879010167202
O         1.00380147463069    2.67262110588197   -2.55220925583628
O         0.91755672626125    3.50175830197849   -1.39883400338947
O         2.83849009656868   -0.91309086373067    0.29432934307471
H         1.44266354860445    4.26745187532145   -1.67244574431551
H         2.91332380859932    0.23971814628292   -1.35958216775583
H         0.34054444276192    1.02313374618596   -3.38763695946639
H         1.84473074755596   -1.27015084528531   -1.42230886632710
H        -0.92510380183652    0.17170335748325   -1.41920327482230
H        -0.40943913505063    1.65972894633482   -0.46723277001039
12
 energy: -21.511330938882 gnorm: 0.007317494699 xtb: 6.2.3 (830e466)
C         0.27139709419102    1.51981915783486   -2.43600566983468
C        -0.40032557386410    1.09047947909090   -1.38544577004471
C         2.53301279724864   -0.61477385552611   -0.83563133218952
O         1.02296149974102    2.64436022878475   -2.54233384452326
O         0.96702433651141    3.45939394054627   -1.37352643769249
O         2.82607337555001   -0.87548638134512    0.29190975474938
H         1.45227924809346    4.24681650132395   -1.66901565531200
H         2.92333609469620    0.26851936695156   -1.36572590441713
H         0.32539843831313    1.01265687284842   -3.39089146007600
H         1.84698316502997   -1.23820898671184   -1.43263055673398
H        -0.96357527799360    0.17729522884877   -1.42903048626468
H        -0.41556519751604    1.64871844735335   -0.46746263766151
12
 energy: -21.511408934681 gnorm: 0.006202661947 xtb: 6.2.3 (830e466)
C         0.26739659847559    1.50617994145363   -2.43406043051510
C        -0.41206907762565    1.08429576214262   -1.38629136131626
C         2.53258738734636   -0.58769118669454   -0.84325822860293
O         1.02394897210613    2.62733644705747   -2.54227136988635
O         1.00239722634202    3.42935634334909   -1.35911606355446
O         2.81701503521205   -0.84854442919578    0.28535775359697
H         1.47237832106919    4.21831103538862   -1.65472075569484
H         2.92722762080482    0.29751738718549   -1.36940264566166
H         0.32425859844508    0.99600330196507   -3.38853194540116
H         1.83815231912535   -1.20388107057750   -1.44249674624256
H        -0.97876152953159    0.17562865535574   -1.43006137279406
H        -0.42553147176808    1.64507781256981   -0.47093683392825
12
 energy: -21.511491979179 gnorm: 0.006375437547 xtb: 6.2.3 (830e466)
C         0.26607908792526    1.48580273207863   -2.42899506548238
C        -0.43298716236164    1.07618219837667   -1.38771775237719
C         2.52790793130835   -0.54495503514640   -0.85420829399606
O         1.04635157626635    2.59216820622380   -2.52955914023710
O         1.05708695795788    3.37961453609073   -1.33688496356424
O         2.79642123623497   -0.80470763482154    0.27716997581370
H         1.48336938728559    4.19287097274619   -1.64701106621146
H         2.94237638599802    0.33155202274998   -1.38170819456933
H         0.31904119458344    0.97609355088968   -3.38231181343975
H         1.83454905732379   -1.15726022186703   -1.45878589084038
H        -1.01857175830342    0.17978295097659   -1.43741232214685
H        -0.43262389421706    1.63244572170235   -0.46836547294974
12
 energy: -21.511564572807 gnorm: 0.005968933325 xtb: 6.2.3 (830e466)
C         0.26843632193730    1.46277688428243   -2.42086273246046
C        -0.44693562273090    1.06646531371623   -1.38454696246661
C         2.52071691018313   -0.49764021790927   -0.86887719070286
O         1.06971618373809    2.55400086276441   -2.51618868045913
O         1.10939263728350    3.32809745219760   -1.31970678570094
O         2.76397713101984   -0.75360223595586    0.27098042242046
H         1.49696735588653    4.16041045421820   -1.63406556029523
H         2.96132766605164    0.36576998524409   -1.39822151144177
H         0.31256132714966    0.95407543286591   -3.37439868441510
H         1.83333158380373   -1.10601475808682   -1.48275469759680
H        -1.05780202816813    0.18368965464979   -1.44181341155508
H        -0.44268946615256    1.62156117201288   -0.46533420532738
12
 energy: -21.511626062955 gnorm: 0.003253690664 xtb: 6.2.3 (830e466)
C         0.26625582670074    1.44829524414166   -2.41787314647010
C        -0.45458096610964    1.05962226875008   -1.38332975556849
C         2.50988629769741   -0.46173806251738   -0.87773285795600
O         1.08131596323844    2.52936481244649   -2.51046980922707
O         1.14303654142955    3.29274411440406   -1.31228820648611
O         2.74303021024910   -0.72363164981414    0.26204553965231
H         1.51363104897622    4.13089772209663   -1.62119471531054
H         2.96459148657101    0.39531240425605   -1.40110486942099
H         0.30796467905995    0.93890235810014   -3.37032799412072
H         1.82788665726441   -1.06475440810083   -1.50063652945963
H        -1.06451696858264    0.18041356200989   -1.43989396681553
H        -0.44950077649258    1.61416163422690   -0.46298368881812
12
 energy: -21.511661682376 gnorm: 0.004197565666 xtb: 6.2.3 (830e466)
C         0.25991717358051    1.43687796578573   -2.41793061373290
C        -0.46055315601139    1.05279971027845   -1.38294582516842
C         2.50579588991906   -0.43086666005068   -0.88422121221523
O         1.09201535531246    2.50595570118782   -2.50682824300883
O         1.17971431890945    3.25524268353813   -1.29803705942953
O         2.72130678506483   -0.69090132963849    0.26093144191585
H         1.52665915768819    4.10242918056432   -1.61241655315495
H         2.97015430835752    0.42296334525905   -1.40167640874979
H         0.29396497149975    0.93176294263997   -3.37405620478790
H         1.82955036821779   -1.03132885532804   -1.51612098251589
H        -1.08255070815594    0.18151121453340   -1.44370937820636
H        -0.44697446438007    1.60314410122986   -0.45877896094712
12
 energy: -21.511684880435 gnorm: 0.005009808415 xtb: 6.2.3 (830e466)
C         0.25835035767253    1.43113225392190   -2.41813368107984
C        -0.46114358608063    1.04873415973978   -1.38200690660205
C         2.50343989098383   -0.41420269813101   -0.88668138320094
O         1.10076892598216    2.49226167932087   -2.50671074137521
O         1.19490495334391    3.23535958791403   -1.29520563855176
O         2.71096245188619   -0.67617237557773    0.25901457666330
H         1.53309016197984    4.08484163653622   -1.60566267799140
H         2.97009160803318    0.44115317789341   -1.39657990839673
H         0.28241957413997    0.93134203668380   -3.37891303369419
H         1.83079288375743   -1.01257141087143   -1.52393821549445
H        -1.09598021037130    0.18313420152224   -1.44676089730349
H        -0.43869701132485    1.59457775104741   -0.45421149297434
12
 energy: -21.511657507420 gnorm: 0.005262107887 xtb: 6.2.3 (830e466)
C         0.25424119538743    1.43284227340162   -2.42055833575225
C        -0.46289351195897    1.04852732232354   -1.38272127318204
C         2.51441723718872   -0.41989411307522   -0.88845799987528
O         1.10049999909230    2.49022218644746   -2.50816512368158
O         1.19516187640355    3.23198516505379   -1.29635161446703
O         2.69963407724751   -0.66906888556982    0.26349803761511
H         1.53787452912800    4.08119381744860   -1.60502069731540
H         2.97021639875490    0.44681814641716   -1.39218609182548
H         0.27326101777140    0.93706417016270   -3.38216207486807
H         1.83580145286804   -1.01254893268087   -1.52474959340698
H        -1.09773784132274    0.18575284185795   -1.44612249690885
H        -0.43147643055789    1.58669600821257   -0.45279273633328
12
 energy: -21.511614814685 gnorm: 0.014006070091 xtb: 6.2.3 (830e466)
C         0.23656469104519    1.44020072551605   -2.43094522915225
C        -0.47041723863485    1.04769917522463   -1.38589985973961
C         2.50551641192815   -0.40220308625733   -0.87556571950138
O         1.09880349722003    2.48200399927008   -2.51449880035266
O         1.19635723014686    3.21787534883905   -1.30123253807793
O         2.67262261733843   -0.65464308192490    0.27597198822899
H         1.55792905168558    4.06593503391787   -1.60232549819283
H         2.98996641130089    0.45587385095443   -1.37965479681910
H         0.23389972603652    0.96151654197257   -3.39629782351204
H         1.87595195773347   -1.02617870356962   -1.53412400491810
H        -1.10607297649003    0.19702817905527   -1.44400315355856
H        -0.40212137930799    1.55448201700137   -0.44721456440564
12
 energy: -21.511775459651 gnorm: 0.002578016429 xtb: 6.2.3 (830e466)
C         0.24410968695015    1.43517219512740   -2.42649465020693
C        -0.46136959152109    1.04313111517384   -1.38277897985684
C         2.50745685520804   -0.40586836811236   -0.87914078084791
O         1.09663254047233    2.48632484709414   -2.51330195784787
O         1.20196116797583    3.22063940654787   -1.29845477163032
O         2.67954100173132   -0.65724011621762    0.27368401192223
H         1.55078023431382    4.07003114372347   -1.60263037039598
H         2.98370967459552    0.45206968276951   -1.38254724437513
H         0.24098512923720    0.95485644671334   -3.39497194957038
H         1.86500663767853   -1.01983886017424   -1.53294109030243
H        -1.10770398384143    0.19166693369867   -1.44779259138362
H        -0.41210935279797    1.56864557365545   -0.44841962550594
12
 energy: -21.511805948495 gnorm: 0.001465028875 xtb: 6.2.3 (830e466)
C         0.23697747920332    1.43749702986222   -2.43009176993861
C        -0.46160608171958    1.04141508318605   -1.38347864348126
C         2.50963406952775   -0.40303404370091   -0.87749644014415
O         1.09370920561611    2.48549073489307   -2.51614089358716
O         1.20788112807922    3.21459330713222   -1.29869271147041
O         2.66677500002751   -0.64917596046543    0.27920688414069
H         1.55829804558575    4.06367313778704   -1.60111984926904
H         2.98634266614026    0.45659976623672   -1.37651812167857
H         0.22737336883215    0.96077545723905   -3.40080472602548
H         1.87534715774170   -1.01938343504313   -1.53733465753710
H        -1.10959611784513    0.19017799158422   -1.44833296716931
H        -0.40213592118680    1.56096093128834   -0.44498610384072
12
 energy: -21.511799360331 gnorm: 0.016857499357 xtb: 6.2.3 (830e466)
C         0.19309801564126    1.44892123918994   -2.45371408144103
C        -0.45437878130521    1.02206157756289   -1.38483438500407
C         2.51686304321227   -0.37586518946570   -0.86147926034075
O         1.07135351278641    2.47982555475630   -2.53926806158008
O         1.25344764935850    3.16703902417978   -1.30168363396724
O         2.57598613838638   -0.59468744321733    0.31643447609579
H         1.60966704114181    4.01766286894801   -1.59070372529711
H         3.00745164733811    0.49144962058555   -1.33092990677362
H         0.12103399259631    1.01123287243965   -3.44538571424842
H         1.95251336461734   -1.01732091662992   -1.56760878012732
H        -1.12589859711456    0.18591259145820   -1.45171157728943
H        -0.33213702665634    1.50335820019206   -0.42490535002789
12
 energy: -21.511917902035 gnorm: 0.005189934216 xtb: 6.2.3 (830e466)
C         0.20113755790995    1.44659873151867   -2.44991886821372
C        -0.45549668792762    1.02485776233433   -1.38615071236587
C         2.51314164114457   -0.37795381678727   -0.86261539162359
O         1.07527039250786    2.48085717468207   -2.53569631644732
O         1.24750733771243    3.17302725083407   -1.30106145122964
O         2.60347233383950   -0.61039021844831    0.30503262498018
H         1.60207158599185    4.02356537791952   -1.59204676033137
H         2.99763779923443    0.48954459091379   -1.33675343163322
H         0.14152085552707    1.00181888514892   -3.43670893402483
H         1.93075744826327   -1.01077658571329   -1.55595542632788
H        -1.12177788108419    0.18506831452970   -1.45252796710726
H        -0.34624238311684    1.51337253306722   -0.43138736567663
12
 energy: -21.511972225905 gnorm: 0.002397725769 xtb: 6.2.3 (830e466)
C         0.19510058976044    1.44736179526300   -2.45315685321228
C        -0.45309809041919    1.02010864271919   -1.38673056849582
C         2.51049150579908   -0.36919658343569   -0.85888803527835
O         1.07061048852656    2.47998919306688   -2.54085434725033
O         1.25812941453243    3.16086462659716   -1.30249433214444
O         2.59216957855380   -0.60605074701940    0.30730157320802
H         1.61220061879609    4.01287998487690   -1.59048740627043
H         2.99771018709531    0.50083424754330   -1.32674632619651
H         0.12455913742682    1.01083480481715   -3.44160254063333
H         1.93825970735103   -1.00309725744236   -1.55839973495998
H        -1.12203583101455    0.18370490486692   -1.45215678368233
H        -0.33509730640554    1.50135638814638   -0.43157464508536
12
 energy: -21.512103811094 gnorm: 0.004753506756 xtb: 6.2.3 (830e466)
C         0.16918694768719    1.45116362025404   -2.46776017521142
C        -0.44289596894973    1.00082520011653   -1.38886735680294
C         2.50069003101783   -0.33506468566789   -0.84416580978755
O         1.05178463088408    2.47693886307391   -2.56166497181947
O         1.30255156255061    3.11387348327825   -1.30835967106714
O         2.53940631887315   -0.58459947737302    0.32045839436667
H         1.65208756806789    3.97181152600370   -1.58504237854473
H         2.99764287471659    0.54523801149738   -1.28444449548076
H         0.05324192013176    1.04689434012336   -3.46553699417445
H         1.97184011420083   -0.97413082956126   -1.57255820755004
H        -1.12447618970322    0.17606232916527   -1.45213512992503
H        -0.28205980947469    1.45057761908912   -0.42571320400427
12
 energy: -21.512123960386 gnorm: 0.016700284731 xtb: 6.2.3 (830e466)
C         0.12465610226987    1.45532302506218   -2.48977665710758
C        -0.42435225423836    0.96529152699797   -1.39100681461390
C         2.48372929391381   -0.27210042541054   -0.82231236042948
O         1.02269394275448    2.46670011133923   -2.59411229941460
O         1.38125125303187    3.02952030023855   -1.32128023272378
O         2.43190283839916   -0.54328986487352    0.34268861582413
H         1.72525692742061    3.89628517000546   -1.57890655690074
H         2.99775506087026    0.62872960570266   -1.20673349798483
H        -0.07320696112698    1.10868331265806   -3.50217805276466
H         2.03429724162976   -0.91511368033501   -1.60726147389061
H        -1.12995055442707    0.16158026055344   -1.45023295479066
H        -0.18503289049510    1.35798065806084   -0.41467771520443
12
 energy: -21.512292231764 gnorm: 0.003779679985 xtb: 6.2.3 (830e466)
C         0.14264856091247    1.44911933182760   -2.47769339662069
C        -0.42944569426116    0.97282417104407   -1.38981686646371
C         2.48357416210543   -0.28222937434692   -0.83310430119456
O         1.03760683312842    2.46351941238403   -2.57863112721313
O         1.35936862047376    3.04981761153938   -1.31965734009367
O         2.45936812727935   -0.55304583047988    0.32959325425937
H         1.70916695342475    3.91196616867694   -1.58304929338245
H         2.99063441865549    0.61364910868538   -1.23013274101667
H        -0.03024664583521    1.08670184859799   -3.48165299636471
H         2.00850711647282   -0.91683176796484   -1.60082966878684
H        -1.12936688105925    0.16411868464857   -1.45037253979355
H        -0.21281557129456    1.37998063538700   -0.42044298333053
12
 energy: -21.512376517319 gnorm: 0.002326118813 xtb: 6.2.3 (830e466)
C         0.12932866873140    1.44999365956602   -2.48447833452956
C        -0.42196456896357    0.95844522374568   -1.39145166736560
C         2.47447930049873   -0.25782628191466   -0.82680477143220
O         1.03260114230355    2.45763400768862   -2.58595253437448
O         1.38820191526426    3.01962446285380   -1.32446519294751
O         2.43322947898783   -0.53836045785009    0.33170044746452
H         1.73637868760392    3.88440358854070   -1.58050704764045
H         2.97621491368219    0.64754331489685   -1.20502303283450
H        -0.06737983480308    1.10533682360871   -3.49100801864180
H         2.01925143892359   -0.88983413596313   -1.60741210712321
H        -1.13095865960612    0.15606564827567   -1.45220585108744
H        -0.18038248262041    1.34656414655116   -0.41818188948894
12
 energy: -21.512374708163 gnorm: 0.012525939307 xtb: 6.2.3 (830e466)
C         0.09326450281625    1.44954864287332   -2.49814018757903
C        -0.39954955811064    0.91785574871508   -1.39195368877666
C         2.44776668156291   -0.18589576671700   -0.81239231317853
O         1.01658602608554    2.43936841161900   -2.60773232609903
O         1.47334272614523    2.93003904839413   -1.34195625029442
O         2.33665636357190   -0.50144472139499    0.33724673616194
H         1.81299416429778    3.80405689392219   -1.57768249947360
H         2.94323691921291    0.74930084945216   -1.12612410790328
H        -0.17404250376362    1.15565954249120   -3.50876214180162
H         2.06278538153948   -0.80884536141527   -1.64492666410191
H        -1.13073255764819    0.13306697775265   -1.44788248856303
H        -0.09330814570724    1.25687973430676   -0.41548406839201
12
 energy: -21.512483628721 gnorm: 0.001748668554 xtb: 6.2.3 (830e466)
C         0.11099286667087    1.44878351407096   -2.49010039500054
C        -0.40838264318487    0.93445835341496   -1.39180316048508
C         2.45648856218548   -0.21428820815945   -0.81963766946788
O         1.02541913814362    2.44608751542684   -2.59701610651510
O         1.43944179579053    2.96570091129656   -1.33648505217846
O         2.38047624707105   -0.51970495296401    0.33127033333070
H         1.78011968141543    3.83712921198043   -1.57937999415147
H         2.94985059597435    0.70952800031517   -1.15879959238476
H        -0.12474273518594    1.13250664227445   -3.49669384902142
H         2.03972175120926   -0.83703891893503   -1.62951931155379
H        -1.12761678441232    0.14045349133659   -1.44852047453283
H        -0.13276847567515    1.29597443994178   -0.41910472804053
12
 energy: -21.512515915637 gnorm: 0.002051861462 xtb: 6.2.3 (830e466)
C         0.10319891512658    1.44989331655426   -2.49301278020301
C        -0.40406798651675    0.92763777267433   -1.39314930376650