      -----------------------------------------------------------      
     |                   =====================                   |     
     |                           x T B                           |     
     |                   =====================                   |     
     |                         S. Grimme                         |     
     |          Mulliken Center for Theoretical Chemistry        |     
     |                    University of Bonn                     |     
      -----------------------------------------------------------      

   * xtb version 6.2.3 (830e466) compiled by 'ehlert@majestix' on 2020-03-16

   xtb is free software: you can redistribute it and/or modify it under
   the terms of the GNU Lesser General Public License as published by
   the Free Software Foundation, either version 3 of the License, or
   (at your option) any later version.
   
   xtb is distributed in the hope that it will be useful,
   but WITHOUT ANY WARRANTY; without even the implied warranty of
   MERCHANTABILITY or FITNESS FOR A PARTICULAR PURPOSE.  See the
   GNU Lesser General Public License for more details.
   
   Cite this work as:
   * S. Grimme, C. Bannwarth, P. Shushkov, J. Chem. Theory Comput., 2017,
     13, 1989-2009. DOI: 10.1021/acs.jctc.7b00118
   * C. Bannwarth, S. Ehlert and S. Grimme., J. Chem. Theory Comput., 2019,
     15, 1652-1671. DOI: 10.1021/acs.jctc.8b01176
   * P. Pracht, E. Caldeweyher, S. Ehlert, S. Grimme, ChemRxiv, 2019, preprint.
     DOI: 10.26434/chemrxiv.8326202.v1
   
   for DFT-D4:
   * E. Caldeweyher, C. Bannwarth and S. Grimme, J. Chem. Phys., 2017,
     147, 034112. DOI: 10.1063/1.4993215
   * E. Caldeweyher, S. Ehlert, A. Hansen, H. Neugebauer, S. Spicher,
     C. Bannwarth and S. Grimme, J. Chem. Phys., 2019, 150, 154122.
     DOI: 10.1063/1.5090222
   
   for sTDA-xTB:
   * S. Grimme and C. Bannwarth, J. Chem. Phys., 2016, 145, 054103.
     DOI: 10.1063/1.4959605
   
   in the mass-spec context:
   * V. Asgeirsson, C. Bauer and S. Grimme, Chem. Sci., 2017, 8, 4879.
     DOI: 10.1039/c7sc00601b
   
   for metadynamics refer to:
   * S. Grimme, J. Chem. Theory Comput., 2019, 155, 2847-2862
     DOI: 10.1021/acs.jctc.9b00143
   
   with help from (in alphabetical order)
   C. Bannwarth, F. Bohle, G. Brandenburg, E. Caldeweyher, M. Checinski,
   S. Dohm, S. Ehlert, S. Ehrlich, F. März, H. Neugebauer, J. Pisarek,
   P. Pracht, P. Shushkov, and S. Spicher.
   
 * started run on 2020/12/23 at 21:41:06.733     

           -------------------------------------------------
          |                Calculation Setup                |
           -------------------------------------------------

          program call               : xtb -c 0 -u 0 -a 1.0 --iterations 100 --opt normal --namespace product_10 /scratch/bell/zhao922/YARP/paper-example/potential_product/test/reaction_channel/pp_0/pp_15_0.xyz
          hostname                   : bell-fe05.rcac.purdue.edu
          calculation namespace      : product_10
          coordinate file            : /scratch/bell/zhao922/YARP/paper-example/potential_product/test/reaction_channel/pp_0/pp_15_0.xyz
          omp threads                :                    32
          number of atoms            :                    12
          number of electrons        :                    36
          charge                     :                     0
          spin                       :                   0.0
          first test random number   :      0.86858809312339

           ------------------------------------------------- 
          |                 G F N 2 - x T B                 |
          | Geometry, Frequencies, Noncovalent interactions |
          |            JCTC 2019 parametrisation            |
           ------------------------------------------------- 
             k(s)              :                1.8500
             k(p)              :                2.2300
             k(d)              :                2.2300
             k(f)              :                2.0000
             kEN (H0ij)        :               -2.0000
             D4 a1             :                0.5200
             D4 a2             :                5.0000
             D4 s6             :                1.0000
             D4 s8             :                2.7000
             D4 s9             :                5.0000
             alphaj            :                2.0000

  Z AO/shell   Hii/eV     exponent
  1     Wed Apr 25 08:07:45 CEST 2018   EN: 2.200 GM2: 0.406  GM3: 0.0800  RAES: 1.40
     1s    -10.707211    1.230000
  6     Wed Apr 25 08:07:45 CEST 2018   EN: 2.550 GM2: 0.538  GM3: 0.1500  RAES: 3.00
     2s    -13.970922    2.096432
     2p    -10.063292    1.800000
  8     Wed Apr 25 08:07:45 CEST 2018   EN: 3.440 GM2: 0.452  GM3:-0.0517  RAES: 1.80
     2s    -20.229985    2.439742
     2p    -15.503117    2.137023

           ------------------------------------------------- 
          |        Self-Consistent Charge Iterations        |
           ------------------------------------------------- 

          ...................................................
          :                      SETUP                      :
          :.................................................:
          :  # basis functions                  30          :
          :  # atomic orbitals                  30          :
          :  # shells                           18          :
          :  # electrons                        36          :
          :  max. iterations                   100          :
          :  Hamiltonian                  GFN2-xTB          :
          :  restarted?                      false          :
          :  GBSA solvation                  false          :
          :  PC potential                    false          :
          :  electronic temp.          300.0000000     K    :
          :  accuracy                    1.0000000          :
          :  -> integral cutoff          0.2500000E+02      :
          :  -> integral neglect         0.1000000E-07      :
          :  -> SCF convergence          0.1000000E-05 Eh   :
          :  -> wf. convergence          0.1000000E-03 e    :
          :  Broyden damping             0.4000000          :
          ...................................................

 iter      E             dE          RMSdq      gap      omega  full diag
   1    -21.7466626 -0.217467E+02  0.545E+00    4.34       0.0  T
   2    -21.7915892 -0.449265E-01  0.277E+00    3.32       1.0  T
   3    -21.7937741 -0.218495E-02  0.179E+00    3.86       1.0  T
   4    -21.8007547 -0.698055E-02  0.210E-01    3.54       1.0  T
   5    -21.8009511 -0.196480E-03  0.107E-01    3.59       1.0  T
   6    -21.8009792 -0.280653E-04  0.327E-02    3.59       1.0  T
   7    -21.8009802 -0.941256E-06  0.119E-02    3.58       2.4  T
   8    -21.8009807 -0.508091E-06  0.262E-03    3.58      11.0  T
   9    -21.8009807 -0.206413E-08  0.117E-03    3.58      24.6  T
  10    -21.8009807 -0.490274E-08  0.405E-04    3.58      71.3  T
  11    -21.8009807 -0.964299E-09  0.159E-04    3.58     181.8  T

   *** convergence criteria satisfied after 11 iterations ***

         #    Occupation            Energy/Eh            Energy/eV
      -------------------------------------------------------------
         1        2.0000           -0.7197835             -19.5863
       ...           ...                  ...                  ...
        12        2.0000           -0.5304830             -14.4352
        13        2.0000           -0.5109283             -13.9031
        14        2.0000           -0.4861887             -13.2299
        15        2.0000           -0.4703543             -12.7990
        16        2.0000           -0.4584807             -12.4759
        17        2.0000           -0.4408706             -11.9967
        18        2.0000           -0.4101300             -11.1602 (HOMO)
        19                         -0.2784575              -7.5772 (LUMO)
        20                          0.0115970               0.3156
        21                          0.0384856               1.0472
        22                          0.0749743               2.0402
        23                          0.0856074               2.3295
       ...                                ...                  ...
        30                          0.5286818              14.3862
      -------------------------------------------------------------
                  HL-Gap            0.1316725 Eh            3.5830 eV
             Fermi-level           -0.3442937 Eh           -9.3687 eV

 SCC (total)                   0 d,  0 h,  0 min,  0.010 sec
 SCC setup                      ...        0 min,  0.000 sec (  2.897%)
 Dispersion                     ...        0 min,  0.000 sec (  0.595%)
 integral evaluation            ...        0 min,  0.001 sec (  8.039%)
 zeroth order Hamiltonian       ...        0 min,  0.000 sec (  0.745%)
 iterations                     ...        0 min,  0.007 sec ( 63.803%)
 molecular gradient             ...        0 min,  0.002 sec ( 19.855%)
 printout                       ...        0 min,  0.000 sec (  2.203%)

         :::::::::::::::::::::::::::::::::::::::::::::::::::::
         ::                     SUMMARY                     ::
         :::::::::::::::::::::::::::::::::::::::::::::::::::::
         :: total energy             -21.639112573650 Eh    ::
         :: gradient norm              0.079959314781 Eh/a0 ::
         :: HOMO-LUMO gap              3.582991440508 eV    ::
         ::.................................................::
         :: SCC energy               -21.800980667156 Eh    ::
         :: -> isotropic ES            0.071129081633 Eh    ::
         :: -> anisotropic ES          0.002017655103 Eh    ::
         :: -> anisotropic XC         -0.000539495703 Eh    ::
         :: -> dispersion             -0.006035175710 Eh    ::
         :: repulsion energy           0.161861984092 Eh    ::
         :: add. restraining           0.000000000000 Eh    ::
         :::::::::::::::::::::::::::::::::::::::::::::::::::::

      ----------------------------------------------------------- 
     |                   =====================                   |
     |                        A N C O P T                        |
     |                   =====================                   |
     |               Approximate Normal Coordinate               |
     |                Rational Function Optimizer                |
      ----------------------------------------------------------- 

          ...................................................
          :                      SETUP                      :
          :.................................................:
          :   optimization level            normal          :
          :   max. optcycles                   200          :
          :   ANC micro-cycles                  20          :
          :   degrees of freedom                30          :
          :.................................................:
          :   RF solver                   davidson          :
          :   write xtbopt.log                true          :
          :   linear?                        false          :
          :   energy convergence         0.5000000E-05 Eh   :
          :   grad. convergence          0.1000000E-02 Eh/α :
          :   maximium RF displ.         1.0000000          :
          :   Hlow (freq-cutoff)         0.1000000E-01      :
          :   Hmax (freq-cutoff)         5.0000000          :
          :   S6 in model hess.         20.0000000          :
          ...................................................

generating ANC from model Hessian ...
Using Lindh-Hessian (1995)
 Shifting diagonal of input Hessian by   4.309421014929841E-003
 Lowest  eigenvalues of input Hessian
   -0.000000   -0.000000   -0.000000   -0.000000    0.000000    0.000000
    0.010000    0.012454    0.016331    0.020970    0.030502    0.036434
    0.053174    0.059540    0.067281    0.075323    0.079571    0.093761
 Highest eigenvalues
    1.135903    1.235932    1.343977    1.429016    1.554754    2.095148
 

........................................................................
.............................. CYCLE    1 ..............................
........................................................................
   1    -21.8009807 -0.218010E+02  0.298E-05    3.58       0.0  T
   2    -21.8009807 -0.287415E-11  0.137E-05    3.58    2110.4  T
   3    -21.8009807 -0.195399E-12  0.716E-06    3.58    4034.3  T
     SCC iter.                  ...        0 min,  0.001 sec
     gradient                   ...        0 min,  0.001 sec
 * total energy  :   -21.6391126 Eh     change       -0.5574488E-08 Eh
   gradient norm :     0.0799611 Eh/α   predicted     0.0000000E+00 (-100.00%)
   displ. norm   :     0.2094841 α      lambda       -0.6894772E-02
   maximum displ.:     0.1168565 α      in ANC's #6, #16, #1, ...

........................................................................
.............................. CYCLE    2 ..............................
........................................................................
   1    -21.8179443 -0.218179E+02  0.251E-01    3.73       0.0  T
   2    -21.8180370 -0.927193E-04  0.143E-01    3.71       1.0  T
   3    -21.8180453 -0.826565E-05  0.584E-02    3.71       1.0  T
   4    -21.8180483 -0.300738E-05  0.160E-02    3.70       1.8  T
   5    -21.8180488 -0.473212E-06  0.652E-03    3.70       4.4  T
   6    -21.8180489 -0.949495E-07  0.350E-03    3.70       8.2  T
   7    -21.8180489 -0.194657E-07  0.817E-04    3.70      35.3  T
     SCC iter.                  ...        0 min,  0.002 sec
     gradient                   ...        0 min,  0.088 sec
 * total energy  :   -21.6437155 Eh     change       -0.4602885E-02 Eh
   gradient norm :     0.0312935 Eh/α   predicted    -0.3598669E-02 ( -21.82%)
   displ. norm   :     0.2121859 α      lambda       -0.2438868E-02
   maximum displ.:     0.1338020 α      in ANC's #6, #1, #9, ...

........................................................................
.............................. CYCLE    3 ..............................
........................................................................
   1    -21.8268142 -0.218268E+02  0.266E-01    3.78       0.0  T
   2    -21.8268635 -0.492942E-04  0.160E-01    3.76       1.0  T
   3    -21.8268696 -0.613699E-05  0.440E-02    3.76       1.0  T
   4    -21.8268725 -0.287960E-05  0.129E-02    3.75       2.2  T
   5    -21.8268728 -0.324274E-06  0.494E-03    3.76       5.8  T
   6    -21.8268729 -0.185730E-07  0.211E-03    3.76      13.7  T
     SCC iter.                  ...        0 min,  0.003 sec
     gradient                   ...        0 min,  0.001 sec
 * total energy  :   -21.6445011 Eh     change       -0.7856079E-03 Eh
   gradient norm :     0.0134407 Eh/α   predicted    -0.1274336E-02 (  62.21%)
   displ. norm   :     0.1962308 α      lambda       -0.1198244E-02
   maximum displ.:     0.1113611 α      in ANC's #2, #1, #3, ...

........................................................................
.............................. CYCLE    4 ..............................
........................................................................
   1    -21.8271863 -0.218272E+02  0.176E-01    3.78       0.0  T
   2    -21.8271921 -0.580199E-05  0.107E-01    3.78       1.0  T
   3    -21.8271928 -0.679187E-06  0.164E-02    3.77       1.8  T
   4    -21.8271942 -0.140093E-05  0.699E-03    3.78       4.1  T
   5    -21.8271943 -0.888364E-07  0.307E-03    3.78       9.4  T
   6    -21.8271943 -0.220112E-07  0.135E-03    3.78      21.3  T
   7    -21.8271943 -0.216385E-08  0.255E-04    3.78     113.4  T
     SCC iter.                  ...        0 min,  0.003 sec
     gradient                   ...        0 min,  0.001 sec
 * total energy  :   -21.6449931 Eh     change       -0.4920308E-03 Eh
   gradient norm :     0.0127881 Eh/α   predicted    -0.6221927E-03 (  26.45%)
   displ. norm   :     0.0897962 α      lambda       -0.3180990E-03
   maximum displ.:     0.0680696 α      in ANC's #1, #3, #2, ...

........................................................................
.............................. CYCLE    5 ..............................
........................................................................
   1    -21.8248763 -0.218249E+02  0.813E-02    3.76       0.0  T
   2    -21.8248790 -0.269521E-05  0.493E-02    3.76       1.0  T
   3    -21.8248793 -0.298962E-06  0.877E-03    3.76       3.3  T
   4    -21.8248794 -0.180883E-06  0.335E-03    3.76       8.6  T
   5    -21.8248795 -0.208515E-07  0.153E-03    3.76      18.9  T
   6    -21.8248795 -0.675624E-08  0.790E-04    3.76      36.5  T
     SCC iter.                  ...        0 min,  0.003 sec
     gradient                   ...        0 min,  0.001 sec
 * total energy  :   -21.6452330 Eh     change       -0.2399194E-03 Eh
   gradient norm :     0.0052496 Eh/α   predicted    -0.1603309E-03 ( -33.17%)
   displ. norm   :     0.2389379 α      lambda       -0.4024184E-03
   maximum displ.:     0.1510234 α      in ANC's #1, #3, #2, ...

........................................................................
.............................. CYCLE    6 ..............................
........................................................................
   1    -21.8227091 -0.218227E+02  0.208E-01    3.74       0.0  T
   2    -21.8227149 -0.584649E-05  0.127E-01    3.75       1.0  T
   3    -21.8227175 -0.254457E-05  0.119E-02    3.75       2.4  T
   4    -21.8227178 -0.322428E-06  0.670E-03    3.75       4.3  T
   5    -21.8227178 -0.445972E-07  0.293E-03    3.75       9.9  T
   6    -21.8227178 -0.214640E-07  0.113E-03    3.75      25.5  T
     SCC iter.                  ...        0 min,  0.093 sec
     gradient                   ...        0 min,  0.001 sec
 * total energy  :   -21.6455398 Eh     change       -0.3067632E-03 Eh
   gradient norm :     0.0091879 Eh/α   predicted    -0.2126947E-03 ( -30.66%)
   displ. norm   :     0.3680432 α      lambda       -0.4632335E-03
   maximum displ.:     0.2153445 α      in ANC's #3, #1, #2, ...

........................................................................
.............................. CYCLE    7 ..............................
........................................................................
   1    -21.8199073 -0.218199E+02  0.317E-01    3.73       0.0  T
   2    -21.8199191 -0.118396E-04  0.195E-01    3.73       1.0  T
   3    -21.8199260 -0.691659E-05  0.166E-02    3.73       1.7  T
   4    -21.8199264 -0.383187E-06  0.962E-03    3.73       3.0  T
   5    -21.8199265 -0.819561E-07  0.334E-03    3.73       8.6  T
   6    -21.8199265 -0.258960E-07  0.125E-03    3.73      23.0  T
   7    -21.8199265 -0.784834E-08  0.350E-04    3.73      82.5  T
     SCC iter.                  ...        0 min,  0.002 sec
     gradient                   ...        0 min,  0.001 sec
 * total energy  :   -21.6458345 Eh     change       -0.2946953E-03 Eh
   gradient norm :     0.0186501 Eh/α   predicted    -0.2629833E-03 ( -10.76%)
   displ. norm   :     0.1866815 α      lambda       -0.3933912E-03
   maximum displ.:     0.1120575 α      in ANC's #3, #1, #2, ...

........................................................................
.............................. CYCLE    8 ..............................
........................................................................
   1    -21.8221745 -0.218222E+02  0.161E-01    3.76       0.0  T
   2    -21.8221776 -0.318624E-05  0.989E-02    3.75       1.0  T
   3    -21.8221788 -0.115123E-05  0.128E-02    3.76       2.2  T
   4    -21.8221797 -0.946220E-06  0.601E-03    3.75       4.8  T
   5    -21.8221798 -0.440765E-07  0.204E-03    3.76      14.2  T
   6    -21.8221798 -0.856599E-08  0.610E-04    3.75      47.3  T
     SCC iter.                  ...        0 min,  0.092 sec
     gradient                   ...        0 min,  0.001 sec
 * total energy  :   -21.6461561 Eh     change       -0.3216318E-03 Eh
   gradient norm :     0.0140555 Eh/α   predicted    -0.2035530E-03 ( -36.71%)
   displ. norm   :     0.2921315 α      lambda       -0.7459134E-03
   maximum displ.:     0.2079543 α      in ANC's #3, #1, #2, ...

........................................................................
.............................. CYCLE    9 ..............................
........................................................................
   1    -21.8269659 -0.218270E+02  0.269E-01    3.78       0.0  T
   2    -21.8269767 -0.107957E-04  0.165E-01    3.78       1.0  T
   3    -21.8269816 -0.491480E-05  0.195E-02    3.78       1.5  T
   4    -21.8269831 -0.144974E-05  0.103E-02    3.78       2.8  T
   5    -21.8269833 -0.190289E-06  0.409E-03    3.78       7.1  T
   6    -21.8269833 -0.286488E-07  0.138E-03    3.78      20.9  T
   7    -21.8269833 -0.387337E-08  0.391E-04    3.78      73.9  T
     SCC iter.                  ...        0 min,  0.002 sec
     gradient                   ...        0 min,  0.001 sec
 * total energy  :   -21.6466719 Eh     change       -0.5158312E-03 Eh
   gradient norm :     0.0089831 Eh/α   predicted    -0.4047855E-03 ( -21.53%)
   displ. norm   :     0.3678087 α      lambda       -0.4444191E-03
   maximum displ.:     0.2458865 α      in ANC's #3, #1, #2, ...

........................................................................
.............................. CYCLE   10 ..............................
........................................................................
   1    -21.8248474 -0.218248E+02  0.340E-01    3.77       0.0  T
   2    -21.8248614 -0.139127E-04  0.210E-01    3.77       1.0  T
   3    -21.8248693 -0.796046E-05  0.189E-02    3.77       1.5  T
   4    -21.8248701 -0.823775E-06  0.111E-02    3.77       2.6  T
   5    -21.8248703 -0.161694E-06  0.413E-03    3.77       7.0  T
   6    -21.8248703 -0.416472E-07  0.155E-03    3.77      18.6  T
   7    -21.8248704 -0.938005E-08  0.438E-04    3.77      65.9  T
     SCC iter.                  ...        0 min,  0.092 sec
     gradient                   ...        0 min,  0.002 sec
 * total energy  :   -21.6469363 Eh     change       -0.2643098E-03 Eh
   gradient norm :     0.0155520 Eh/α   predicted    -0.2522666E-03 (  -4.56%)
   displ. norm   :     0.3114646 α      lambda       -0.9580282E-03
   maximum displ.:     0.1901720 α      in ANC's #3, #1, #20, ...

........................................................................
.............................. CYCLE   11 ..............................
........................................................................
   1    -21.8318217 -0.218318E+02  0.343E-01    3.85       0.0  T
   2    -21.8318421 -0.204141E-04  0.210E-01    3.84       1.0  T
   3    -21.8318430 -0.844482E-06  0.341E-02    3.85       1.0  T
   4    -21.8318502 -0.725210E-05  0.115E-02    3.84       2.5  T
   5    -21.8318505 -0.230315E-06  0.579E-03    3.84       5.0  T
   6    -21.8318505 -0.451834E-07  0.202E-03    3.84      14.3  T
   7    -21.8318505 -0.610133E-08  0.400E-04    3.84      72.2  T
     SCC iter.                  ...        0 min,  0.002 sec
     gradient                   ...        0 min,  0.001 sec
 * total energy  :   -21.6471064 Eh     change       -0.1701354E-03 Eh
   gradient norm :     0.0157512 Eh/α   predicted    -0.5254883E-03 ( 208.86%)
   displ. norm   :     0.3397789 α      lambda       -0.8367191E-03
   maximum displ.:     0.2814717 α      in ANC's #3, #1, #2, ...

........................................................................
.............................. CYCLE   12 ..............................
........................................................................
   1    -21.8256327 -0.218256E+02  0.364E-01    3.74       0.0  T
   2    -21.8256625 -0.298070E-04  0.228E-01    3.75       1.0  T
   3    -21.8256705 -0.806104E-05  0.343E-02    3.74       1.0  T
   4    -21.8256769 -0.638166E-05  0.145E-02    3.75       2.0  T
   5    -21.8256772 -0.298215E-06  0.845E-03    3.75       3.4  T
   6    -21.8256774 -0.132339E-06  0.236E-03    3.75      12.3  T
   7    -21.8256774 -0.126819E-07  0.447E-04    3.75      64.6  T
     SCC iter.                  ...        0 min,  0.002 sec
     gradient                   ...        0 min,  0.001 sec
 * total energy  :   -21.6473137 Eh     change       -0.2073224E-03 Eh
   gradient norm :     0.0287618 Eh/α   predicted    -0.4666559E-03 ( 125.09%)
   displ. norm   :     0.2083586 α      lambda       -0.6941304E-03
   maximum displ.:     0.1389399 α      in ANC's #3, #1, #6, ...

........................................................................
.............................. CYCLE   13 ..............................
........................................................................
   1    -21.8289784 -0.218290E+02  0.210E-01    3.85       0.0  T
   2    -21.8289956 -0.172162E-04  0.130E-01    3.84       1.0  T
   3    -21.8289981 -0.243558E-05  0.223E-02    3.84       1.3  T
   4    -21.8289998 -0.170641E-05  0.817E-03    3.83       3.5  T
   5    -21.8290000 -0.212673E-06  0.430E-03    3.84       6.7  T
   6    -21.8290000 -0.326267E-07  0.208E-03    3.84      13.8  T
     SCC iter.                  ...        0 min,  0.001 sec
     gradient                   ...        0 min,  0.001 sec
 * total energy  :   -21.6475237 Eh     change       -0.2099618E-03 Eh
   gradient norm :     0.0085350 Eh/α   predicted    -0.3621339E-03 (  72.48%)
   displ. norm   :     0.0672722 α      lambda       -0.2618403E-03
   maximum displ.:     0.0463780 α      in ANC's #2, #3, #6, ...

........................................................................
.............................. CYCLE   14 ..............................
........................................................................
   1    -21.8293217 -0.218293E+02  0.887E-02    3.81       0.0  T
   2    -21.8293250 -0.332231E-05  0.554E-02    3.81       1.0  T
   3    -21.8293256 -0.543378E-06  0.101E-02    3.82       2.9  T
   4    -21.8293259 -0.346422E-06  0.416E-03    3.81       6.9  T
   5    -21.8293260 -0.467224E-07  0.198E-03    3.82      14.6  T
   6    -21.8293260 -0.102904E-07  0.960E-04    3.81      30.1  T
     SCC iter.                  ...        0 min,  0.091 sec
     gradient                   ...        0 min,  0.001 sec
 * total energy  :   -21.6476687 Eh     change       -0.1450569E-03 Eh
   gradient norm :     0.0075377 Eh/α   predicted    -0.1315132E-03 (  -9.34%)
   displ. norm   :     0.2023353 α      lambda       -0.2601399E-03
   maximum displ.:     0.1670364 α      in ANC's #3, #19, #20, ...

........................................................................
.............................. CYCLE   15 ..............................
........................................................................
   1    -21.8271443 -0.218271E+02  0.238E-01    3.80       0.0  T
   2    -21.8271519 -0.760193E-05  0.149E-01    3.80       1.0  T
   3    -21.8271572 -0.522550E-05  0.129E-02    3.80       2.2  T
   4    -21.8271575 -0.300862E-06  0.799E-03    3.80       3.6  T
   5    -21.8271575 -0.630713E-07  0.142E-03    3.80      20.4  T
   6    -21.8271575 -0.922981E-08  0.619E-04    3.80      46.7  T
     SCC iter.                  ...        0 min,  0.001 sec
     gradient                   ...        0 min,  0.001 sec
 * total energy  :   -21.6478535 Eh     change       -0.1847651E-03 Eh
   gradient norm :     0.0131360 Eh/α   predicted    -0.1353947E-03 ( -26.72%)
   displ. norm   :     0.1988958 α      lambda       -0.3045306E-03
   maximum displ.:     0.1609604 α      in ANC's #3, #19, #1, ...

........................................................................
.............................. CYCLE   16 ..............................
........................................................................
   1    -21.8264490 -0.218264E+02  0.253E-01    3.78       0.0  T
   2    -21.8264585 -0.948759E-05  0.158E-01    3.78       1.0  T
   3    -21.8264651 -0.669352E-05  0.136E-02    3.78       2.1  T
   4    -21.8264654 -0.262201E-06  0.842E-03    3.78       3.4  T
   5    -21.8264655 -0.605136E-07  0.202E-03    3.78      14.3  T
   6    -21.8264655 -0.198693E-07  0.705E-04    3.78      40.9  T
     SCC iter.                  ...        0 min,  0.001 sec
     gradient                   ...        0 min,  0.001 sec
 * total energy  :   -21.6480331 Eh     change       -0.1796158E-03 Eh
   gradient norm :     0.0204249 Eh/α   predicted    -0.1582877E-03 ( -11.87%)
   displ. norm   :     0.1649573 α      lambda       -0.4383679E-03
   maximum displ.:     0.1363616 α      in ANC's #1, #3, #19, ...

........................................................................
.............................. CYCLE   17 ..............................
........................................................................
   1    -21.8278340 -0.218278E+02  0.161E-01    3.83       0.0  T
   2    -21.8278415 -0.746882E-05  0.993E-02    3.83       1.0  T
   3    -21.8278422 -0.755081E-06  0.189E-02    3.83       1.5  T
   4    -21.8278442 -0.194340E-05  0.679E-03    3.83       4.3  T
   5    -21.8278443 -0.130441E-06  0.315E-03    3.83       9.2  T
   6    -21.8278443 -0.779569E-08  0.101E-03    3.83      28.6  T
     SCC iter.                  ...        0 min,  0.001 sec
     gradient                   ...        0 min,  0.001 sec
 * total energy  :   -21.6483467 Eh     change       -0.3135475E-03 Eh
   gradient norm :     0.0087053 Eh/α   predicted    -0.2251468E-03 ( -28.19%)
   displ. norm   :     0.2932135 α      lambda       -0.4183400E-03
   maximum displ.:     0.2076610 α      in ANC's #1, #3, #19, ...

........................................................................
.............................. CYCLE   18 ..............................
........................................................................
   1    -21.8254478 -0.218254E+02  0.343E-01    3.82       0.0  T
   2    -21.8254673 -0.195198E-04  0.214E-01    3.82       1.0  T
   3    -21.8254754 -0.815969E-05  0.264E-02    3.82       1.1  T
   4    -21.8254794 -0.393651E-05  0.126E-02    3.82       2.3  T
   5    -21.8254795 -0.143720E-06  0.602E-03    3.82       4.8  T
   6    -21.8254796 -0.107766E-06  0.970E-04    3.82      29.7  T
   7    -21.8254796 -0.199946E-08  0.354E-04    3.82      81.5  T
     SCC iter.                  ...        0 min,  0.002 sec
     gradient                   ...        0 min,  0.001 sec
 * total energy  :   -21.6486295 Eh     change       -0.2828771E-03 Eh
   gradient norm :     0.0147915 Eh/α   predicted    -0.2271568E-03 ( -19.70%)
   displ. norm   :     0.3407965 α      lambda       -0.5635904E-03
   maximum displ.:     0.3163860 α      in ANC's #1, #19, #2, ...

........................................................................
.............................. CYCLE   19 ..............................
........................................................................
   1    -21.8271494 -0.218271E+02  0.315E-01    3.85       0.0  T
   2    -21.8271650 -0.155922E-04  0.195E-01    3.85       1.0  T
   3    -21.8271661 -0.110470E-05  0.323E-02    3.86       1.0  T
   4    -21.8271739 -0.781590E-05  0.113E-02    3.85       2.5  T
   5    -21.8271740 -0.916132E-07  0.517E-03    3.85       5.6  T
   6    -21.8271740 -0.653644E-07  0.116E-03    3.85      24.9  T
   7    -21.8271740 -0.220690E-08  0.322E-04    3.85      89.8  T
     SCC iter.                  ...        0 min,  0.092 sec
     gradient                   ...        0 min,  0.001 sec
 * total energy  :   -21.6489960 Eh     change       -0.3664712E-03 Eh
   gradient norm :     0.0082869 Eh/α   predicted    -0.3145167E-03 ( -14.18%)
   displ. norm   :     0.3190656 α      lambda       -0.3895318E-03
   maximum displ.:     0.2582803 α      in ANC's #1, #3, #19, ...

........................................................................
.............................. CYCLE   20 ..............................
........................................................................
   1    -21.8252110 -0.218252E+02  0.338E-01    3.83       0.0  T
   2    -21.8252284 -0.174486E-04  0.211E-01    3.83       1.0  T
   3    -21.8252366 -0.818307E-05  0.216E-02    3.83       1.3  T
   4    -21.8252389 -0.233631E-05  0.116E-02    3.83       2.5  T
   5    -21.8252391 -0.111416E-06  0.511E-03    3.83       5.7  T
   6    -21.8252391 -0.765330E-07  0.158E-03    3.83      18.2  T
   7    -21.8252391 -0.748281E-08  0.393E-04    3.83      73.4  T
     SCC iter.                  ...        0 min,  0.002 sec
     gradient                   ...        0 min,  0.001 sec
 * total energy  :   -21.6491598 Eh     change       -0.1637627E-03 Eh
   gradient norm :     0.0168524 Eh/α   predicted    -0.2145913E-03 (  31.04%)
   displ. norm   :     0.1133668 α      lambda       -0.5619970E-03
   maximum displ.:     0.0629079 α      in ANC's #3, #1, #6, ...
 * RMSD in coord.:     0.7567908 α      energy gain  -0.1004720E-01 Eh

generating ANC from model Hessian ...
Using Lindh-Hessian (1995)
 Shifting diagonal of input Hessian by   4.542933655632581E-003
 Lowest  eigenvalues of input Hessian
   -0.000000   -0.000000   -0.000000    0.000000    0.000000    0.000000
    0.010000    0.013415    0.016507    0.023180    0.030916    0.037916
    0.058826    0.065504    0.072323    0.086479    0.090162    0.106300
 Highest eigenvalues
    1.180987    1.323991    1.345351    1.468705    1.634431    2.253096
 

........................................................................
.............................. CYCLE   21 ..............................
........................................................................
   1    -21.8330864 -0.218331E+02  0.136E-01    3.93       0.0  T
   2    -21.8331042 -0.177133E-04  0.827E-02    3.91       1.0  T
   3    -21.8331051 -0.898131E-06  0.271E-02    3.92       1.1  T
   4    -21.8331063 -0.126219E-05  0.532E-03    3.91       5.4  T
   5    -21.8331064 -0.117348E-06  0.288E-03    3.92      10.0  T
   6    -21.8331065 -0.252282E-07  0.146E-03    3.92      19.8  T
   7    -21.8331065 -0.143678E-08  0.310E-04    3.92      93.0  T
   8    -21.8331065 -0.373088E-09  0.110E-04    3.92     262.8  T
     SCC iter.                  ...        0 min,  0.092 sec
     gradient                   ...        0 min,  0.001 sec
 * total energy  :   -21.6492422 Eh     change       -0.8240038E-04 Eh
   gradient norm :     0.0200021 Eh/α   predicted     0.0000000E+00 (-100.00%)
   displ. norm   :     0.1007505 α      lambda       -0.4016653E-03
   maximum displ.:     0.0677284 α      in ANC's #1, #3, #2, ...

........................................................................
.............................. CYCLE   22 ..............................
........................................................................
   1    -21.8305195 -0.218305E+02  0.873E-02    3.87       0.0  T
   2    -21.8305248 -0.535035E-05  0.527E-02    3.88       1.0  T
   3    -21.8305251 -0.253343E-06  0.129E-02    3.88       2.2  T
   4    -21.8305254 -0.307882E-06  0.314E-03    3.88       9.2  T
   5    -21.8305254 -0.301986E-07  0.159E-03    3.88      18.2  T
     SCC iter.                  ...        0 min,  0.002 sec
     gradient                   ...        0 min,  0.001 sec
 * total energy  :   -21.6494849 Eh     change       -0.2426848E-03 Eh
   gradient norm :     0.0069311 Eh/α   predicted    -0.2028716E-03 ( -16.41%)
   displ. norm   :     0.1086158 α      lambda       -0.2975903E-03
   maximum displ.:     0.0573651 α      in ANC's #1, #3, #5, ...

........................................................................
.............................. CYCLE   23 ..............................
........................................................................
   1    -21.8281242 -0.218281E+02  0.162E-01    3.83       0.0  T
   2    -21.8281346 -0.103688E-04  0.101E-01    3.84       1.0  T
   3    -21.8281362 -0.160320E-05  0.184E-02    3.84       1.6  T
   4    -21.8281373 -0.116312E-05  0.696E-03    3.84       4.1  T
   5    -21.8281375 -0.122596E-06  0.346E-03    3.84       8.4  T
   6    -21.8281375 -0.304714E-07  0.170E-03    3.84      17.0  T
   7    -21.8281375 -0.325456E-08  0.171E-04    3.84     168.8  T
     SCC iter.                  ...        0 min,  0.095 sec
     gradient                   ...        0 min,  0.001 sec
 * total energy  :   -21.6495329 Eh     change       -0.4801712E-04 Eh
   gradient norm :     0.0124587 Eh/α   predicted    -0.1505503E-03 ( 213.53%)
   displ. norm   :     0.0523310 α      lambda       -0.1706412E-03
   maximum displ.:     0.0429617 α      in ANC's #1, #3, #5, ...

........................................................................
.............................. CYCLE   24 ..............................
........................................................................
   1    -21.8295755 -0.218296E+02  0.413E-02    3.87       0.0  T
   2    -21.8295763 -0.842744E-06  0.249E-02    3.86       1.2  T
   3    -21.8295763  0.129837E-08  0.549E-03    3.86       5.3  T
   4    -21.8295764 -0.918657E-07  0.136E-03    3.86      21.2  T
   5    -21.8295764 -0.872857E-08  0.650E-04    3.86      44.4  T
     SCC iter.                  ...        0 min,  0.001 sec
     gradient                   ...        0 min,  0.001 sec
 * total energy  :   -21.6496418 Eh     change       -0.1089510E-03 Eh
   gradient norm :     0.0047608 Eh/α   predicted    -0.8555483E-04 ( -21.47%)
   displ. norm   :     0.0864077 α      lambda       -0.7287163E-04
   maximum displ.:     0.0685414 α      in ANC's #1, #3, #2, ...

........................................................................
.............................. CYCLE   25 ..............................
........................................................................
   1    -21.8301715 -0.218302E+02  0.842E-02    3.87       0.0  T
   2    -21.8301724 -0.922582E-06  0.522E-02    3.87       1.0  T
   3    -21.8301726 -0.216883E-06  0.755E-03    3.87       3.8  T
   4    -21.8301730 -0.420151E-06  0.298E-03    3.87       9.7  T
   5    -21.8301730 -0.895091E-08  0.807E-04    3.87      35.8  T
     SCC iter.                  ...        0 min,  0.001 sec
     gradient                   ...        0 min,  0.001 sec
 * total energy  :   -21.6497030 Eh     change       -0.6121262E-04 Eh
   gradient norm :     0.0029278 Eh/α   predicted    -0.3670652E-04 ( -40.03%)
   displ. norm   :     0.2623992 α      lambda       -0.1748351E-03
   maximum displ.:     0.2047188 α      in ANC's #1, #3, #2, ...

........................................................................
.............................. CYCLE   26 ..............................
........................................................................
   1    -21.8297080 -0.218297E+02  0.273E-01    3.87       0.0  T
   2    -21.8297178 -0.985471E-05  0.170E-01    3.87       1.0  T
   3    -21.8297217 -0.386644E-05  0.212E-02    3.88       1.4  T
   4    -21.8297247 -0.303019E-05  0.983E-03    3.87       2.9  T
   5    -21.8297248 -0.101331E-06  0.327E-03    3.87       8.8  T
   6    -21.8297249 -0.282851E-07  0.707E-04    3.87      40.8  T
   7    -21.8297249 -0.889848E-09  0.245E-04    3.87     117.7  T
     SCC iter.                  ...        0 min,  0.089 sec
     gradient                   ...        0 min,  0.001 sec
 * total energy  :   -21.6498198 Eh     change       -0.1167474E-03 Eh
   gradient norm :     0.0058122 Eh/α   predicted    -0.9344014E-04 ( -19.96%)
   displ. norm   :     0.1521879 α      lambda       -0.1021441E-03
   maximum displ.:     0.1206330 α      in ANC's #1, #3, #2, ...

........................................................................
.............................. CYCLE   27 ..............................
........................................................................
   1    -21.8300427 -0.218300E+02  0.161E-01    3.88       0.0  T
   2    -21.8300467 -0.401045E-05  0.100E-01    3.88       1.0  T
   3    -21.8300472 -0.467618E-06  0.167E-02    3.88       1.7  T
   4    -21.8300494 -0.217135E-05  0.596E-03    3.88       4.8  T
   5    -21.8300494 -0.319326E-07  0.209E-03    3.88      13.8  T
   6    -21.8300494 -0.112343E-07  0.528E-04    3.88      54.7  T
     SCC iter.                  ...        0 min,  0.001 sec
     gradient                   ...        0 min,  0.001 sec
 * total energy  :   -21.6498920 Eh     change       -0.7218604E-04 Eh
   gradient norm :     0.0043720 Eh/α   predicted    -0.5225460E-04 ( -27.61%)
   displ. norm   :     0.0998575 α      lambda       -0.6925529E-04
   maximum displ.:     0.0816184 α      in ANC's #1, #3, #2, ...

........................................................................
.............................. CYCLE   28 ..............................
........................................................................
   1    -21.8308407 -0.218308E+02  0.993E-02    3.89       0.0  T
   2    -21.8308425 -0.176711E-05  0.620E-02    3.89       1.0  T
   3    -21.8308423  0.138007E-06  0.126E-02    3.89       2.3  T
   4    -21.8308436 -0.125049E-05  0.383E-03    3.89       7.5  T
   5    -21.8308436 -0.134184E-07  0.118E-03    3.89      24.5  T
   6    -21.8308436 -0.216710E-08  0.366E-04    3.89      78.8  T
     SCC iter.                  ...        0 min,  0.001 sec
     gradient                   ...        0 min,  0.001 sec
 * total energy  :   -21.6499339 Eh     change       -0.4191605E-04 Eh
   gradient norm :     0.0017354 Eh/α   predicted    -0.3497397E-04 ( -16.56%)
   displ. norm   :     0.3236042 α      lambda       -0.5116870E-04
   maximum displ.:     0.2592798 α      in ANC's #1, #3, #7, ...

........................................................................
.............................. CYCLE   29 ..............................
........................................................................
   1    -21.8269679 -0.218270E+02  0.324E-01    3.85       0.0  T
   2    -21.8269862 -0.183773E-04  0.201E-01    3.85       1.0  T
   3    -21.8269928 -0.660302E-05  0.245E-02    3.85       1.2  T
   4    -21.8269961 -0.324665E-05  0.122E-02    3.85       2.4  T
   5    -21.8269963 -0.185156E-06  0.583E-03    3.85       5.0  T
   6    -21.8269964 -0.855174E-07  0.170E-03    3.85      17.0  T
   7    -21.8269964 -0.533212E-08  0.355E-04    3.85      81.4  T
   8    -21.8269964 -0.284761E-09  0.177E-04    3.85     162.9  T
     SCC iter.                  ...        0 min,  0.001 sec
     gradient                   ...        0 min,  0.001 sec
 * total energy  :   -21.6498413 Eh     change        0.9258451E-04 Eh
   gradient norm :     0.0144479 Eh/α   predicted    -0.2677525E-04 (-128.92%)
   displ. norm   :     0.1357218 α      lambda       -0.2125903E-03
   maximum displ.:     0.1052276 α      in ANC's #1, #3, #2, ...

........................................................................
.............................. CYCLE   30 ..............................
........................................................................
   1    -21.8299109 -0.218299E+02  0.147E-01    3.88       0.0  T
   2    -21.8299159 -0.500328E-05  0.908E-02    3.88       1.0  T
   3    -21.8299171 -0.128469E-05  0.129E-02    3.88       2.2  T
   4    -21.8299179 -0.740157E-06  0.543E-03    3.88       5.3  T
   5    -21.8299179 -0.308624E-07  0.263E-03    3.88      11.0  T
   6    -21.8299179 -0.198400E-07  0.959E-04    3.88      30.1  T
     SCC iter.                  ...        0 min,  0.001 sec
     gradient                   ...        0 min,  0.001 sec
 * total energy  :   -21.6499562 Eh     change       -0.1149287E-03 Eh
   gradient norm :     0.0033025 Eh/α   predicted    -0.1082530E-03 (  -5.81%)
   displ. norm   :     0.0065828 α      lambda       -0.1148446E-04
   maximum displ.:     0.0032535 α      in ANC's #19, #1, #15, ...

........................................................................
.............................. CYCLE   31 ..............................
........................................................................
   1    -21.8306270 -0.218306E+02  0.921E-03    3.89       0.0  T
   2    -21.8306271 -0.100605E-06  0.542E-03    3.89       5.3  T
   3    -21.8306271 -0.186829E-08  0.211E-03    3.89      13.7  T
   4    -21.8306271 -0.609153E-08  0.330E-04    3.89      87.4  T
   5    -21.8306271 -0.488349E-09  0.183E-04    3.89     157.5  T
     SCC iter.                  ...        0 min,  0.001 sec
     gradient                   ...        0 min,  0.001 sec
 * total energy  :   -21.6499636 Eh     change       -0.7365947E-05 Eh
   gradient norm :     0.0009398 Eh/α   predicted    -0.5743539E-05 ( -22.03%)
   displ. norm   :     0.0140500 α      lambda       -0.2320211E-05
   maximum displ.:     0.0085519 α      in ANC's #1, #3, #2, ...

........................................................................
.............................. CYCLE   32 ..............................
........................................................................
   1    -21.8310103 -0.218310E+02  0.139E-02    3.89       0.0  T
   2    -21.8310103 -0.376518E-07  0.850E-03    3.89       3.4  T
   3    -21.8310103  0.217534E-08  0.159E-03    3.89      18.2  T
   4    -21.8310103 -0.165197E-07  0.484E-04    3.89      59.7  T
   5    -21.8310103 -0.409038E-09  0.267E-04    3.89     108.3  T
     SCC iter.                  ...        0 min,  0.092 sec
     gradient                   ...        0 min,  0.001 sec
 * total energy  :   -21.6499654 Eh     change       -0.1789513E-05 Eh
   gradient norm :     0.0005614 Eh/α   predicted    -0.1159001E-05 ( -35.23%)
   displ. norm   :     0.0160700 α      lambda       -0.8561315E-06
   maximum displ.:     0.0108123 α      in ANC's #3, #1, #6, ...

   *** GEOMETRY OPTIMIZATION CONVERGED AFTER 32 ITERATIONS ***

------------------------------------------------------------------------
 total energy gain   :        -0.0108528 Eh       -6.8102 kcal/mol
 total RMSD          :         0.9084676 a0        0.4807 Å
 total power (kW/mol):        -0.8904391 (step)  -19.1430 (real)
------------------------------------------------------------------------

 ANCopt (total)                0 d,  0 h,  0 min,  1.489 sec
 optimizer setup                ...        0 min,  0.000 sec (  0.029%)
 model hessian                  ...        0 min,  0.091 sec (  6.087%)
 ANC generation                 ...        0 min,  0.001 sec (  0.056%)
 coordinate transformation      ...        0 min,  0.001 sec (  0.075%)
 single point calculation       ...        0 min,  1.382 sec ( 92.835%)
 optimization log               ...        0 min,  0.003 sec (  0.178%)
 hessian update                 ...        0 min,  0.003 sec (  0.194%)
 rational function              ...        0 min,  0.003 sec (  0.173%)

================
 final structure:
================
12
 xtb: 6.2.3 (830e466)
C         0.87080050968629    1.66899880940692   -2.06696576208987
C         0.67274764766803    0.78697139846042   -0.82787965944258
C         1.29131789726702   -0.56999920893069   -1.01116269145020
O         2.24810015306379    1.84966121230533   -2.22520731224606
O         0.20130928796037    2.88692730028531   -1.96424592893002
O         1.90265403083895   -1.16634010596230   -0.17490515659630
H         0.52748677920331    3.36142147171890   -1.18840872302851
H         2.41333578550547    2.41596351430777   -2.98835300579856
H         0.43211819911343    1.18116591126399   -2.95264965095027
H         1.11811040645946   -1.00048250785388   -2.01665840690526
H        -0.40001394160735    0.65533641105734   -0.66686280616572
H         1.11103324484119    1.26998579394090    0.04750910360333
 
 Bond Distances (Angstroems)
 ---------------------------
C1-C2=1.5338         C1-O4=1.3981         C1-O5=1.3936         C1-H9=1.1022         C2-C1=1.5338         C2-C3=1.5025         
C2-H11=1.0927        C2-H12=1.0917        C3-C2=1.5025         C3-O6=1.1953         C3-H10=1.1074        O4-C1=1.3981         
O4-H8=0.9646         O5-C1=1.3936         O5-H7=0.9662         O6-C3=1.1953         H7-O5=0.9662         H8-O4=0.9646         
H9-C1=1.1022         H10-C3=1.1074        H11-C2=1.0927        H12-C2=1.0917        
 C  H  Rav=1.0985 sigma=0.0066  Rmin=1.0917  Rmax=1.1074     4
 C  C  Rav=1.5182 sigma=0.0156  Rmin=1.5025  Rmax=1.5338     2
 O  H  Rav=0.9654 sigma=0.0008  Rmin=0.9646  Rmax=0.9662     2
 O  C  Rav=1.3290 sigma=0.0946  Rmin=1.1953  Rmax=1.3981     3
 
 selected bond angles (degree)
 --------------------
O4-C1-C2=107.03                O5-C1-C2=112.40                O5-C1-O4=111.63                H9-C1-C2=110.07                
H9-C1-O4=111.00                H9-C1-O5=104.76                C3-C2-C1=111.57                H11-C2-C1=108.37               
H11-C2-C3=108.26               H12-C2-C1=109.97               H12-C2-C3=109.40               H12-C2-H11=109.23              
O6-C3-C2=125.16                H10-C3-C2=113.42               H10-C3-O6=121.42               H8-O4-C1=109.52                
H7-O5-C1=109.04                
 
 selected dihedral angles (degree)
 ---------------------------------
C3-C2-C1-O4=297.49            C3-C2-C1-O5=174.58            C3-C2-C1-H9= 58.22            H11-C2-C1-O4=178.39           
H11-C2-C1-O5= 55.48           H11-C2-C1-H9=299.12           H12-C2-C1-O4= 59.06           H12-C2-C1-O5=296.15           
H12-C2-C1-H9=179.79           O6-C3-C2-C1=139.06            O6-C3-C2-H11=258.22           O6-C3-C2-H12= 17.16           
H10-C3-C2-C1=318.17           H10-C3-C2-H11= 77.33          H10-C3-C2-H12=196.26          H8-O4-C1-C2=181.08            
H8-O4-C1-O5=304.46            H8-O4-C1-H9= 60.93            H7-O5-C1-C2= 59.24            H7-O5-C1-O4=298.96            
H7-O5-C1-H9=178.75            
           -------------------------------------------------
          |                Final Singlepoint                |
           -------------------------------------------------

          ...................................................
          :                      SETUP                      :
          :.................................................:
          :  # basis functions                  30          :
          :  # atomic orbitals                  30          :
          :  # shells                           18          :
          :  # electrons                        36          :
          :  max. iterations                   100          :
          :  Hamiltonian                  GFN2-xTB          :
          :  restarted?                      false          :
          :  GBSA solvation                  false          :
          :  PC potential                    false          :
          :  electronic temp.          300.0000000     K    :
          :  accuracy                    1.0000000          :
          :  -> integral cutoff          0.2500000E+02      :
          :  -> integral neglect         0.1000000E-07      :
          :  -> SCF convergence          0.1000000E-05 Eh   :
          :  -> wf. convergence          0.1000000E-03 e    :
          :  Broyden damping             0.4000000          :
          ...................................................

 iter      E             dE          RMSdq      gap      omega  full diag
   1    -21.8310103 -0.218310E+02  0.668E-05    3.89       0.0  T
   2    -21.8310103 -0.676081E-11  0.382E-05    3.89     754.9  T
   3    -21.8310103 -0.110489E-11  0.184E-05    3.89    1572.0  T

   *** convergence criteria satisfied after 3 iterations ***

         #    Occupation            Energy/Eh            Energy/eV
      -------------------------------------------------------------
         1        2.0000           -0.7277296             -19.8025
       ...           ...                  ...                  ...
        12        2.0000           -0.5302494             -14.4288
        13        2.0000           -0.5234974             -14.2451
        14        2.0000           -0.4911188             -13.3640
        15        2.0000           -0.4761269             -12.9561
        16        2.0000           -0.4637992             -12.6206
        17        2.0000           -0.4464110             -12.1475
        18        2.0000           -0.4125807             -11.2269 (HOMO)
        19                         -0.2696304              -7.3370 (LUMO)
        20                          0.0333358               0.9071
        21                          0.0505622               1.3759
        22                          0.0858610               2.3364
        23                          0.0976481               2.6571
       ...                                ...                  ...
        30                          0.6191772              16.8487
      -------------------------------------------------------------
                  HL-Gap            0.1429503 Eh            3.8899 eV
             Fermi-level           -0.3411056 Eh           -9.2820 eV

 SCC (total)                   0 d,  0 h,  0 min,  0.002 sec
 SCC setup                      ...        0 min,  0.000 sec (  8.595%)
 Dispersion                     ...        0 min,  0.000 sec (  1.779%)
 integral evaluation            ...        0 min,  0.000 sec ( 17.558%)
 zeroth order Hamiltonian       ...        0 min,  0.000 sec (  3.200%)
 iterations                     ...        0 min,  0.001 sec ( 23.475%)
 molecular gradient             ...        0 min,  0.001 sec ( 29.450%)
 printout                       ...        0 min,  0.000 sec (  7.541%)

         :::::::::::::::::::::::::::::::::::::::::::::::::::::
         ::                     SUMMARY                     ::
         :::::::::::::::::::::::::::::::::::::::::::::::::::::
         :: total energy             -21.649965387091 Eh    ::
         :: gradient norm              0.000560636075 Eh/a0 ::
         :: HOMO-LUMO gap              3.889875185198 eV    ::
         ::.................................................::
         :: SCC energy               -21.831010335934 Eh    ::
         :: -> isotropic ES            0.070034636131 Eh    ::
         :: -> anisotropic ES          0.000267134349 Eh    ::
         :: -> anisotropic XC         -0.001083943304 Eh    ::
         :: -> dispersion             -0.005933462215 Eh    ::
         :: repulsion energy           0.181039007683 Eh    ::
         :: add. restraining           0.000000000000 Eh    ::
         :::::::::::::::::::::::::::::::::::::::::::::::::::::

           -------------------------------------------------
          |                Property Printout                |
           -------------------------------------------------

    * Orbital Energies and Occupations

         #    Occupation            Energy/Eh            Energy/eV
      -------------------------------------------------------------
         1        2.0000           -0.7277296             -19.8025
       ...           ...                  ...                  ...
         6        2.0000           -0.6224477             -16.9377
         7        2.0000           -0.6069913             -16.5171
         8        2.0000           -0.5784923             -15.7416
         9        2.0000           -0.5759837             -15.6733
        10        2.0000           -0.5584994             -15.1975
        11        2.0000           -0.5485408             -14.9266
        12        2.0000           -0.5302494             -14.4288
        13        2.0000           -0.5234974             -14.2451
        14        2.0000           -0.4911188             -13.3640
        15        2.0000           -0.4761269             -12.9561
        16        2.0000           -0.4637992             -12.6206
        17        2.0000           -0.4464110             -12.1475
        18        2.0000           -0.4125807             -11.2269 (HOMO)
        19                         -0.2696304              -7.3370 (LUMO)
        20                          0.0333358               0.9071
        21                          0.0505622               1.3759
        22                          0.0858610               2.3364
        23                          0.0976481               2.6571
        24                          0.1141108               3.1051
        25                          0.1396692               3.8006
        26                          0.1738313               4.7302
        27                          0.2092152               5.6930
        28                          0.2379795               6.4758
        29                          0.2558091               6.9609
        30                          0.6191772              16.8487
      -------------------------------------------------------------
                  HL-Gap            0.1429503 Eh            3.8899 eV
             Fermi-level           -0.3411056 Eh           -9.2820 eV

     #   Z        covCN         q      C6AA      α(0)
     1   6 C      3.603     0.251    17.199     5.996
     2   6 C      3.802    -0.105    22.513     6.755
     3   6 C      2.758     0.222    23.328     7.909
     4   8 O      1.657    -0.453    21.900     6.317
     5   8 O      1.656    -0.450    21.836     6.308
     6   8 O      0.856    -0.303    19.828     5.970
     7   1 H      0.805     0.308     0.697     1.312
     8   1 H      0.805     0.308     0.698     1.313
     9   1 H      0.923     0.031     2.578     2.511
    10   1 H      0.922     0.024     2.668     2.554
    11   1 H      0.924     0.083     1.946     2.182
    12   1 H      0.924     0.083     1.945     2.181

 Mol. C6AA /au·bohr⁶  :       1232.865204
 Mol. C8AA /au·bohr⁸  :      26274.726433
 Mol. α(0) /au        :         51.308378


Wiberg/Mayer (AO) data.
largest (>0.10) Wiberg bond orders for each atom
          total WBO             WBO to atom ...
     1  C   3.936        O    5 0.998    O    4 0.991    C    2 0.968    H    9 0.951
     2  C   3.993        C    3 1.005    C    1 0.968    H   12 0.965    H   11 0.939
     3  C   3.918        O    6 1.943    C    2 1.005    H   10 0.930
     4  O   1.971        C    1 0.991    H    8 0.888
     5  O   1.981        C    1 0.998    H    7 0.886
     6  O   2.109        C    3 1.943
     7  H   0.905        O    5 0.886
     8  H   0.905        O    4 0.888
     9  H   0.999        C    1 0.951
    10  H   0.999        C    3 0.930
    11  H   0.993        C    2 0.939
    12  H   0.993        C    2 0.965

molecular dipole:
                 x           y           z       tot (Debye)
 q only:       -0.463       0.715      -0.358
   full:       -0.544       0.897      -0.538       2.997
molecular quadrupole (traceless):
                xx          xy          yy          xz          yz          zz
 q only:       -5.462       5.882       1.884      -3.318       0.750       3.578
  q+dip:       -8.032       8.539       1.830      -4.400       1.753       6.202
   full:       -7.322       8.748       1.878      -4.978       1.288       5.444

           -------------------------------------------------
          |                Geometry Summary                 |
           -------------------------------------------------

      molecular mass/u    :       90.0780670
   center of mass at/Å    :        1.2092026       0.9738191      -1.4052715
  moments of inertia/u·Å² :        0.5952188E+02   0.2535309E+03   0.2897597E+03
rotational constants/cm⁻¹ :        0.2832174E+00   0.6649143E-01   0.5817797E-01

 * 9 selected distances

     #   Z        #   Z                                     value/Å
     1   6 C      2   6 C                                 1.5337965 (max)
     1   6 C      4   8 O                                 1.3980821
     1   6 C      5   8 O                                 1.3935995
     3   6 C      6   8 O                                 1.1952744
     5   8 O      7   1 H                                 0.9661573
     4   8 O      8   1 H                                 0.9645685 (min)
     1   6 C      9   1 H                                 1.1022064
     2   6 C     11   1 H                                 1.0927358
     2   6 C     12   1 H                                 1.0916513

 * 4 distinct bonds (by element types)

   Z      Z             #   av. dist./Å        max./Å        min./Å
   1 H    6 C           3     1.0955312     1.1022064     1.0916513
   6 C    6 C           1     1.5337965     1.5337965     1.5337965
   1 H    8 O           2     0.9653629     0.9661573     0.9645685
   6 C    8 O           3     1.3289854     1.3980821     1.1952744


optimized geometry written to: xtbopt.xyz


           -------------------------------------------------
          | TOTAL ENERGY              -21.649965387091 Eh   |
          | GRADIENT NORM               0.000560636075 Eh/α |
          | HOMO-LUMO GAP               3.889875185198 eV   |
           -------------------------------------------------

------------------------------------------------------------------------
 * finished run on 2020/12/23 at 21:41:08.459     
------------------------------------------------------------------------
 total:
 * wall-time:     0 d,  0 h,  0 min,  1.725 sec
 *  cpu-time:     0 d,  0 h,  0 min,  7.197 sec
 * ratio c/w:     4.172 speedup
 SCF:
 * wall-time:     0 d,  0 h,  0 min,  0.011 sec
 *  cpu-time:     0 d,  0 h,  0 min,  0.271 sec
 * ratio c/w:    24.902 speedup
 ANC optimizer:
 * wall-time:     0 d,  0 h,  0 min,  1.494 sec
 *  cpu-time:     0 d,  0 h,  0 min,  5.908 sec
 * ratio c/w:     3.954 speedup

