12
 energy: -21.490508156469 gnorm: 0.160921703851 xtb: 6.2.3 (830e466)
C         1.42319000000000    1.81477000000000   -1.13155000000000
C         0.82287000000000    0.66949000000000   -0.78609000000000
C         1.55694000000000   -0.60565000000000   -0.66033000000000
O         0.69941000000000    2.94933000000000   -1.23549000000000
O         1.26712000000000    4.06627000000000   -1.55901000000000
O         2.75855000000000   -0.67150000000000   -0.86921000000000
H         1.11835000000000    4.15343000000000   -2.53514000000000
H         2.49133000000000    1.84179000000000   -1.33174000000000
H         0.06761000000000   -0.06772000000000   -3.60505000000000
H         1.01641000000000   -1.50283000000000   -0.37865000000000
H        -0.58708000000000    0.02565000000000   -3.35214000000000
H        -0.24572000000000    0.66658000000000   -0.59141000000000
12
 energy: -21.503858846671 gnorm: 0.058695336044 xtb: 6.2.3 (830e466)
C         1.41024902010451    1.80360498613465   -1.12145425079859
C         0.81986834532386    0.65515894733614   -0.77259147210626
C         1.57517954585975   -0.58931169788670   -0.66328021986873
O         0.66918348615420    2.92562308725450   -1.21901267294978
O         1.30286508443448    4.07076162462856   -1.58135626774685
O         2.76683880043193   -0.67138992438689   -0.87496224173073
H         1.13349708667554    4.18006659536337   -2.54110443386744
H         2.47614421223826    1.85068171944015   -1.32879917429017
H         0.08983233905669   -0.07713421928453   -3.62240806846903
H         1.00542603759047   -1.48019335843355   -0.37928586396246
H        -0.61762057445491    0.02888116136381   -3.35680141992667
H        -0.24248338341488    0.64286107847054   -0.57475391428334
12
 energy: -21.506886134327 gnorm: 0.012017936731 xtb: 6.2.3 (830e466)
C         1.39257216480335    1.80233050203330   -1.10985570436125
C         0.81402287357160    0.64744257599750   -0.75504833163753
C         1.59207964040591   -0.57519826443528   -0.66548090742666
O         0.64971374068751    2.91758168749933   -1.20535601305509
O         1.35500579383611    4.06036998729670   -1.60066860942711
O         2.77676324391155   -0.66577787014187   -0.88423574184190
H         1.13754174655945    4.18957969770746   -2.54105871513780
H         2.45435869298828    1.86681424151399   -1.32322443442923
H         0.09340446850797   -0.09316131222542   -3.63740313842013
H         1.00236191067363   -1.46228952942196   -0.37588799365136
H        -0.63607994721058    0.03250069562026   -3.39132840422549
H        -0.24276432873495    0.61941758855612   -0.54626200638653
12
 energy: -21.507368140335 gnorm: 0.008699238270 xtb: 6.2.3 (830e466)
C         1.38115173971401    1.80358218240977   -1.10202390903621
C         0.81060123965538    0.64596407111073   -0.73912761589510
C         1.60085235554445   -0.56912887024231   -0.65722145842195
O         0.64599188569586    2.91873918923898   -1.20479646621566
O         1.39276227622979    4.05108720660547   -1.61019157265576
O         2.78158826462435   -0.65920349844322   -0.89093580796529
H         1.13295799477911    4.20311757179334   -2.53690440911101
H         2.44082687732927    1.87380771689115   -1.31791752416146
H         0.08702793894821   -0.10639984404351   -3.65697079995246
H         1.00854901634289   -1.45826817398720   -0.36799027294782
H        -0.65008553079443    0.03048576421080   -3.43200530302414
H        -0.24324405806914    0.60582668445620   -0.51972486061328
12
 energy: -21.507613194334 gnorm: 0.010963624112 xtb: 6.2.3 (830e466)
C         1.37310725782395    1.80452848592990   -1.09376892650437
C         0.80888228662445    0.64548027780548   -0.72511944642813
C         1.60646349891577   -0.56674821045334   -0.65444814596052
O         0.64555794675872    2.91990168966005   -1.21402747159731
O         1.42047097482761    4.04287325345488   -1.61435074474791
O         2.78637073923482   -0.65029631240415   -0.89198875442256
H         1.13304988646475    4.22262404315761   -2.52735294436706
H         2.43206719895722    1.87567264744090   -1.31129298697985
H         0.07142298881499   -0.11677895113564   -3.68492323278715
H         1.02146403227924   -1.45562723551923   -0.34660039192495
H        -0.66717286733294    0.02383637853757   -3.47513962850149
H        -0.24270394336885    0.59414393352621   -0.49679732577885
12
 energy: -21.507865954592 gnorm: 0.011874791237 xtb: 6.2.3 (830e466)
C         1.36284117670160    1.80272186139182   -1.08972436503983
C         0.80790873889237    0.64523614069334   -0.70315307074340
C         1.61834482032050   -0.55942378812717   -0.62395062513253
O         0.64667069492398    2.91963729886219   -1.23803551639529
O         1.45359352414905    4.03055859015002   -1.61655662325830
O         2.79283730787296   -0.63700305942273   -0.89452667757062
H         1.13447861064589    4.26018275890893   -2.50781711980334
H         2.42290354668486    1.87176550840659   -1.30386300449895
H         0.04497957710675   -0.13362930294415   -3.72383665301844
H         1.04149562049199   -1.45596176557889   -0.32453087821560
H        -0.69586266995690    0.01701558394716   -3.54346763480079
H        -0.24121094783333    0.57851017371313   -0.46634783152305
12
 energy: -21.508134196229 gnorm: 0.006935470430 xtb: 6.2.3 (830e466)
C         1.36008180890216    1.79894433797101   -1.08887039153051
C         0.80900386030530    0.64392958039300   -0.69273300757887
C         1.62586892184333   -0.55716731423215   -0.61352266676492
O         0.65032183664209    2.91698003387131   -1.26093653238614
O         1.46861948832273    4.02179002570150   -1.61195105271186
O         2.80060982045769   -0.62436899304743   -0.88404547170165
H         1.13720561264716    4.29515200698946   -2.48464335322256
H         2.42201709505692    1.86146120334484   -1.30097958259017
H         0.01942063117016   -0.15177432280931   -3.74608275988545
H         1.06437847089391   -1.45297836630120   -0.28642885500740
H        -0.72952375878133    0.01899611066951   -3.61112677345660
H        -0.23902378746030    0.56864569744966   -0.45448955316398
12
 energy: -21.508310354024 gnorm: 0.008384238060 xtb: 6.2.3 (830e466)
C         1.36168838510427    1.79109516795877   -1.09677761868885
C         0.81030016331502    0.64127011148556   -0.68843663994236
C         1.63479126753747   -0.55318577786090   -0.59363243458810
O         0.65838175737200    2.91223505023512   -1.27986367125752
O         1.48204346221471    4.01268123192828   -1.60467348954273
O         2.80962345927705   -0.61400842649779   -0.86462390008482
H         1.12986923767602    4.33525933651724   -2.45490326583267
H         2.42588557431038    1.84407008193393   -1.30557457831035
H        -0.01103295813443   -0.16029648747805   -3.77798717842466
H         1.08592647195553   -1.44752377557226   -0.24350264695945
H        -0.76081006898781    0.01405810484238   -3.67211513235063
H        -0.23768675164006    0.56395538250773   -0.45371944401782
12
 energy: -21.508390536846 gnorm: 0.009752035883 xtb: 6.2.3 (830e466)
C         1.36526546051020    1.78393314702352   -1.10506323803142
C         0.81305796372189    0.63723727731862   -0.68889454663512
C         1.64745469078475   -0.54813454420299   -0.57073032452635
O         0.66202753052545    2.90469003966961   -1.29692970690587
O         1.48554102662202    4.00601300635186   -1.59698474830794
O         2.82231283704976   -0.60528519499276   -0.84338095183208
H         1.13314440597164    4.36411645569803   -2.42398356936506
H         2.43113115681934    1.83072554099516   -1.31035680752681
H        -0.04113228457387   -0.17060169458391   -3.79257971491862
H         1.10839817781202   -1.44078231367164   -0.20241233678996
H        -0.80237661055412    0.01738010497070   -3.74455810557424
H        -0.23584435468845    0.56031817542351   -0.45993594958631
12
 energy: -21.508516066893 gnorm: 0.009206474752 xtb: 6.2.3 (830e466)
C         1.36947019184608    1.77630090430870   -1.11425538770501
C         0.81473615701612    0.63232464371843   -0.69255333324655
C         1.65701899466678   -0.54462991913731   -0.55021029611062
O         0.66920987671743    2.89836072650766   -1.30852987773356
O         1.50213108951136    3.99821668110346   -1.59365425425865
O         2.83265136176360   -0.60036800134358   -0.81898242039968
H         1.11939375945578    4.39913476537407   -2.39407330579199
H         2.43625476647626    1.81906895048749   -1.31484924060757
H        -0.07374151537748   -0.16789055809972   -3.83369530336148
H         1.12399948195588   -1.43332791613630   -0.16183775156254
H        -0.82706326197152    0.00514376399353   -3.78535314023066
H        -0.23508090205921    0.55727595922301   -0.46781568899125
12
 energy: -21.508574992409 gnorm: 0.012408494214 xtb: 6.2.3 (830e466)
C         1.37464797138306    1.77318683364667   -1.11678653316553
C         0.81854617287935    0.62901442467499   -0.69581236929544
C         1.66277036015690   -0.54390422121234   -0.53921327144479
O         0.67461507836817    2.89442813514812   -1.31154105443658
O         1.51482988957588    3.99418498115213   -1.59687474702777
O         2.83911152082301   -0.60127149321179   -0.80412452140723
H         1.10296393668508    4.41541141828446   -2.37820981384387
H         2.44120490677657    1.81830835869407   -1.31355476023976
H        -0.08753952227194   -0.16849562373388   -3.83911203858420
H         1.12934665297675   -1.42863032205479   -0.14198455717676
H        -0.84923743115876    0.00258040971743   -3.82381911544680
H        -0.23227953619271    0.55479709889418   -0.47477721793070
12
 energy: -21.508677252137 gnorm: 0.011853418193 xtb: 6.2.3 (830e466)
C         1.39789816550148    1.77199363607373   -1.11482227442171
C         0.83473179808370    0.62108398122032   -0.71619657984805
C         1.67181801280788   -0.54765980919042   -0.52435763302893
O         0.68365390952294    2.88313009963122   -1.30243643816635
O         1.52110795227775    3.99524349737507   -1.61487722749835
O         2.85247534109537   -0.61891173037675   -0.76600035956199
H         1.06600168775883    4.41178968837781   -2.35751257545015
H         2.46232456941644    1.83696889800459   -1.29812820922910
H        -0.11821765401057   -0.14018565692645   -3.84994449827397
H         1.12253222074554   -1.41761212230054   -0.12020143572811
H        -0.88356547901384   -0.01199263241487   -3.85693709580309
H        -0.22178052418299    0.55576215052478   -0.51439567298910
12
 energy: -21.508848018455 gnorm: 0.007805909513 xtb: 6.2.3 (830e466)
C         1.40664282957633    1.76680396175634   -1.11690633587780
C         0.84178088906954    0.61870101370351   -0.71382101262859
C         1.67966116209500   -0.54860707895466   -0.50543310330845
O         0.69261373236638    2.87659227741069   -1.32026351687295
O         1.52428479822009    3.99019192262536   -1.61737192613035
O         2.86116625079189   -0.61914189283615   -0.74525961969122
H         1.05147424740954    4.44358406873794   -2.33611438198545
H         2.47420956469285    1.82897066892523   -1.29050586235022
H        -0.14620668403749   -0.13841772629684   -3.86951843086390
H         1.13456471626530   -1.41635356489588   -0.08991297316255
H        -0.91479851664972   -0.01578254006425   -3.90869839716516
H        -0.21641298979653    0.55306888988677   -0.52200443996198
12
 energy: -21.508946620502 gnorm: 0.005104854345 xtb: 6.2.3 (830e466)
C         1.41710717059021    1.76510488087697   -1.11309983935857
C         0.85207228392208    0.61829058994026   -0.70866949087645
C         1.68469233174064   -0.55241725810005   -0.49339483289430
O         0.69983404234369    2.87047780217799   -1.33641723388341
O         1.51878146573868    3.98803414913970   -1.62717363275725
O         2.86736301699394   -0.62406751370054   -0.72821494749132
H         1.03761918596505    4.46000312396567   -2.32750751784273
H         2.48864672359051    1.83018486519794   -1.27141213035890
H        -0.16923002974826   -0.13384721831480   -3.88020837761480
H         1.13730251209194   -1.41904272010012   -0.08005572672199
H        -0.93685124406066   -0.01316900056288   -3.93881044136809
H        -0.20835745916393    0.55005829947747   -0.53084582883052
12
 energy: -21.509014250712 gnorm: 0.009648988425 xtb: 6.2.3 (830e466)
C         1.43509046828240    1.76247661671061   -1.10783310555514
C         0.86804845542670    0.61525961951158   -0.70789020189051
C         1.69504969688857   -0.55643567456321   -0.47360286819577
O         0.71227335929299    2.86002131340947   -1.35107973230401
O         1.52336783913854    3.98258014832094   -1.64673956301152
O         2.88099073252252   -0.63240050117104   -0.69141695594634
H         1.00471154937103    4.47906416695565   -2.30819642651893
H         2.50938347891310    1.83680165535137   -1.24638400283880
H        -0.20743269578928   -0.12076063887175   -3.89806087257918
H         1.13930743534653   -1.41833051409982   -0.06292061294204
H        -0.97528325918178   -0.01363438761223   -3.98926441944854
H        -0.19652706020614    0.54496819605524   -0.55242123876699
12
 energy: -21.509112274401 gnorm: 0.005525542644 xtb: 6.2.3 (830e466)
C         1.45109276620537    1.76450615007356   -1.09683055490397
C         0.88420672411695    0.61555828674899   -0.70415333203784
C         1.70072626780120   -0.56302729259701   -0.46631804225781
O         0.72145281440851    2.85186770907716   -1.36092171868774
O         1.51857943392002    3.97979933391495   -1.67402253111218
O         2.89105568942855   -0.64207652676490   -0.65879770520085
H         0.97616288326512    4.47409103866351   -2.30867691165233
H         2.52756593573433    1.85229674323325   -1.21381295833019
H        -0.23243241296621   -0.10604126207224   -3.89729570500150
H         1.12913846583875   -1.42597232111858   -0.08105202472598
H        -0.99482020773393   -0.00113721453680   -4.00136509882828
H        -0.18374836001214    0.53974535537405   -0.57256341725856
12
 energy: -21.509183190264 gnorm: 0.005952775459 xtb: 6.2.3 (830e466)
C         1.46283998250983    1.76134664718372   -1.09674264158934
C         0.89518475929730    0.61110147831698   -0.70830929433553
C         1.71252269210162   -0.56384480968423   -0.44955619264515
O         0.72882222949005    2.84086714413197   -1.37453728406175
O         1.52439638668332    3.97235750024387   -1.69071902105738
O         2.90717928491042   -0.64077065624854   -0.61443652010982
H         0.95733224084535    4.48410047856762   -2.29002326327941
H         2.53924428702139    1.85730544742809   -1.19812245104823
H        -0.26673214558307   -0.08819824874139   -3.90258434953710
H         1.13356165524498   -1.42803909625184   -0.07587014719550
H        -1.03105746375058    0.00087447098073   -4.04183584955264
H        -0.17431390876270    0.53250964406807   -0.59307298558480
12
 energy: -21.509242116736 gnorm: 0.012050867457 xtb: 6.2.3 (830e466)
C         1.47414338042788    1.75354137901301   -1.10201946355461
C         0.90686036205256    0.60147502637331   -0.71620697586649
C         1.73428777445489   -0.56004459824718   -0.41986560637905
O         0.73680786403620    2.82203508075072   -1.40199178561614
O         1.53994839350270    3.95500417784255   -1.71358268637056
O         2.93619696523581   -0.62343546232718   -0.53256473169251
H         0.93921500016544    4.50454745967053   -2.25264156611620
H         2.54834329598074    1.85758730538443   -1.18357645787803
H        -0.33167948896819   -0.07494351036567   -3.92696254737122
H         1.14941406455777   -1.43318064004956   -0.07033420545250
H        -1.08173330913696    0.02136652407899   -4.09308295892422
H        -0.16282430229873    0.51565725786968   -0.62298101477420
12
 energy: -21.509298407871 gnorm: 0.010467211452 xtb: 6.2.3 (830e466)
C         1.46429416276936    1.75066051685442   -1.10857616491524
C         0.90057826165183    0.59761476331513   -0.71866732632936
C         1.73847512749176   -0.55370633837513   -0.42015608937364
O         0.72987782097556    2.81879022583425   -1.41152541147267
O         1.54337669990841    3.94766631842056   -1.71342957834511
O         2.94136465217264   -0.59955107118288   -0.51305255395879
H         0.96319136118910    4.49793153309380   -2.24981997106780
H         2.53583252268368    1.85160396949557   -1.19254644038004
H        -0.33508165999533   -0.06668369259564   -3.90673531030973
H         1.15937907394564   -1.44052025745716   -0.09081757533880
H        -1.08630315543866    0.03023890343119   -4.08747131796288
H        -0.16600486734343    0.50556512915923   -0.62301226054149
12
 energy: -21.509389642733 gnorm: 0.005780626866 xtb: 6.2.3 (830e466)
C         1.47467520634682    1.74689964656685   -1.10507229833432
C         0.91119573145614    0.59379843159578   -0.71573963164282
C         1.74558079723719   -0.55543383275924   -0.40730846594318
O         0.73807715433929    2.81054074360719   -1.43042583361896
O         1.54461628996528    3.94099286596997   -1.73068710384240
O         2.95076775584196   -0.59462471984242   -0.48241563153234
H         0.94715810572358    4.51144339697647   -2.23761639124055
H         2.55132449430764    1.85312331381664   -1.16902706865500
H        -0.36541987929807   -0.05477838789479   -3.90964894963378
H         1.16584708620492   -1.44448591249950   -0.08745541799593
H        -1.11530535453113    0.03715034963730   -4.11897246439566
H        -0.15953738758187    0.49498410481833   -0.64144074316015
12
 energy: -21.509435520091 gnorm: 0.003834391847 xtb: 6.2.3 (830e466)
C         1.47566149542361    1.74418152944733   -1.10689895126318
C         0.91148030293882    0.59057852344744   -0.72038109276110
C         1.74596063631415   -0.55557563797959   -0.40553381885168
O         0.74184435800699    2.80879862969254   -1.43339428215617
O         1.54643923271515    3.93754832712061   -1.73760957967818
O         2.95194441026906   -0.58728080552197   -0.46855683725188
H         0.94151118398584    4.51214754010356   -2.23389617625558
H         2.55382646107206    1.85088123297166   -1.16573902327289
H        -0.37381149281165   -0.05276913719352   -3.90892010081669
H         1.17004727315496   -1.44752948488098   -0.09048708923162
H        -1.11581705072962    0.04911392311236   -4.11183521167509
H        -0.16010681032714    0.48951535967281   -0.65255783678082
12
 energy: -21.509479818940 gnorm: 0.001548635831 xtb: 6.2.3 (830e466)
C         1.47409094159357    1.74330808265668   -1.10876933793970
C         0.90995501274345    0.58865699765610   -0.72539696929111
C         1.74544191389521   -0.55558305214698   -0.40628433133781
O         0.74169451134223    2.81033792281630   -1.43033583010380
O         1.54933337800037    3.93384310496123   -1.74684637733296
O         2.95126268611931   -0.58489044374570   -0.46532501436638
H         0.94010224505066    4.51565346230952   -2.22575676234772
H         2.55164297103613    1.84859544788173   -1.17015817084237
H        -0.37316249891116   -0.05031494923245   -3.89453756524783
H         1.17116458877485   -1.44732361703533   -0.09004699191669
H        -1.11168386058642    0.04974575713871   -4.11542656572885
H        -0.16086188904586    0.48758128673248   -0.65692608353977
12
 energy: -21.509537405041 gnorm: 0.007415340348 xtb: 6.2.3 (830e466)
C         1.46744830726902    1.73802667926265   -1.12006427205496
C         0.90284709527482    0.58077280123814   -0.74547927741787
C         1.74351467639839   -0.55446510448378   -0.40598149706093
O         0.74202997531737    2.81480387812110   -1.42426107202936
O         1.56344961407844    3.91558487425146   -1.79139493965708
O         2.94965138559526   -0.57428726439652   -0.45171017853232
H         0.93044906749710    4.53559558522938   -2.18632869079414
H         2.54386713891803    1.83869924529781   -1.18559590554306
H        -0.37340984481788   -0.03738974072952   -3.82114226325143
H         1.17452081532607   -1.44885977426296   -0.09357530851138
H        -1.08915710418837    0.05264699814130   -4.13384607756201
H        -0.16623112665549    0.47848182232332   -0.67643051758106
12
 energy: -21.509587906170 gnorm: 0.003081364617 xtb: 6.2.3 (830e466)
C         1.46676938795070    1.73764217032544   -1.12067629802705
C         0.90175979850006    0.58024606631915   -0.74712052392224
C         1.74244404292821   -0.55556043240744   -0.40988723283647
O         0.74200899137266    2.81348333992719   -1.42897739904759
O         1.56291484037020    3.91430185203478   -1.79494152472895
O         2.94906263320955   -0.57332917719327   -0.45018535651373
H         0.93009077041444    4.53783440151053   -2.18291181988412
H         2.54365811908675    1.83826156255962   -1.18456827963434
H        -0.36953699960938   -0.03572969456266   -3.82493963535623
H         1.17357595372549   -1.44892281925818   -0.09314622257764
H        -1.08597802736895    0.05438076230147   -4.11811988042870
H        -0.16778951056704    0.47700196843573   -0.68033582703838
12
 energy: -21.509627903394 gnorm: 0.001650095478 xtb: 6.2.3 (830e466)
C         1.46555288425990    1.73579153428138   -1.12523856846192
C         0.90000904860816    0.57948157388130   -0.74926029167053
C         1.74100539802710   -0.55523187568049   -0.40946966024686
O         0.74190256848988    2.80948622801895   -1.44218142851360
O         1.56172325152875    3.91071746715151   -1.80459267218490
O         2.94782963827642   -0.57189885070577   -0.44821534735277
H         0.92838568224632    4.54402816523185   -2.17311701293272
H         2.54341622254270    1.83700610431909   -1.18368122096846
H        -0.36575618795556   -0.02910765269156   -3.80633630720912
H         1.17140272247868   -1.45169145073436   -0.10056719448822
H        -1.07611372177273    0.05692092162590   -4.10607314370355
H        -0.17037750671692    0.47410783529455   -0.68707715226279
12
 energy: -21.509630801426 gnorm: 0.012713690408 xtb: 6.2.3 (830e466)
C         1.45886635752064    1.72721411939996   -1.14648314956085
C         0.89081199714052    0.57295888785272   -0.76795402703164
C         1.73314618593881   -0.55916544877077   -0.42434075706305
O         0.74094498863618    2.79492521935394   -1.49269629420992
O         1.56246146070666    3.88975422302911   -1.86000828517539
O         2.94201123319212   -0.56388468969641   -0.43400804941170
H         0.91575148504441    4.57692563508977   -2.11718710362741
H         2.53983641095633    1.82847949844704   -1.18703848721526
H        -0.35137164443154    0.00611430195766   -3.68771300908316
H         1.16355726538279   -1.45900830543589   -0.11872589279293
H        -1.02511845873451    0.06594901723072   -4.07552293098767
H        -0.18191728133939    0.45934754153455   -0.72413201383678
12
 energy: -21.509707678469 gnorm: 0.005574673146 xtb: 6.2.3 (830e466)
C         1.45979330375324    1.72867987712661   -1.14487851580822
C         0.89284090832853    0.57425226165127   -0.76488030361876
C         1.73409241012531   -0.55896330062942   -0.42253388628578
O         0.73840539108694    2.79292409022596   -1.49547669903685
O         1.55638408858699    3.89663073542451   -1.84309730254274
O         2.94237384964786   -0.56719278504707   -0.43769111233647
H         0.92169104956114    4.56580533343393   -2.13427293521505
H         2.54033491679417    1.83237876348360   -1.18334374190330
H        -0.35291962891779    0.00777904486311   -3.68824884500480
H         1.16321189055469   -1.45985166687727   -0.12264160692510
H        -1.02771256316982    0.06625523883410   -4.07774909053290
H        -0.17951561633828    0.46091240750306   -0.72099596078575
12
 energy: -21.509729661284 gnorm: 0.003108734725 xtb: 6.2.3 (830e466)
C         1.45837859409504    1.72769030172194   -1.14971115483569
C         0.89208436452801    0.57293455094486   -0.76951944113523
C         1.73328393163093   -0.55712263883167   -0.41482439571319
O         0.73616154294832    2.79543120810961   -1.48751299310452
O         1.55916846059236    3.89522975958231   -1.84693042479109
O         2.94031593603898   -0.56867519894189   -0.43586312172165
H         0.91901303892943    4.56392961002749   -2.13174316134245
H         2.53697130641640    1.83101019437985   -1.19213077271940
H        -0.34618481219457    0.00811339242371   -3.69500726688073
H         1.16250380699170   -1.46030244558587   -0.12659632612721
H        -1.02433083116901    0.06918388897545   -4.06467830113903
H        -0.17838533879468    0.46218737718657   -0.72129264048540
12
 energy: -21.509768060297 gnorm: 0.001891316816 xtb: 6.2.3 (830e466)
C         1.45650885805808    1.72558386884611   -1.15565241708416
C         0.88988308223100    0.57048899764954   -0.77689576874587
C         1.73094286061107   -0.55913442849185   -0.42066043498145
O         0.73464046526342    2.79176116787433   -1.49906451128461
O         1.55766071253122    3.89178081821699   -1.85733774740770
O         2.93849909508664   -0.56770236757822   -0.43191615035000
H         0.91686385623795    4.56836428998736   -2.12173623668389
H         2.53532561691348    1.82931652390551   -1.19523971547503
H        -0.34228283984749    0.02127237250888   -3.65607275094849
H         1.16017087708281   -1.46171997685493   -0.13058150722867
H        -1.00834384437270    0.07121084335292   -4.05788777804928
H        -0.18088873978252    0.45838789057571   -0.73276498175652
12
 energy: -21.509789951363 gnorm: 0.005577387357 xtb: 6.2.3 (830e466)
C         1.45120596457828    1.71915979848684   -1.17491683737297
C         0.88377339324892    0.56342834930109   -0.79900221642847
C         1.72330807608974   -0.56456168019264   -0.43438589691965
O         0.72898929581881    2.78201434066063   -1.52867231565043
O         1.55224267031051    3.88350396620911   -1.88400223043842
O         2.93167091794950   -0.56725321224957   -0.42149391236792
H         0.90948250092322    4.57806672421090   -2.09688653756168
H         2.53011199529047    1.82498044029601   -1.20678066347901
H        -0.32283089633204    0.05391737315354   -3.56534465679338
H         1.15171838437116   -1.46576130974659   -0.14269077286587
H        -0.96326917053773    0.08290417471178   -4.01695633070578
H        -0.18742313169777    0.44921103515127   -0.76467762941214
12
 energy: -21.509811184608 gnorm: 0.002388449992 xtb: 6.2.3 (830e466)
C         1.45083568185057    1.71852246292737   -1.17730427571311
C         0.88327633393306    0.56265074770211   -0.80200619166876
C         1.72170506912743   -0.56575445158675   -0.43652807114802
O         0.72771135900664    2.78122173874535   -1.53004261826178
O         1.55000957751053    3.88426828594183   -1.88375231377014
O         2.92984651451368   -0.56898668259259   -0.42191945239225
H         0.90800990822765    4.57616426336504   -2.09826899649108
H         2.52951996444542    1.82499429379085   -1.20969547091818
H        -0.31568656797150    0.05529261478668   -3.56292892383433
H         1.14945926763245   -1.46587055178832   -0.14323463400911
H        -0.95771968693784    0.08788342879592   -4.00210511380058
H        -0.18798742132502    0.44922384990489   -0.76802393798833
12
 energy: -21.509828828793 gnorm: 0.001292774426 xtb: 6.2.3 (830e466)
C         1.44920603703860    1.71629966358422   -1.18462521816859
C         0.88135036888746    0.56093569610371   -0.80823837101926
C         1.71851427771873   -0.56608289208252   -0.43536114669551
O         0.72546082057438    2.77912461488169   -1.53564108909836
O         1.54716137906802    3.88231528916765   -1.89143946285188
O         2.92561928320466   -0.57146950835296   -0.42337322378898
H         0.90402450240084    4.57621220368318   -2.09383363461952
H         2.52754191577258    1.82360529602411   -1.21683647218957
H        -0.30447622727429    0.06626802843973   -3.53612860446214
H         1.14478641376673   -1.46845727295152   -0.15143017883715
H        -0.94040121306313    0.09229745551159   -3.98397601289759
H        -0.18980755808151    0.44856142598347   -0.77492658536707
12
 energy: -21.509836314964 gnorm: 0.001003706922 xtb: 6.2.3 (830e466)
C         1.44700443124102    1.71380286313822   -1.19221162932224
C         0.87847297231390    0.55857902008108   -0.81648261447366
C         1.71427823664344   -0.56849954698176   -0.44089813736164
O         0.72305623809600    2.77655071959225   -1.54308630927380
O         1.54363494259221    3.87925380463696   -1.90216586588550
O         2.92150663797906   -0.57375156277385   -0.42435028722962
H         0.89942539587628    4.57769633632423   -2.08740745781530
H         2.52533966255591    1.82169841493617   -1.22390884604303
H        -0.29168573230687    0.08013483161960   -3.50116775899481
H         1.13929844411625   -1.47022281265639   -0.15707642157308
H        -0.91847608962650    0.09719217279440   -3.96291763510201
H        -0.19287513946760    0.44717575928143   -0.78413703692089
12
 energy: -21.509842367411 gnorm: 0.001874231654 xtb: 6.2.3 (830e466)
C         1.44526462293301    1.71275933452422   -1.19556224893135
C         0.87608489983914    0.55803324928820   -0.81926607696241
C         1.71029975346767   -0.57099684964056   -0.44681656791935
O         0.72086800406247    2.77631395772932   -1.54320948864786
O         1.53959205872629    3.87773818680822   -1.90864923664848
O         2.91754770993407   -0.57833336533869   -0.43237075274494
H         0.89575492478899    4.57631226554368   -2.08798549061708
H         2.52358825779102    1.81998334842396   -1.23124786881656
H        -0.27979670219757    0.09135590275836   -3.47625385667296
H         1.13402740950540   -1.47106952526464   -0.16016107382494
H        -0.89878192723870    0.09851465773925   -3.95046189031312
H        -0.19546901159871    0.44899883742101   -0.78382544789648
12
 energy: -21.509854920112 gnorm: 0.001215454711 xtb: 6.2.3 (830e466)
C         1.44221972759296    1.71194959578611   -1.19811865591044
C         0.87191409012091    0.55900602855812   -0.81798863293556