      -----------------------------------------------------------      
     |                   =====================                   |     
     |                           x T B                           |     
     |                   =====================                   |     
     |                         S. Grimme                         |     
     |          Mulliken Center for Theoretical Chemistry        |     
     |                    University of Bonn                     |     
      -----------------------------------------------------------      

   * xtb version 6.2.3 (830e466) compiled by 'ehlert@majestix' on 2020-03-16

   xtb is free software: you can redistribute it and/or modify it under
   the terms of the GNU Lesser General Public License as published by
   the Free Software Foundation, either version 3 of the License, or
   (at your option) any later version.
   
   xtb is distributed in the hope that it will be useful,
   but WITHOUT ANY WARRANTY; without even the implied warranty of
   MERCHANTABILITY or FITNESS FOR A PARTICULAR PURPOSE.  See the
   GNU Lesser General Public License for more details.
   
   Cite this work as:
   * S. Grimme, C. Bannwarth, P. Shushkov, J. Chem. Theory Comput., 2017,
     13, 1989-2009. DOI: 10.1021/acs.jctc.7b00118
   * C. Bannwarth, S. Ehlert and S. Grimme., J. Chem. Theory Comput., 2019,
     15, 1652-1671. DOI: 10.1021/acs.jctc.8b01176
   * P. Pracht, E. Caldeweyher, S. Ehlert, S. Grimme, ChemRxiv, 2019, preprint.
     DOI: 10.26434/chemrxiv.8326202.v1
   
   for DFT-D4:
   * E. Caldeweyher, C. Bannwarth and S. Grimme, J. Chem. Phys., 2017,
     147, 034112. DOI: 10.1063/1.4993215
   * E. Caldeweyher, S. Ehlert, A. Hansen, H. Neugebauer, S. Spicher,
     C. Bannwarth and S. Grimme, J. Chem. Phys., 2019, 150, 154122.
     DOI: 10.1063/1.5090222
   
   for sTDA-xTB:
   * S. Grimme and C. Bannwarth, J. Chem. Phys., 2016, 145, 054103.
     DOI: 10.1063/1.4959605
   
   in the mass-spec context:
   * V. Asgeirsson, C. Bauer and S. Grimme, Chem. Sci., 2017, 8, 4879.
     DOI: 10.1039/c7sc00601b
   
   for metadynamics refer to:
   * S. Grimme, J. Chem. Theory Comput., 2019, 155, 2847-2862
     DOI: 10.1021/acs.jctc.9b00143
   
   with help from (in alphabetical order)
   C. Bannwarth, F. Bohle, G. Brandenburg, E. Caldeweyher, M. Checinski,
   S. Dohm, S. Ehlert, S. Ehrlich, F. März, H. Neugebauer, J. Pisarek,
   P. Pracht, P. Shushkov, and S. Spicher.
   
 * started run on 2020/12/23 at 21:40:27.677     

           -------------------------------------------------
          |                Calculation Setup                |
           -------------------------------------------------

          program call               : xtb -c 0 -u 0 -a 1.0 --iterations 100 --opt normal --namespace product_4 /scratch/bell/zhao922/YARP/paper-example/potential_product/test/reaction_channel/pp_0/pp_13_0.xyz
          hostname                   : bell-fe05.rcac.purdue.edu
          calculation namespace      : product_4
          coordinate file            : /scratch/bell/zhao922/YARP/paper-example/potential_product/test/reaction_channel/pp_0/pp_13_0.xyz
          omp threads                :                    32
          number of atoms            :                    12
          number of electrons        :                    36
          charge                     :                     0
          spin                       :                   0.0
          first test random number   :      0.18009644016074


molecular fragmentation (1/2 indicates fragments):
111111121121
# atoms in fragment 1/2:    10     2
 fragment masses (1/2) :       88.06        2.02
CMA distance (Bohr)    :   7.014
constraining FC (au)   :  0.0500
           ------------------------------------------------- 
          |                 G F N 2 - x T B                 |
          | Geometry, Frequencies, Noncovalent interactions |
          |            JCTC 2019 parametrisation            |
           ------------------------------------------------- 
             k(s)              :                1.8500
             k(p)              :                2.2300
             k(d)              :                2.2300
             k(f)              :                2.0000
             kEN (H0ij)        :               -2.0000
             D4 a1             :                0.5200
             D4 a2             :                5.0000
             D4 s6             :                1.0000
             D4 s8             :                2.7000
             D4 s9             :                5.0000
             alphaj            :                2.0000

  Z AO/shell   Hii/eV     exponent
  1     Wed Apr 25 08:07:45 CEST 2018   EN: 2.200 GM2: 0.406  GM3: 0.0800  RAES: 1.40
     1s    -10.707211    1.230000
  6     Wed Apr 25 08:07:45 CEST 2018   EN: 2.550 GM2: 0.538  GM3: 0.1500  RAES: 3.00
     2s    -13.970922    2.096432
     2p    -10.063292    1.800000
  8     Wed Apr 25 08:07:45 CEST 2018   EN: 3.440 GM2: 0.452  GM3:-0.0517  RAES: 1.80
     2s    -20.229985    2.439742
     2p    -15.503117    2.137023

           ------------------------------------------------- 
          |        Self-Consistent Charge Iterations        |
           ------------------------------------------------- 

          ...................................................
          :                      SETUP                      :
          :.................................................:
          :  # basis functions                  30          :
          :  # atomic orbitals                  30          :
          :  # shells                           18          :
          :  # electrons                        36          :
          :  max. iterations                   100          :
          :  Hamiltonian                  GFN2-xTB          :
          :  restarted?                      false          :
          :  GBSA solvation                  false          :
          :  PC potential                    false          :
          :  electronic temp.          300.0000000     K    :
          :  accuracy                    1.0000000          :
          :  -> integral cutoff          0.2500000E+02      :
          :  -> integral neglect         0.1000000E-07      :
          :  -> SCF convergence          0.1000000E-05 Eh   :
          :  -> wf. convergence          0.1000000E-03 e    :
          :  Broyden damping             0.4000000          :
          ...................................................

 iter      E             dE          RMSdq      gap      omega  full diag
   1    -21.6545010 -0.216545E+02  0.568E+00    3.64       0.0  T
   2    -21.6907822 -0.362812E-01  0.349E+00    2.70       1.0  T
   3    -21.6969337 -0.615149E-02  0.223E+00    3.33       1.0  T
   4    -21.7118329 -0.148992E-01  0.517E-01    2.99       1.0  T
   5    -21.7138250 -0.199211E-02  0.131E-01    3.00       1.0  T
   6    -21.7138749 -0.498942E-04  0.615E-02    3.03       1.0  T
   7    -21.7138890 -0.140256E-04  0.172E-02    3.02       1.7  T
   8    -21.7138897 -0.740281E-06  0.516E-03    3.02       5.6  T
   9    -21.7138899 -0.159735E-06  0.166E-03    3.02      17.4  T
  10    -21.7138899 -0.561360E-08  0.778E-04    3.02      37.1  T
  11    -21.7138899 -0.306624E-08  0.313E-04    3.02      92.2  T

   *** convergence criteria satisfied after 11 iterations ***

         #    Occupation            Energy/Eh            Energy/eV
      -------------------------------------------------------------
         1        2.0000           -0.7825603             -21.2945
       ...           ...                  ...                  ...
        12        2.0000           -0.5199809             -14.1494
        13        2.0000           -0.5135134             -13.9734
        14        2.0000           -0.4954902             -13.4830
        15        2.0000           -0.4888411             -13.3020
        16        2.0000           -0.4685780             -12.7507
        17        2.0000           -0.4215102             -11.4699
        18        2.0000           -0.4025073             -10.9528 (HOMO)
        19                         -0.2914916              -7.9319 (LUMO)
        20                         -0.1864949              -5.0748
        21                         -0.0798694              -2.1734
        22                          0.0584802               1.5913
        23                          0.0878266               2.3899
       ...                                ...                  ...
        30                          0.6203103              16.8795
      -------------------------------------------------------------
                  HL-Gap            0.1110156 Eh            3.0209 eV
             Fermi-level           -0.3469994 Eh           -9.4423 eV

 SCC (total)                   0 d,  0 h,  0 min,  0.095 sec
 SCC setup                      ...        0 min,  0.000 sec (  0.138%)
 Dispersion                     ...        0 min,  0.000 sec (  0.061%)
 integral evaluation            ...        0 min,  0.002 sec (  1.606%)
 zeroth order Hamiltonian       ...        0 min,  0.000 sec (  0.070%)
 iterations                     ...        0 min,  0.090 sec ( 94.726%)
 molecular gradient             ...        0 min,  0.003 sec (  3.098%)
 printout                       ...        0 min,  0.000 sec (  0.087%)

         :::::::::::::::::::::::::::::::::::::::::::::::::::::
         ::                     SUMMARY                     ::
         :::::::::::::::::::::::::::::::::::::::::::::::::::::
         :: total energy             -21.488949830227 Eh    ::
         :: gradient norm              0.175313663072 Eh/a0 ::
         :: HOMO-LUMO gap              3.020889227774 eV    ::
         ::.................................................::
         :: SCC energy               -21.713889877270 Eh    ::
         :: -> isotropic ES            0.042739052152 Eh    ::
         :: -> anisotropic ES          0.008024602725 Eh    ::
         :: -> anisotropic XC         -0.001519882941 Eh    ::
         :: -> dispersion             -0.005655062490 Eh    ::
         :: repulsion energy           0.224930306114 Eh    ::
         :: add. restraining           0.000000000000 Eh    ::
         :::::::::::::::::::::::::::::::::::::::::::::::::::::

      ----------------------------------------------------------- 
     |                   =====================                   |
     |                        A N C O P T                        |
     |                   =====================                   |
     |               Approximate Normal Coordinate               |
     |                Rational Function Optimizer                |
      ----------------------------------------------------------- 

          ...................................................
          :                      SETUP                      :
          :.................................................:
          :   optimization level            normal          :
          :   max. optcycles                   200          :
          :   ANC micro-cycles                  20          :
          :   degrees of freedom                30          :
          :.................................................:
          :   RF solver                   davidson          :
          :   write xtbopt.log                true          :
          :   linear?                        false          :
          :   energy convergence         0.5000000E-05 Eh   :
          :   grad. convergence          0.1000000E-02 Eh/α :
          :   maximium RF displ.         1.0000000          :
          :   Hlow (freq-cutoff)         0.1000000E-01      :
          :   Hmax (freq-cutoff)         5.0000000          :
          :   S6 in model hess.         20.0000000          :
          ...................................................

generating ANC from model Hessian ...
Using Lindh-Hessian (1995)
 Shifting diagonal of input Hessian by   9.936890501167941E-003
 Lowest  eigenvalues of input Hessian
   -0.000000    0.000000    0.000000    0.000000    0.000000    0.000000
    0.010000    0.010057    0.010327    0.010822    0.011136    0.014206
    0.018702    0.024737    0.033300    0.043367    0.050130    0.062662
 Highest eigenvalues
    1.192193    1.328413    1.571329    1.848080    2.037055    2.195750
 

........................................................................
.............................. CYCLE    1 ..............................
........................................................................
   1    -21.7138899 -0.217139E+02  0.727E-05    3.02       0.0  T
   2    -21.7138899 -0.969891E-11  0.457E-05    3.02     631.3  T
   3    -21.7138899 -0.814993E-11  0.330E-05    3.02     875.5  T
     SCC iter.                  ...        0 min,  0.001 sec
     gradient                   ...        0 min,  0.002 sec
 * total energy  :   -21.4889498 Eh     change       -0.1184979E-07 Eh
   gradient norm :     0.1753135 Eh/α   predicted     0.0000000E+00 (-100.00%)
   displ. norm   :     0.1953162 α      lambda       -0.2444101E-01
   maximum displ.:     0.0902519 α      in ANC's #15, #20, #22, ...

........................................................................
.............................. CYCLE    2 ..............................
........................................................................
   1    -21.7220322 -0.217220E+02  0.408E-01    3.00       0.0  T
   2    -21.7221955 -0.163329E-03  0.252E-01    3.00       1.0  T
   3    -21.7222020 -0.644855E-05  0.638E-02    3.01       1.0  T
   4    -21.7222071 -0.514215E-05  0.257E-02    3.00       1.1  T
   5    -21.7222119 -0.478957E-05  0.924E-03    3.00       3.1  T
   6    -21.7222123 -0.442879E-06  0.487E-03    3.00       5.9  T
   7    -21.7222124 -0.804969E-07  0.205E-03    3.00      14.1  T
     SCC iter.                  ...        0 min,  0.002 sec
     gradient                   ...        0 min,  0.001 sec
 * total energy  :   -21.5052962 Eh     change       -0.1634633E-01 Eh
   gradient norm :     0.0690599 Eh/α   predicted    -0.1268670E-01 ( -22.39%)
   displ. norm   :     0.1902938 α      lambda       -0.6338509E-02
   maximum displ.:     0.0950264 α      in ANC's #5, #15, #4, ...

........................................................................
.............................. CYCLE    3 ..............................
........................................................................
   1    -21.7268335 -0.217268E+02  0.297E-01    3.02       0.0  T
   2    -21.7269048 -0.713004E-04  0.183E-01    3.01       1.0  T
   3    -21.7268926  0.121731E-04  0.641E-02    3.02       1.0  T
   4    -21.7269091 -0.165043E-04  0.274E-02    3.00       1.1  T
   5    -21.7269151 -0.603718E-05  0.638E-03    3.01       4.5  T
   6    -21.7269153 -0.128062E-06  0.350E-03    3.01       8.2  T
   7    -21.7269153 -0.213732E-07  0.128E-03    3.01      22.5  T
     SCC iter.                  ...        0 min,  0.002 sec
     gradient                   ...        0 min,  0.089 sec
 * total energy  :   -21.5090575 Eh     change       -0.3761293E-02 Eh
   gradient norm :     0.0169587 Eh/α   predicted    -0.3284018E-02 ( -12.69%)
   displ. norm   :     0.1621500 α      lambda       -0.7972685E-03
   maximum displ.:     0.1274344 α      in ANC's #5, #4, #12, ...

........................................................................
.............................. CYCLE    4 ..............................
........................................................................
   1    -21.7274549 -0.217275E+02  0.158E-01    3.03       0.0  T
   2    -21.7274616 -0.672929E-05  0.978E-02    3.02       1.0  T
   3    -21.7274463  0.153675E-04  0.463E-02    3.03       1.0  T
   4    -21.7274651 -0.188421E-04  0.731E-03    3.02       3.9  T
   5    -21.7274653 -0.156415E-06  0.334E-03    3.02       8.6  T
   6    -21.7274653 -0.152314E-07  0.186E-03    3.02      15.5  T
   7    -21.7274653 -0.484643E-08  0.546E-04    3.02      52.9  T
     SCC iter.                  ...        0 min,  0.002 sec
     gradient                   ...        0 min,  0.001 sec
 * total energy  :   -21.5094591 Eh     change       -0.4016530E-03 Eh
   gradient norm :     0.0095785 Eh/α   predicted    -0.4091172E-03 (   1.86%)
   displ. norm   :     0.2051278 α      lambda       -0.6384990E-03
   maximum displ.:     0.1647977 α      in ANC's #5, #7, #4, ...

........................................................................
.............................. CYCLE    5 ..............................
........................................................................
   1    -21.7283146 -0.217283E+02  0.155E-01    3.05       0.0  T
   2    -21.7283188 -0.414284E-05  0.941E-02    3.04       1.0  T
   3    -21.7283069  0.118934E-04  0.385E-02    3.05       1.0  T
   4    -21.7283207 -0.138619E-04  0.523E-03    3.04       5.5  T
   5    -21.7283208 -0.957423E-07  0.217E-03    3.04      13.3  T
   6    -21.7283208 -0.284966E-08  0.106E-03    3.04      27.2  T
     SCC iter.                  ...        0 min,  0.001 sec
     gradient                   ...        0 min,  0.001 sec
 * total energy  :   -21.5097550 Eh     change       -0.2958913E-03 Eh
   gradient norm :     0.0114673 Eh/α   predicted    -0.3326845E-03 (  12.43%)
   displ. norm   :     0.1258184 α      lambda       -0.2858266E-03
   maximum displ.:     0.0972424 α      in ANC's #5, #7, #10, ...

........................................................................
.............................. CYCLE    6 ..............................
........................................................................
   1    -21.7289730 -0.217290E+02  0.100E-01    3.05       0.0  T
   2    -21.7289737 -0.720903E-06  0.609E-02    3.05       1.0  T
   3    -21.7289730  0.680610E-06  0.988E-03    3.05       2.9  T
   4    -21.7289740 -0.958069E-06  0.322E-03    3.05       9.0  T
   5    -21.7289740 -0.522030E-07  0.126E-03    3.05      22.9  T
   6    -21.7289740 -0.254739E-08  0.573E-04    3.05      50.4  T
     SCC iter.                  ...        0 min,  0.002 sec
     gradient                   ...        0 min,  0.001 sec
 * total energy  :   -21.5099870 Eh     change       -0.2319474E-03 Eh
   gradient norm :     0.0071416 Eh/α   predicted    -0.1451759E-03 ( -37.41%)
   displ. norm   :     0.3004408 α      lambda       -0.4276311E-03
   maximum displ.:     0.1973483 α      in ANC's #5, #4, #7, ...

........................................................................
.............................. CYCLE    7 ..............................
........................................................................
   1    -21.7271371 -0.217271E+02  0.226E-01    3.06       0.0  T
   2    -21.7271399 -0.272414E-05  0.137E-01    3.05       1.0  T
   3    -21.7271365  0.334336E-05  0.209E-02    3.06       1.4  T
   4    -21.7271409 -0.439511E-05  0.609E-03    3.05       4.7  T
   5    -21.7271411 -0.186395E-06  0.250E-03    3.05      11.6  T
   6    -21.7271411 -0.106098E-07  0.119E-03    3.05      24.3  T
     SCC iter.                  ...        0 min,  0.002 sec
     gradient                   ...        0 min,  0.001 sec
 * total energy  :   -21.5102302 Eh     change       -0.2432323E-03 Eh
   gradient norm :     0.0099113 Eh/α   predicted    -0.2331217E-03 (  -4.16%)
   displ. norm   :     0.2114526 α      lambda       -0.2675516E-03
   maximum displ.:     0.1617290 α      in ANC's #5, #7, #3, ...

........................................................................
.............................. CYCLE    8 ..............................
........................................................................
   1    -21.7302189 -0.217302E+02  0.160E-01    3.06       0.0  T
   2    -21.7302198 -0.839997E-06  0.972E-02    3.06       1.0  T
   3    -21.7302180  0.175824E-05  0.149E-02    3.06       1.9  T
   4    -21.7302204 -0.234701E-05  0.353E-03    3.06       8.2  T
   5    -21.7302204 -0.302761E-07  0.187E-03    3.06      15.5  T
   6    -21.7302204 -0.921941E-08  0.631E-04    3.06      45.7  T
     SCC iter.                  ...        0 min,  0.091 sec
     gradient                   ...        0 min,  0.001 sec
 * total energy  :   -21.5103349 Eh     change       -0.1047402E-03 Eh
   gradient norm :     0.0094682 Eh/α   predicted    -0.1397579E-03 (  33.43%)
   displ. norm   :     0.1238185 α      lambda       -0.1503844E-03
   maximum displ.:     0.0810113 α      in ANC's #5, #4, #3, ...

........................................................................
.............................. CYCLE    9 ..............................
........................................................................
   1    -21.7298829 -0.217299E+02  0.723E-02    3.06       0.0  T
   2    -21.7298835 -0.574702E-06  0.438E-02    3.06       1.0  T
   3    -21.7298825  0.100840E-05  0.115E-02    3.06       2.5  T
   4    -21.7298838 -0.128089E-05  0.260E-03    3.06      11.1  T
   5    -21.7298838 -0.215565E-07  0.126E-03    3.06      22.8  T
     SCC iter.                  ...        0 min,  0.001 sec
     gradient                   ...        0 min,  0.001 sec
 * total energy  :   -21.5104538 Eh     change       -0.1188179E-03 Eh
   gradient norm :     0.0048669 Eh/α   predicted    -0.7634412E-04 ( -35.75%)
   displ. norm   :     0.3198256 α      lambda       -0.2345771E-03
   maximum displ.:     0.2116608 α      in ANC's #5, #4, #7, ...

........................................................................
.............................. CYCLE   10 ..............................
........................................................................
   1    -21.7273469 -0.217273E+02  0.257E-01    3.07       0.0  T
   2    -21.7273520 -0.507502E-05  0.157E-01    3.06       1.0  T
   3    -21.7273315  0.204465E-04  0.494E-02    3.07       1.0  T
   4    -21.7273563 -0.247379E-04  0.779E-03    3.06       3.7  T
   5    -21.7273563 -0.575681E-07  0.370E-03    3.06       7.8  T
   6    -21.7273564 -0.122941E-07  0.104E-03    3.06      27.6  T
   7    -21.7273564 -0.119111E-08  0.376E-04    3.06      76.8  T
     SCC iter.                  ...        0 min,  0.002 sec
     gradient                   ...        0 min,  0.001 sec
 * total energy  :   -21.5105067 Eh     change       -0.5299582E-04 Eh
   gradient norm :     0.0144921 Eh/α   predicted    -0.1292833E-03 ( 143.95%)
   displ. norm   :     0.0613255 α      lambda       -0.2747748E-03
   maximum displ.:     0.0367234 α      in ANC's #3, #7, #4, ...

........................................................................
.............................. CYCLE   11 ..............................
........................................................................
   1    -21.7306996 -0.217307E+02  0.575E-02    3.06       0.0  T
   2    -21.7307022 -0.261356E-05  0.339E-02    3.06       1.0  T
   3    -21.7307028 -0.589987E-06  0.912E-03    3.06       3.2  T
   4    -21.7307028  0.757222E-09  0.440E-03    3.06       6.6  T
   5    -21.7307030 -0.124990E-06  0.188E-03    3.06      15.4  T
   6    -21.7307030 -0.751377E-08  0.676E-04    3.06      42.7  T
     SCC iter.                  ...        0 min,  0.001 sec
     gradient                   ...        0 min,  0.001 sec
 * total energy  :   -21.5106404 Eh     change       -0.1336430E-03 Eh
   gradient norm :     0.0054495 Eh/α   predicted    -0.1379032E-03 (   3.19%)
   displ. norm   :     0.1434233 α      lambda       -0.1273349E-03
   maximum displ.:     0.0989850 α      in ANC's #5, #3, #7, ...

........................................................................
.............................. CYCLE   12 ..............................
........................................................................
   1    -21.7311347 -0.217311E+02  0.138E-01    3.06       0.0  T
   2    -21.7311366 -0.183438E-05  0.848E-02    3.06       1.0  T
   3    -21.7311373 -0.763940E-06  0.683E-03    3.06       4.2  T
   4    -21.7311374 -0.117250E-06  0.420E-03    3.06       6.9  T
   5    -21.7311375 -0.301720E-07  0.261E-03    3.06      11.1  T
   6    -21.7311375 -0.294081E-07  0.636E-04    3.06      45.4  T
     SCC iter.                  ...        0 min,  0.001 sec
     gradient                   ...        0 min,  0.001 sec
 * total energy  :   -21.5107323 Eh     change       -0.9186490E-04 Eh
   gradient norm :     0.0050924 Eh/α   predicted    -0.6497587E-04 ( -29.27%)
   displ. norm   :     0.3499081 α      lambda       -0.1956369E-03
   maximum displ.:     0.2298798 α      in ANC's #5, #3, #7, ...

........................................................................
.............................. CYCLE   13 ..............................
........................................................................
   1    -21.7291614 -0.217292E+02  0.304E-01    3.06       0.0  T
   2    -21.7291702 -0.883428E-05  0.186E-01    3.06       1.0  T
   3    -21.7291743 -0.412744E-05  0.137E-02    3.06       2.1  T
   4    -21.7291747 -0.364973E-06  0.776E-03    3.06       3.7  T
   5    -21.7291747 -0.360423E-07  0.248E-03    3.06      11.6  T
   6    -21.7291747 -0.581129E-08  0.978E-04    3.06      29.5  T
     SCC iter.                  ...        0 min,  0.091 sec
     gradient                   ...        0 min,  0.001 sec
 * total energy  :   -21.5108131 Eh     change       -0.8086257E-04 Eh
   gradient norm :     0.0142288 Eh/α   predicted    -0.1097969E-03 (  35.78%)
   displ. norm   :     0.0535880 α      lambda       -0.1687264E-03
   maximum displ.:     0.0262156 α      in ANC's #7, #5, #6, ...

........................................................................
.............................. CYCLE   14 ..............................
........................................................................
   1    -21.7298695 -0.217299E+02  0.532E-02    3.05       0.0  T
   2    -21.7298710 -0.146706E-05  0.324E-02    3.05       1.0  T
   3    -21.7298695  0.151455E-05  0.167E-02    3.05       1.7  T
   4    -21.7298717 -0.219795E-05  0.422E-03    3.05       6.8  T
   5    -21.7298717 -0.502745E-07  0.130E-03    3.05      22.3  T
   6    -21.7298717 -0.214202E-08  0.449E-04    3.05      64.3  T
     SCC iter.                  ...        0 min,  0.001 sec
     gradient                   ...        0 min,  0.001 sec
 * total energy  :   -21.5109255 Eh     change       -0.1124272E-03 Eh
   gradient norm :     0.0056285 Eh/α   predicted    -0.8460539E-04 ( -24.75%)
   displ. norm   :     0.2162154 α      lambda       -0.1447168E-03
   maximum displ.:     0.1422038 α      in ANC's #3, #5, #4, ...

........................................................................
.............................. CYCLE   15 ..............................
........................................................................
   1    -21.7292863 -0.217293E+02  0.201E-01    3.05       0.0  T
   2    -21.7292905 -0.426550E-05  0.124E-01    3.05       1.0  T
   3    -21.7292867  0.383538E-05  0.270E-02    3.05       1.1  T
   4    -21.7292934 -0.670704E-05  0.745E-03    3.05       3.9  T
   5    -21.7292935 -0.967379E-07  0.362E-03    3.05       8.0  T
   6    -21.7292935 -0.189770E-07  0.736E-04    3.05      39.2  T
   7    -21.7292935 -0.873182E-09  0.204E-04    3.05     141.8  T
     SCC iter.                  ...        0 min,  0.002 sec
     gradient                   ...        0 min,  0.001 sec
 * total energy  :   -21.5110300 Eh     change       -0.1044607E-03 Eh
   gradient norm :     0.0051566 Eh/α   predicted    -0.7574054E-04 ( -27.49%)
   displ. norm   :     0.2494628 α      lambda       -0.1181007E-03
   maximum displ.:     0.1687614 α      in ANC's #3, #5, #9, ...

........................................................................
.............................. CYCLE   16 ..............................
........................................................................
   1    -21.7293688 -0.217294E+02  0.229E-01    3.05       0.0  T
   2    -21.7293731 -0.429261E-05  0.140E-01    3.05       1.0  T
   3    -21.7293703  0.274288E-05  0.252E-02    3.04       1.1  T
   4    -21.7293761 -0.581047E-05  0.766E-03    3.05       3.8  T
   5    -21.7293762 -0.747628E-07  0.364E-03    3.05       7.9  T
   6    -21.7293762 -0.200685E-07  0.623E-04    3.05      46.3  T
   7    -21.7293762 -0.126553E-08  0.317E-04    3.05      91.2  T
     SCC iter.                  ...        0 min,  0.002 sec
     gradient                   ...        0 min,  0.001 sec
 * total energy  :   -21.5111036 Eh     change       -0.7354723E-04 Eh
   gradient norm :     0.0071420 Eh/α   predicted    -0.6272551E-04 ( -14.71%)
   displ. norm   :     0.1224469 α      lambda       -0.8546458E-04
   maximum displ.:     0.0948852 α      in ANC's #3, #5, #4, ...

........................................................................
.............................. CYCLE   17 ..............................
........................................................................
   1    -21.7308502 -0.217309E+02  0.109E-01    3.05       0.0  T
   2    -21.7308515 -0.133056E-05  0.664E-02    3.05       1.0  T
   3    -21.7308516 -0.594888E-07  0.792E-03    3.05       3.6  T
   4    -21.7308520 -0.427644E-06  0.390E-03    3.05       7.4  T
   5    -21.7308521 -0.695769E-07  0.209E-03    3.05      13.8  T
   6    -21.7308521 -0.103832E-07  0.103E-03    3.05      27.9  T
     SCC iter.                  ...        0 min,  0.001 sec
     gradient                   ...        0 min,  0.001 sec
 * total energy  :   -21.5111625 Eh     change       -0.5896312E-04 Eh
   gradient norm :     0.0032764 Eh/α   predicted    -0.4337152E-04 ( -26.44%)
   displ. norm   :     0.3044282 α      lambda       -0.1055752E-03
   maximum displ.:     0.2087342 α      in ANC's #3, #5, #7, ...

........................................................................
.............................. CYCLE   18 ..............................
........................................................................
   1    -21.7291628 -0.217292E+02  0.252E-01    3.05       0.0  T
   2    -21.7291666 -0.379212E-05  0.153E-01    3.05       1.0  T
   3    -21.7291673 -0.703881E-06  0.158E-02    3.05       1.8  T
   4    -21.7291691 -0.178906E-05  0.766E-03    3.05       3.8  T
   5    -21.7291693 -0.126834E-06  0.225E-03    3.05      12.9  T
   6    -21.7291693 -0.613380E-08  0.588E-04    3.05      49.1  T
   7    -21.7291693 -0.803869E-09  0.220E-04    3.05     131.3  T
     SCC iter.                  ...        0 min,  0.092 sec
     gradient                   ...        0 min,  0.001 sec
 * total energy  :   -21.5111956 Eh     change       -0.3311315E-04 Eh
   gradient norm :     0.0096685 Eh/α   predicted    -0.5767722E-04 (  74.18%)
   displ. norm   :     0.0682935 α      lambda       -0.1559258E-03
   maximum displ.:     0.0401805 α      in ANC's #3, #7, #5, ...

........................................................................
.............................. CYCLE   19 ..............................
........................................................................
   1    -21.7316316 -0.217316E+02  0.648E-02    3.06       0.0  T
   2    -21.7316326 -0.991304E-06  0.397E-02    3.06       1.0  T
   3    -21.7316290  0.356073E-05  0.239E-02    3.06       1.2  T
   4    -21.7316337 -0.462827E-05  0.274E-03    3.06      10.5  T
   5    -21.7316337 -0.177926E-07  0.141E-03    3.06      20.4  T
   6    -21.7316337 -0.267777E-08  0.655E-04    3.06      44.1  T
     SCC iter.                  ...        0 min,  0.001 sec
     gradient                   ...        0 min,  0.001 sec
 * total energy  :   -21.5112900 Eh     change       -0.9435470E-04 Eh
   gradient norm :     0.0034932 Eh/α   predicted    -0.7832674E-04 ( -16.99%)
   displ. norm   :     0.1901492 α      lambda       -0.8123452E-04
   maximum displ.:     0.1436916 α      in ANC's #3, #7, #25, ...

........................................................................
.............................. CYCLE   20 ..............................
........................................................................
   1    -21.7313216 -0.217313E+02  0.170E-01    3.06       0.0  T
   2    -21.7313234 -0.175428E-05  0.103E-01    3.06       1.0  T
   3    -21.7313222  0.115420E-05  0.157E-02    3.06       1.8  T
   4    -21.7313246 -0.235790E-05  0.498E-03    3.06       5.8  T
   5    -21.7313246 -0.361809E-07  0.223E-03    3.06      12.9  T
   6    -21.7313246 -0.660490E-08  0.530E-04    3.06      54.4  T
   7    -21.7313246 -0.792344E-09  0.246E-04    3.06     117.5  T
     SCC iter.                  ...        0 min,  0.002 sec
     gradient                   ...        0 min,  0.001 sec
 * total energy  :   -21.5113558 Eh     change       -0.6585303E-04 Eh
   gradient norm :     0.0039883 Eh/α   predicted    -0.4208509E-04 ( -36.09%)
   displ. norm   :     0.2773045 α      lambda       -0.1343349E-03
   maximum displ.:     0.2009131 α      in ANC's #3, #7, #25, ...
 * RMSD in coord.:     0.8907617 α      energy gain  -0.2240601E-01 Eh

generating ANC from model Hessian ...
Using Lindh-Hessian (1995)
 Shifting diagonal of input Hessian by   1.000780500409516E-002
 Lowest  eigenvalues of input Hessian
    0.010000   -0.000000   -0.000000   -0.000000    0.000000    0.000000
    0.000000    0.010068    0.010081    0.010244    0.010528    0.014059
    0.022231    0.023476    0.032967    0.045722    0.046395    0.052591
 Highest eigenvalues
    1.143032    1.298266    1.457710    1.753835    2.064386    2.308124
 

........................................................................
.............................. CYCLE   21 ..............................
........................................................................
   1    -21.7299751 -0.217300E+02  0.241E-01    3.06       0.0  T
   2    -21.7299777 -0.255889E-05  0.146E-01    3.06       1.0  T
   3    -21.7299788 -0.114970E-05  0.980E-03    3.06       2.9  T
   4    -21.7299792 -0.440820E-06  0.616E-03    3.06       4.7  T
   5    -21.7299793 -0.104154E-06  0.273E-03    3.06      10.6  T
   6    -21.7299794 -0.184930E-07  0.568E-04    3.06      50.8  T
   7    -21.7299794 -0.596742E-09  0.335E-04    3.06      86.3  T
     SCC iter.                  ...        0 min,  0.002 sec
     gradient                   ...        0 min,  0.001 sec
 * total energy  :   -21.5114229 Eh     change       -0.6705856E-04 Eh
   gradient norm :     0.0055577 Eh/α   predicted     0.0000000E+00 (-100.00%)
   displ. norm   :     0.0358200 α      lambda       -0.6921215E-04
   maximum displ.:     0.0222899 α      in ANC's #9, #2, #4, ...

........................................................................
.............................. CYCLE   22 ..............................
........................................................................
   1    -21.7312963 -0.217313E+02  0.385E-02    3.06       0.0  T
   2    -21.7312965 -0.214658E-06  0.237E-02    3.06       1.2  T
   3    -21.7312964  0.801031E-07  0.463E-03    3.06       6.2  T
   4    -21.7312966 -0.188049E-06  0.164E-03    3.06      17.6  T
   5    -21.7312966 -0.704161E-08  0.626E-04    3.06      46.1  T
     SCC iter.                  ...        0 min,  0.001 sec
     gradient                   ...        0 min,  0.001 sec
 * total energy  :   -21.5114691 Eh     change       -0.4615869E-04 Eh
   gradient norm :     0.0016773 Eh/α   predicted    -0.3465193E-04 ( -24.93%)
   displ. norm   :     0.0942979 α      lambda       -0.4966445E-04
   maximum displ.:     0.0498356 α      in ANC's #9, #2, #4, ...

........................................................................
.............................. CYCLE   23 ..............................
........................................................................
   1    -21.7325760 -0.217326E+02  0.107E-01    3.06       0.0  T
   2    -21.7325772 -0.119975E-05  0.659E-02    3.06       1.0  T
   3    -21.7325775 -0.308175E-06  0.790E-03    3.06       3.7  T
   4    -21.7325779 -0.435477E-06  0.383E-03    3.06       7.5  T
   5    -21.7325780 -0.355000E-07  0.130E-03    3.06      22.3  T
   6    -21.7325780 -0.191334E-08  0.501E-04    3.06      57.6  T
   7    -21.7325780 -0.452903E-09  0.151E-04    3.06     190.7  T
     SCC iter.                  ...        0 min,  0.092 sec
     gradient                   ...        0 min,  0.001 sec
 * total energy  :   -21.5114974 Eh     change       -0.2831360E-04 Eh
   gradient norm :     0.0044450 Eh/α   predicted    -0.2493176E-04 ( -11.94%)
   displ. norm   :     0.0964862 α      lambda       -0.6562175E-04
   maximum displ.:     0.0525440 α      in ANC's #9, #2, #6, ...

........................................................................
.............................. CYCLE   24 ..............................
........................................................................
   1    -21.7324094 -0.217324E+02  0.958E-02    3.06       0.0  T
   2    -21.7324101 -0.741641E-06  0.590E-02    3.06       1.0  T
   3    -21.7324106 -0.479858E-06  0.369E-03    3.06       7.8  T
   4    -21.7324106 -0.952749E-09  0.186E-03    3.06      15.5  T
   5    -21.7324106 -0.436656E-08  0.892E-04    3.06      32.4  T
     SCC iter.                  ...        0 min,  0.001 sec
     gradient                   ...        0 min,  0.001 sec
 * total energy  :   -21.5115436 Eh     change       -0.4620573E-04 Eh
   gradient norm :     0.0041130 Eh/α   predicted    -0.3311569E-04 ( -28.33%)
   displ. norm   :     0.1294920 α      lambda       -0.6128247E-04
   maximum displ.:     0.0778189 α      in ANC's #2, #9, #6, ...

........................................................................
.............................. CYCLE   25 ..............................
........................................................................
   1    -21.7309924 -0.217310E+02  0.114E-01    3.06       0.0  T
   2    -21.7309934 -0.102169E-05  0.700E-02    3.06       1.0  T
   3    -21.7309935 -0.890390E-07  0.852E-03    3.06       3.4  T
   4    -21.7309941 -0.585072E-06  0.347E-03    3.06       8.3  T
   5    -21.7309941 -0.193235E-07  0.122E-03    3.06      23.8  T
   6    -21.7309941 -0.110312E-08  0.386E-04    3.06      74.8  T
     SCC iter.                  ...        0 min,  0.001 sec
     gradient                   ...        0 min,  0.091 sec
 * total energy  :   -21.5115759 Eh     change       -0.3235112E-04 Eh
   gradient norm :     0.0043416 Eh/α   predicted    -0.3115398E-04 (  -3.70%)
   displ. norm   :     0.0324596 α      lambda       -0.2518032E-04
   maximum displ.:     0.0222872 α      in ANC's #4, #5, #2, ...

........................................................................
.............................. CYCLE   26 ..............................
........................................................................
   1    -21.7312464 -0.217312E+02  0.204E-02    3.06       0.0  T
   2    -21.7312465 -0.119020E-06  0.126E-02    3.06       2.3  T
   3    -21.7312465  0.372874E-07  0.339E-03    3.06       8.5  T
   4    -21.7312465 -0.841702E-07  0.133E-03    3.06      21.7  T
   5    -21.7312466 -0.876953E-08  0.524E-04    3.06      55.1  T
     SCC iter.                  ...        0 min,  0.001 sec
     gradient                   ...        0 min,  0.001 sec
 * total energy  :   -21.5115948 Eh     change       -0.1890735E-04 Eh
   gradient norm :     0.0019913 Eh/α   predicted    -0.1260460E-04 ( -33.33%)
   displ. norm   :     0.1683499 α      lambda       -0.3658390E-04
   maximum displ.:     0.1074175 α      in ANC's #4, #5, #6, ...

........................................................................
.............................. CYCLE   27 ..............................
........................................................................
   1    -21.7315080 -0.217315E+02  0.107E-01    3.06       0.0  T
   2    -21.7315087 -0.651248E-06  0.656E-02    3.06       1.0  T
   3    -21.7315078  0.832264E-06  0.113E-02    3.06       2.5  T
   4    -21.7315091 -0.128948E-05  0.279E-03    3.06      10.3  T
   5    -21.7315091 -0.546717E-08  0.101E-03    3.06      28.7  T
   6    -21.7315091 -0.252358E-08  0.379E-04    3.06      76.2  T
   7    -21.7315091 -0.346382E-09  0.108E-04    3.06     267.8  T
     SCC iter.                  ...        0 min,  0.002 sec
     gradient                   ...        0 min,  0.001 sec
 * total energy  :   -21.5116288 Eh     change       -0.3392512E-04 Eh
   gradient norm :     0.0027372 Eh/α   predicted    -0.1852109E-04 ( -45.41%)
   displ. norm   :     0.0830636 α      lambda       -0.1749730E-04
   maximum displ.:     0.0514482 α      in ANC's #4, #2, #3, ...

........................................................................
.............................. CYCLE   28 ..............................
........................................................................
   1    -21.7314891 -0.217315E+02  0.485E-02    3.06       0.0  T
   2    -21.7314892 -0.147060E-06  0.297E-02    3.06       1.0  T
   3    -21.7314893 -0.932109E-07  0.188E-03    3.06      15.3  T
   4    -21.7314893 -0.342237E-08  0.122E-03    3.06      23.7  T
   5    -21.7314893 -0.220174E-08  0.368E-04    3.06      78.5  T
   6    -21.7314893 -0.120430E-08  0.103E-04    3.06     279.0  T
     SCC iter.                  ...        0 min,  0.091 sec
     gradient                   ...        0 min,  0.001 sec
 * total energy  :   -21.5116436 Eh     change       -0.1487559E-04 Eh
   gradient norm :     0.0020789 Eh/α   predicted    -0.8808923E-05 ( -40.78%)
   displ. norm   :     0.1276173 α      lambda       -0.2624986E-04
   maximum displ.:     0.0877486 α      in ANC's #4, #5, #3, ...

........................................................................
.............................. CYCLE   29 ..............................
........................................................................
   1    -21.7318598 -0.217319E+02  0.664E-02    3.06       0.0  T
   2    -21.7318603 -0.441404E-06  0.411E-02    3.06       1.0  T
   3    -21.7318604 -0.146824E-06  0.471E-03    3.06       6.1  T
   4    -21.7318606 -0.144335E-06  0.233E-03    3.06      12.4  T
   5    -21.7318606 -0.893504E-08  0.831E-04    3.06      34.7  T
   6    -21.7318606 -0.172124E-08  0.292E-04    3.06      98.8  T
     SCC iter.                  ...        0 min,  0.001 sec
     gradient                   ...        0 min,  0.001 sec
 * total energy  :   -21.5116623 Eh     change       -0.1871163E-04 Eh
   gradient norm :     0.0009682 Eh/α   predicted    -0.1333782E-04 ( -28.72%)
   displ. norm   :     0.1673668 α      lambda       -0.1309068E-04
   maximum displ.:     0.1092324 α      in ANC's #4, #3, #2, ...

........................................................................
.............................. CYCLE   30 ..............................
........................................................................
   1    -21.7314545 -0.217315E+02  0.980E-02    3.06       0.0  T
   2    -21.7314556 -0.108193E-05  0.612E-02    3.06       1.0  T
   3    -21.7314563 -0.691265E-06  0.509E-03    3.06       5.7  T
   4    -21.7314563 -0.383096E-07  0.341E-03    3.06       8.5  T
   5    -21.7314564 -0.421974E-07  0.879E-04    3.06      32.8  T
   6    -21.7314564 -0.181209E-08  0.239E-04    3.06     120.9  T
     SCC iter.                  ...        0 min,  0.001 sec
     gradient                   ...        0 min,  0.091 sec
 * total energy  :   -21.5116700 Eh     change       -0.7701540E-05 Eh
   gradient norm :     0.0024038 Eh/α   predicted    -0.6626216E-05 ( -13.96%)
   displ. norm   :     0.0442434 α      lambda       -0.1397817E-04
   maximum displ.:     0.0322035 α      in ANC's #4, #3, #6, ...

........................................................................
.............................. CYCLE   31 ..............................
........................................................................
   1    -21.7319182 -0.217319E+02  0.242E-02    3.06       0.0  T
   2    -21.7319184 -0.193401E-06  0.148E-02    3.06       2.0  T
   3    -21.7319183  0.138499E-06  0.518E-03    3.06       5.6  T
   4    -21.7319185 -0.214994E-06  0.154E-03    3.06      18.8  T
   5    -21.7319185 -0.953369E-08  0.580E-04    3.06      49.8  T
   6    -21.7319185 -0.358341E-09  0.183E-04    3.06     157.6  T
     SCC iter.                  ...        0 min,  0.002 sec
     gradient                   ...        0 min,  0.001 sec
 * total energy  :   -21.5116766 Eh     change       -0.6598015E-05 Eh
   gradient norm :     0.0019109 Eh/α   predicted    -0.7003176E-05 (   6.14%)
   displ. norm   :     0.0223791 α      lambda       -0.4488040E-05
   maximum displ.:     0.0128821 α      in ANC's #2, #4, #6, ...

........................................................................
.............................. CYCLE   32 ..............................
........................................................................
   1    -21.7319726 -0.217320E+02  0.163E-02    3.06       0.0  T
   2    -21.7319726 -0.359038E-07  0.101E-02    3.06       2.9  T
   3    -21.7319726 -0.901830E-08  0.124E-03    3.06      23.3  T
   4    -21.7319727 -0.899033E-08  0.644E-04    3.06      44.8  T
   5    -21.7319727 -0.974953E-09  0.320E-04    3.06      90.3  T
     SCC iter.                  ...        0 min,  0.001 sec
     gradient                   ...        0 min,  0.001 sec
 * total energy  :   -21.5116817 Eh     change       -0.5013260E-05 Eh
   gradient norm :     0.0010736 Eh/α   predicted    -0.2243812E-05 ( -55.24%)
   displ. norm   :     0.0492513 α      lambda       -0.5764605E-05
   maximum displ.:     0.0268991 α      in ANC's #3, #4, #2, ...

........................................................................
.............................. CYCLE   33 ..............................
........................................................................
   1    -21.7317346 -0.217317E+02  0.337E-02    3.06       0.0  T
   2    -21.7317347 -0.100408E-06  0.208E-02    3.06       1.4  T
   3    -21.7317348 -0.504122E-07  0.192E-03    3.06      15.0  T
   4    -21.7317348 -0.142501E-07  0.116E-03    3.06      25.0  T
   5    -21.7317348 -0.800426E-09  0.526E-04    3.06      54.9  T
   6    -21.7317348 -0.190634E-08  0.131E-04    3.06     220.0  T
     SCC iter.                  ...        0 min,  0.091 sec
     gradient                   ...        0 min,  0.001 sec
 * total energy  :   -21.5116875 Eh     change       -0.5871887E-05 Eh
   gradient norm :     0.0011189 Eh/α   predicted    -0.2884412E-05 ( -50.88%)
   displ. norm   :     0.0687567 α      lambda       -0.5079221E-05
   maximum displ.:     0.0417910 α      in ANC's #4, #3, #2, ...

........................................................................
.............................. CYCLE   34 ..............................
........................................................................
   1    -21.7315843 -0.217316E+02  0.422E-02    3.06       0.0  T
   2    -21.7315845 -0.164533E-06  0.261E-02    3.06       1.1  T
   3    -21.7315846 -0.738656E-07  0.274E-03    3.06      10.5  T
   4    -21.7315846 -0.393844E-07  0.162E-03    3.06      17.8  T
   5    -21.7315846 -0.536798E-08  0.560E-04    3.06      51.6  T
   6    -21.7315846 -0.135197E-08  0.110E-04    3.06     261.6  T
     SCC iter.                  ...        0 min,  0.001 sec
     gradient                   ...        0 min,  0.001 sec
 * total energy  :   -21.5116938 Eh     change       -0.6294742E-05 Eh
   gradient norm :     0.0012703 Eh/α   predicted    -0.2546455E-05 ( -59.55%)
   displ. norm   :     0.0900124 α      lambda       -0.6987939E-05
   maximum displ.:     0.0523497 α      in ANC's #4, #2, #3, ...

........................................................................
.............................. CYCLE   35 ..............................
........................................................................
   1    -21.7312800 -0.217313E+02  0.511E-02    3.06       0.0  T
   2    -21.7312802 -0.192694E-06  0.311E-02    3.06       1.0  T
   3    -21.7312801  0.648196E-07  0.482E-03    3.06       6.0  T
   4    -21.7312803 -0.202343E-06  0.188E-03    3.06      15.4  T
   5    -21.7312803 -0.557282E-08  0.701E-04    3.06      41.2  T
   6    -21.7312803 -0.107281E-08  0.165E-04    3.06     174.5  T
     SCC iter.                  ...        0 min,  0.001 sec
     gradient                   ...        0 min,  0.091 sec
 * total energy  :   -21.5117018 Eh     change       -0.7986663E-05 Eh
   gradient norm :     0.0015260 Eh/α   predicted    -0.3506054E-05 ( -56.10%)
   displ. norm   :     0.0747641 α      lambda       -0.7307193E-05
   maximum displ.:     0.0460888 α      in ANC's #4, #3, #2, ...

........................................................................
.............................. CYCLE   36 ..............................
........................................................................
   1    -21.7312058 -0.217312E+02  0.405E-02    3.06       0.0  T
   2    -21.7312060 -0.120907E-06  0.245E-02    3.06       1.2  T
   3    -21.7312058  0.113202E-06  0.471E-03    3.06       6.1  T
   4    -21.7312060 -0.203237E-06  0.148E-03    3.06      19.5  T
   5    -21.7312061 -0.384162E-08  0.577E-04    3.06      50.1  T
   6    -21.7312061 -0.460791E-09  0.128E-04    3.06     225.1  T
     SCC iter.                  ...        0 min,  0.002 sec
     gradient                   ...        0 min,  0.001 sec
 * total energy  :   -21.5117108 Eh     change       -0.8983651E-05 Eh
   gradient norm :     0.0016293 Eh/α   predicted    -0.3661243E-05 ( -59.25%)
   displ. norm   :     0.1132633 α      lambda       -0.1289039E-04
   maximum displ.:     0.0774076 α      in ANC's #3, #4, #2, ...

........................................................................
.............................. CYCLE   37 ..............................
........................................................................
   1    -21.7314619 -0.217315E+02  0.640E-02    3.06       0.0  T
   2    -21.7314622 -0.317390E-06  0.389E-02    3.06       1.0  T
   3    -21.7314620  0.190210E-06  0.697E-03    3.06       4.1  T
   4    -21.7314625 -0.432757E-06  0.238E-03    3.06      12.2  T
   5    -21.7314625 -0.993726E-08  0.801E-04    3.06      36.1  T
   6    -21.7314625 -0.918778E-09  0.195E-04    3.06     148.2  T
     SCC iter.                  ...        0 min,  0.001 sec
     gradient                   ...        0 min,  0.001 sec
 * total energy  :   -21.5117254 Eh     change       -0.1458232E-04 Eh
   gradient norm :     0.0017044 Eh/α   predicted    -0.6481349E-05 ( -55.55%)
   displ. norm   :     0.1775652 α      lambda       -0.1300915E-04
   maximum displ.:     0.1194764 α      in ANC's #3, #4, #2, ...

........................................................................
.............................. CYCLE   38 ..............................
........................................................................
   1    -21.7309696 -0.217310E+02  0.103E-01    3.06       0.0  T
   2    -21.7309703 -0.758198E-06  0.628E-02    3.06       1.0  T
   3    -21.7309702  0.113672E-06  0.910E-03    3.05       3.2  T
   4    -21.7309709 -0.684302E-06  0.377E-03    3.06       7.6  T
   5    -21.7309709 -0.264059E-07  0.111E-03    3.05      26.1  T
   6    -21.7309709 -0.207617E-08  0.269E-04    3.05     107.2  T
   7    -21.7309709 -0.151758E-09  0.135E-04    3.05     213.5  T
     SCC iter.                  ...        0 min,  0.092 sec
     gradient                   ...        0 min,  0.001 sec
 * total energy  :   -21.5117385 Eh     change       -0.1313987E-04 Eh
   gradient norm :     0.0030330 Eh/α   predicted    -0.6594084E-05 ( -49.82%)
   displ. norm   :     0.1872235 α      lambda       -0.2276564E-04
   maximum displ.:     0.1371024 α      in ANC's #3, #4, #5, ...

........................................................................
.............................. CYCLE   39 ..............................
........................................................................
   1    -21.7310873 -0.217311E+02  0.106E-01    3.05       0.0  T
   2    -21.7310882 -0.851363E-06  0.646E-02    3.05       1.0  T
   3    -21.7310884 -0.218738E-06  0.785E-03    3.05       3.7  T
   4    -21.7310888 -0.425191E-06  0.400E-03    3.05       7.2  T
   5    -21.7310889 -0.336605E-07  0.970E-04    3.05      29.8  T
   6    -21.7310889 -0.211845E-08  0.246E-04    3.05     117.5  T
     SCC iter.                  ...        0 min,  0.001 sec
     gradient                   ...        0 min,  0.001 sec
 * total energy  :   -21.5117554 Eh     change       -0.1687155E-04 Eh
   gradient norm :     0.0029685 Eh/α   predicted    -0.1178089E-04 ( -30.17%)
   displ. norm   :     0.1178480 α      lambda       -0.1624929E-04
   maximum displ.:     0.0872169 α      in ANC's #3, #4, #5, ...

........................................................................
.............................. CYCLE   40 ..............................
........................................................................
   1    -21.7315283 -0.217315E+02  0.686E-02    3.06       0.0  T
   2    -21.7315287 -0.408728E-06  0.420E-02    3.06       1.0  T
   3    -21.7315289 -0.211959E-06  0.409E-03    3.06       7.1  T
   4    -21.7315290 -0.649990E-07  0.265E-03    3.06      10.9  T
   5    -21.7315290 -0.186138E-07  0.984E-04    3.06      29.3  T
   6    -21.7315290 -0.382082E-08  0.269E-04    3.06     107.4  T
     SCC iter.                  ...        0 min,  0.001 sec
     gradient                   ...        0 min,  0.192 sec
 * total energy  :   -21.5117689 Eh     change       -0.1347409E-04 Eh
   gradient norm :     0.0019251 Eh/α   predicted    -0.8238889E-05 ( -38.85%)
   displ. norm   :     0.5184931 α      lambda       -0.3366244E-04
   maximum displ.:     0.3745945 α      in ANC's #3, #4, #5, ...

........................................................................
.............................. CYCLE   41 ..............................
........................................................................
   1    -21.7297227 -0.217297E+02  0.323E-01    3.05       0.0  T
   2    -21.7297310 -0.835600E-05  0.198E-01    3.05       1.0  T
   3    -21.7297370 -0.599181E-05  0.154E-02    3.05       1.9  T
   4    -21.7297370  0.547871E-07  0.102E-02    3.05       2.8  T
   5    -21.7297373 -0.345311E-06  0.308E-03    3.05       9.4  T
   6    -21.7297374 -0.787369E-07  0.701E-04    3.05      41.2  T
   7    -21.7297374 -0.972086E-09  0.387E-04    3.05      74.6  T
     SCC iter.                  ...        0 min,  0.001 sec
     gradient                   ...        0 min,  0.001 sec
 * total energy  :   -21.5117798 Eh     change       -0.1091902E-04 Eh
   gradient norm :     0.0042839 Eh/α   predicted    -0.1883459E-04 (  72.49%)
   displ. norm   :     0.0835128 α      lambda       -0.3770846E-04
   maximum displ.:     0.0538605 α      in ANC's #4, #3, #2, ...

........................................................................
.............................. CYCLE   42 ..............................
........................................................................
   1    -21.7316953 -0.217317E+02  0.446E-02    3.06       0.0  T
   2    -21.7316956 -0.294967E-06  0.272E-02    3.06       1.1  T
   3    -21.7316955  0.756293E-07  0.511E-03    3.06       5.7  T
   4    -21.7316957 -0.182680E-06  0.191E-03    3.06      15.1  T
   5    -21.7316957 -0.167960E-07  0.103E-03    3.06      27.9  T
     SCC iter.                  ...        0 min,  0.001 sec
     gradient                   ...        0 min,  0.001 sec
 * total energy  :   -21.5117959 Eh     change       -0.1615116E-04 Eh
   gradient norm :     0.0014292 Eh/α   predicted    -0.1898461E-04 (  17.54%)
   displ. norm   :     0.0361855 α      lambda       -0.5588520E-05
   maximum displ.:     0.0180452 α      in ANC's #5, #3, #2, ...
 * RMSD in coord.:     0.5354696 α      energy gain  -0.4400952E-03 Eh

generating ANC from model Hessian ...
Using Lindh-Hessian (1995)
 Shifting diagonal of input Hessian by   1.000612889357888E-002
 Lowest  eigenvalues of input Hessian
    0.010000   -0.000000   -0.000000   -0.000000    0.000000    0.000000
    0.000000    0.010069    0.010171    0.010382    0.010879    0.014144
    0.023061    0.023239    0.032480    0.044949    0.046978    0.052589
 Highest eigenvalues
    1.142635    1.303689    1.458516    1.755442    2.065850    2.306483
 

........................................................................
.............................. CYCLE   43 ..............................
........................................................................
   1    -21.7316292 -0.217316E+02  0.187E-02    3.06       0.0  T
   2    -21.7316292 -0.172862E-07  0.114E-02    3.06       2.5  T
   3    -21.7316293 -0.585554E-08  0.816E-04    3.06      35.4  T
   4    -21.7316293 -0.372463E-08  0.449E-04    3.06      64.2  T
     SCC iter.                  ...        0 min,  0.001 sec
     gradient                   ...        0 min,  0.001 sec
 * total energy  :   -21.5118013 Eh     change       -0.5405655E-05 Eh
   gradient norm :     0.0009478 Eh/α   predicted     0.0000000E+00 (-100.00%)
   displ. norm   :     0.0215105 α      lambda       -0.3499955E-05
   maximum displ.:     0.0125734 α      in ANC's #4, #5, #1, ...

........................................................................
.............................. CYCLE   44 ..............................
........................................................................
   1    -21.7317031 -0.217317E+02  0.275E-02    3.06       0.0  T
   2    -21.7317032 -0.121331E-06  0.175E-02    3.06       1.6  T
   3    -21.7317033 -0.805214E-07  0.124E-03    3.06      23.4  T
   4    -21.7317033 -0.305943E-08  0.726E-04    3.06      39.7  T
   5    -21.7317033 -0.103369E-08  0.362E-04    3.06      79.7  T
     SCC iter.                  ...        0 min,  0.001 sec
     gradient                   ...        0 min,  0.001 sec
 * total energy  :   -21.5118054 Eh     change       -0.4106555E-05 Eh
   gradient norm :     0.0003071 Eh/α   predicted    -0.1751254E-05 ( -57.35%)
   displ. norm   :     0.0561099 α      lambda       -0.5715167E-05
   maximum displ.:     0.0327528 α      in ANC's #4, #5, #1, ...

   *** GEOMETRY OPTIMIZATION CONVERGED AFTER 44 ITERATIONS ***

------------------------------------------------------------------------
 total energy gain   :        -0.0228556 Eh      -14.3421 kcal/mol
 total RMSD          :         0.6105413 a0        0.3231 Å
 total power (kW/mol):        -1.3638046 (step)  -31.6745 (real)
------------------------------------------------------------------------

 ANCopt (total)                0 d,  0 h,  0 min,  1.895 sec
 optimizer setup                ...        0 min,  0.000 sec (  0.015%)
 model hessian                  ...        0 min,  0.005 sec (  0.264%)
 ANC generation                 ...        0 min,  0.001 sec (  0.042%)
 coordinate transformation      ...        0 min,  0.002 sec (  0.088%)
 single point calculation       ...        0 min,  1.691 sec ( 89.232%)
 optimization log               ...        0 min,  0.003 sec (  0.176%)
 hessian update                 ...        0 min,  0.182 sec (  9.628%)
 rational function              ...        0 min,  0.003 sec (  0.171%)

================
 final structure:
================
12
 xtb: 6.2.3 (830e466)
C         0.55912785290719    1.62049380590358   -1.78810748402515
C         0.98768417543296    1.20024478952431   -0.59452193534774
C         1.05498151897084   -0.21113534345327   -0.26666607426366
O         0.44086675423665    2.87146981552847   -2.23603665118496
O         0.82591581264800    3.85513292856883   -1.28585921135159
O         1.44064561517860   -0.66377421631978    0.78198925036588
H         0.69613629805444    4.67918176352812   -1.77649416176810
H         2.10435689859335   -0.81343512453476   -3.34182799657510
H         0.23913982850197    0.95274173618848   -2.57991661787019
H         0.71126971097917   -0.87854158095764   -1.08418893666028
H         2.03186491811246   -1.18028018178549   -4.02408937760876
H         1.29700061638228    1.90751160780926    0.15990919629046
 
 Bond Distances (Angstroems)
 ---------------------------
C1-C2=1.3360         C1-O4=1.3340         C1-H9=1.0841         C2-C1=1.3360         C2-C3=1.4505         C2-H12=1.0794        
C3-C2=1.4505         C3-O6=1.2055         C3-H10=1.1099        O4-C1=1.3340         O4-O5=1.4208         O5-O4=1.4208         
O5-H7=0.9678         O6-C3=1.2055         H7-O5=0.9678         H8-H11=0.7780        H9-C1=1.0841         H10-C3=1.1099        
H11-H8=0.7780        H12-C2=1.0794        
 H  H  Rav=0.7780 sigma=0.0000  Rmin=0.7780  Rmax=0.7780     1
 C  H  Rav=1.0911 sigma=0.0134  Rmin=1.0794  Rmax=1.1099     3
 C  C  Rav=1.3933 sigma=0.0573  Rmin=1.3360  Rmax=1.4505     2
 O  H  Rav=0.9678 sigma=0.0000  Rmin=0.9678  Rmax=0.9678     1
 O  C  Rav=1.2698 sigma=0.0642  Rmin=1.2055  Rmax=1.3340     2
 O  O  Rav=1.4208 sigma=0.0000  Rmin=1.4208  Rmax=1.4208     1
 
 selected bond angles (degree)
 --------------------
O4-C1-C2=128.56                H9-C1-C2=123.60                H9-C1-O4=107.83                C3-C2-C1=121.53                
H12-C2-C1=120.68               H12-C2-C3=117.79               O6-C3-C2=125.23                H10-C3-C2=113.84               
H10-C3-O6=120.93               O5-O4-C1=113.62                H7-O5-O4=102.36                
 
 selected dihedral angles (degree)
 ---------------------------------
C3-C2-C1-O4=180.00            C3-C2-C1-H9=359.93            H12-C2-C1-O4=359.97           H12-C2-C1-H9=179.90           
O6-C3-C2-C1=179.32            O6-C3-C2-H12=359.36           H10-C3-C2-C1=359.31           H10-C3-C2-H12=179.35          
O5-O4-C1-C2=359.69            O5-O4-C1-H9=179.75            H7-O5-O4-C1=178.87            
 
 CMA Distance (Angstroems)
 ---------------------------
R(CMA):  3.9307
           -------------------------------------------------
          |                Final Singlepoint                |
           -------------------------------------------------

          ...................................................
          :                      SETUP                      :
          :.................................................:
          :  # basis functions                  30          :
          :  # atomic orbitals                  30          :
          :  # shells                           18          :
          :  # electrons                        36          :
          :  max. iterations                   100          :
          :  Hamiltonian                  GFN2-xTB          :
          :  restarted?                      false          :
          :  GBSA solvation                  false          :
          :  PC potential                    false          :
          :  electronic temp.          300.0000000     K    :
          :  accuracy                    1.0000000          :
          :  -> integral cutoff          0.2500000E+02      :
          :  -> integral neglect         0.1000000E-07      :
          :  -> SCF convergence          0.1000000E-05 Eh   :
          :  -> wf. convergence          0.1000000E-03 e    :
          :  Broyden damping             0.4000000          :
          ...................................................

 iter      E             dE          RMSdq      gap      omega  full diag
   1    -21.7317033 -0.217317E+02  0.170E-04    3.06       0.0  T
   2    -21.7317033 -0.464802E-10  0.767E-05    3.06     376.5  T
   3    -21.7317033 -0.674341E-10  0.628E-05    3.06     459.9  T

   *** convergence criteria satisfied after 3 iterations ***

         #    Occupation            Energy/Eh            Energy/eV
      -------------------------------------------------------------
         1        2.0000           -0.7734807             -21.0475
       ...           ...                  ...                  ...
        12        2.0000           -0.5315666             -14.4647
        13        2.0000           -0.5095793             -13.8664
        14        2.0000           -0.4955236             -13.4839
        15        2.0000           -0.4829701             -13.1423
        16        2.0000           -0.4736147             -12.8877
        17        2.0000           -0.4214080             -11.4671
        18        2.0000           -0.4002850             -10.8923 (HOMO)
        19                         -0.2879503              -7.8355 (LUMO)
        20                         -0.1884220              -5.1272
        21                         -0.1760475              -4.7905
        22                          0.0779983               2.1224
        23                          0.0855431               2.3277
       ...                                ...                  ...
        30                          0.6799783              18.5032
      -------------------------------------------------------------
                  HL-Gap            0.1123347 Eh            3.0568 eV
             Fermi-level           -0.3441177 Eh           -9.3639 eV

 SCC (total)                   0 d,  0 h,  0 min,  0.002 sec
 SCC setup                      ...        0 min,  0.000 sec (  8.634%)
 Dispersion                     ...        0 min,  0.000 sec (  1.663%)
 integral evaluation            ...        0 min,  0.000 sec ( 17.674%)
 zeroth order Hamiltonian       ...        0 min,  0.000 sec (  2.872%)
 iterations                     ...        0 min,  0.001 sec ( 23.881%)
 molecular gradient             ...        0 min,  0.001 sec ( 28.908%)
 printout                       ...        0 min,  0.000 sec (  7.947%)

         :::::::::::::::::::::::::::::::::::::::::::::::::::::
         ::                     SUMMARY                     ::
         :::::::::::::::::::::::::::::::::::::::::::::::::::::
         :: total energy             -21.511805440727 Eh    ::
         :: gradient norm              0.000309269779 Eh/a0 ::
         :: HOMO-LUMO gap              3.056782889200 eV    ::
         ::.................................................::
         :: SCC energy               -21.731703274080 Eh    ::
         :: -> isotropic ES            0.042779836902 Eh    ::
         :: -> anisotropic ES          0.005849105132 Eh    ::
         :: -> anisotropic XC          0.004823771668 Eh    ::
         :: -> dispersion             -0.005534866112 Eh    ::
         :: repulsion energy           0.219890944990 Eh    ::
         :: add. restraining           0.000000000000 Eh    ::
         :::::::::::::::::::::::::::::::::::::::::::::::::::::

           -------------------------------------------------
          |                Property Printout                |
           -------------------------------------------------

    * Orbital Energies and Occupations

         #    Occupation            Energy/Eh            Energy/eV
      -------------------------------------------------------------
         1        2.0000           -0.7734807             -21.0475
       ...           ...                  ...                  ...
         6        2.0000           -0.6435691             -17.5124
         7        2.0000           -0.6102299             -16.6052
         8        2.0000           -0.5970135             -16.2456
         9        2.0000           -0.5811796             -15.8147
        10        2.0000           -0.5554765             -15.1153
        11        2.0000           -0.5392989             -14.6751
        12        2.0000           -0.5315666             -14.4647
        13        2.0000           -0.5095793             -13.8664
        14        2.0000           -0.4955236             -13.4839
        15        2.0000           -0.4829701             -13.1423
        16        2.0000           -0.4736147             -12.8877
        17        2.0000           -0.4214080             -11.4671
        18        2.0000           -0.4002850             -10.8923 (HOMO)
        19                         -0.2879503              -7.8355 (LUMO)
        20                         -0.1884220              -5.1272
        21                         -0.1760475              -4.7905
        22                          0.0779983               2.1224
        23                          0.0855431               2.3277
        24                          0.1050488               2.8585
        25                          0.1277596               3.4765
        26                          0.1626017               4.4246
        27                          0.2623901               7.1400
        28                          0.3732130              10.1556
        29                          0.5164516              14.0534
        30                          0.6799783              18.5032
      -------------------------------------------------------------
                  HL-Gap            0.1123347 Eh            3.0568 eV
             Fermi-level           -0.3441177 Eh           -9.3639 eV

     #   Z        covCN         q      C6AA      α(0)
     1   6 C      2.774     0.121    25.326     8.242
     2   6 C      2.887    -0.090    30.269     9.020
     3   6 C      2.767     0.208    23.584     7.953
     4   8 O      1.786    -0.124    16.166     5.429
     5   8 O      1.739    -0.299    18.967     5.880
     6   8 O      0.857    -0.335    20.430     6.060
     7   1 H      0.805     0.334     0.626     1.243
     8   1 H      0.810    -0.003     3.168     2.795
     9   1 H      0.925     0.084     1.942     2.180
    10   1 H      0.922     0.007     2.939     2.681
    11   1 H      0.810     0.003     3.054     2.744
    12   1 H      0.926     0.095     1.832     2.117

 Mol. C6AA /au·bohr⁶  :       1363.613461
 Mol. C8AA /au·bohr⁸  :      29107.195134
 Mol. α(0) /au        :         56.344800


Wiberg/Mayer (AO) data.
largest (>0.10) Wiberg bond orders for each atom
          total WBO             WBO to atom ...
     1  C   3.925        C    2 1.718    O    4 1.132    H    9 0.929
     2  C   3.978        C    1 1.718    C    3 1.106    H   12 0.953    O    4 0.115
     3  C   3.939        O    6 1.847    C    2 1.106    H   10 0.928
     4  O   2.270        C    1 1.132    O    5 0.960    C    2 0.115
     5  O   1.921        O    4 0.960    H    7 0.881
     6  O   2.080        C    3 1.847
     7  H   0.888        O    5 0.881
     8  H   1.000        H   11 0.997
     9  H   0.993        C    1 0.929
    10  H   1.000        C    3 0.928
    11  H   1.000        H    8 0.997
    12  H   0.991        C    2 0.953

molecular dipole:
                 x           y           z       tot (Debye)
 q only:       -0.390       1.086      -1.175
   full:       -0.510       1.272      -1.510       5.182
molecular quadrupole (traceless):
                xx          xy          yy          xz          yz          zz
 q only:       -6.864       2.700       7.837      -2.769      -4.095      -0.973
  q+dip:       -9.120       3.115       9.184      -3.219      -4.750      -0.064
   full:       -8.016       3.097       9.112      -3.979      -4.867      -1.096

           -------------------------------------------------
          |                Geometry Summary                 |
           -------------------------------------------------

      molecular mass/u    :       90.0780670
   center of mass at/Å    :        0.9070208       1.4770426      -0.9814142
  moments of inertia/u·Å² :        0.6328113E+02   0.3264065E+03   0.3785203E+03
rotational constants/cm⁻¹ :        0.2663927E+00   0.5164613E-01   0.4453561E-01

 * 8 selected distances

     #   Z        #   Z                                     value/Å
     1   6 C      2   6 C                                 1.3360076
     1   6 C      4   8 O                                 1.3340042
     4   8 O      5   8 O                                 1.4208072 (max)
     3   6 C      6   8 O                                 1.2055276
     5   8 O      7   1 H                                 0.9677923
     1   6 C      9   1 H                                 1.0840880
     8   1 H     11   1 H                                 0.7780173 (min)
     2   6 C     12   1 H                                 1.0793838

 * 6 distinct bonds (by element types)

   Z      Z             #   av. dist./Å        max./Å        min./Å
   1 H    1 H           1     0.7780173     0.7780173     0.7780173
   1 H    6 C           2     1.0817359     1.0840880     1.0793838
   6 C    6 C           1     1.3360076     1.3360076     1.3360076
   1 H    8 O           1     0.9677923     0.9677923     0.9677923
   6 C    8 O           2     1.2697659     1.3340042     1.2055276
   8 O    8 O           1     1.4208072     1.4208072     1.4208072


optimized geometry written to: xtbopt.xyz


           -------------------------------------------------
          | TOTAL ENERGY              -21.511805440727 Eh   |
          | GRADIENT NORM               0.000309269779 Eh/α |
          | HOMO-LUMO GAP               3.056782889200 eV   |
           -------------------------------------------------

------------------------------------------------------------------------
 * finished run on 2020/12/23 at 21:40:29.959     
------------------------------------------------------------------------
 total:
 * wall-time:     0 d,  0 h,  0 min,  2.281 sec
 *  cpu-time:     0 d,  0 h,  0 min,  9.240 sec
 * ratio c/w:     4.050 speedup
 SCF:
 * wall-time:     0 d,  0 h,  0 min,  0.096 sec
 *  cpu-time:     0 d,  0 h,  0 min,  0.313 sec
 * ratio c/w:     3.263 speedup
 ANC optimizer:
 * wall-time:     0 d,  0 h,  0 min,  1.900 sec
 *  cpu-time:     0 d,  0 h,  0 min,  7.664 sec
 * ratio c/w:     4.033 speedup

