12
 energy: -21.649965387091 gnorm: 0.000560636075 xtb: 6.2.3 (830e466)
C         0.87080050968629    1.66899880940692   -2.06696576208987
C         0.67274764766803    0.78697139846042   -0.82787965944258
C         1.29131789726702   -0.56999920893069   -1.01116269145020
O         2.24810015306379    1.84966121230533   -2.22520731224606
O         0.20130928796037    2.88692730028531   -1.96424592893002
O         1.90265403083895   -1.16634010596230   -0.17490515659630
H         0.52748677920331    3.36142147171890   -1.18840872302851
H         2.41333578550547    2.41596351430777   -2.98835300579856
H         0.43211819911343    1.18116591126399   -2.95264965095027
H         1.11811040645946   -1.00048250785388   -2.01665840690526
H        -0.40001394160735    0.65533641105734   -0.66686280616572
H         1.11103324484119    1.26998579394090    0.04750910360333
