12
 energy: -21.566435269459 gnorm: 0.000918873927 xtb: 6.2.3 (830e466)
C         1.73181826947221    0.90786557379710   -2.58314881392836
C         1.17007506433411    1.12229343994357   -1.17548642755709
C         0.91283409473351   -0.19449181511373   -0.47455454628546
O        -0.05207626703835    1.82486333881203   -1.16580697377250
O         0.20403047803457    3.20535362353923   -1.42909416895106
O         1.68975693149127   -1.10264501887322   -0.43529901128861
H        -0.68802576714569    3.57294221048139   -1.45709655121221
H         2.62147033741614    0.28864981061695   -2.51974235647720
H         1.98362446830203    1.86586840505621   -3.02991280911199
H        -0.07941346903666   -0.24040348071327    0.01003494666689
H         0.99004963087411    0.40959515168224   -3.20318963477617
H         1.90486622856278    1.67969876077149   -0.57249365330622
