12
 energy: -21.539822553153 gnorm: 0.000500568691 xtb: 6.2.3 (830e466)
C         1.69685392805440    1.29540622206362   -3.18161919225653
C         0.18859063659124    0.36500356843413    0.44617503850609
C         1.17088493201234   -0.42729330432942    0.19837646850537
O         0.51192347045855    2.00330795954141   -2.91468654307493
O         0.65217839680631    2.78804338210329   -1.74111028900989
O         2.07242646249934   -1.12323576380109   -0.04856127044807
H         0.61181847682607    3.70185669950805   -2.05715978477042
H         1.95821577726201    0.62598462427673   -2.35888034898505
H         2.53232795023866    1.97264383531596   -3.38766220797632
H         1.45835649505190    0.71572207120334   -4.07141961839423
H        -0.56006231696540    0.13393002034553    1.17632301952010
H         0.09549579116448    1.28824068533863   -0.09557527161590
