      -----------------------------------------------------------      
     |                   =====================                   |     
     |                           x T B                           |     
     |                   =====================                   |     
     |                         S. Grimme                         |     
     |          Mulliken Center for Theoretical Chemistry        |     
     |                    University of Bonn                     |     
      -----------------------------------------------------------      

   * xtb version 6.2.3 (830e466) compiled by 'ehlert@majestix' on 2020-03-16

   xtb is free software: you can redistribute it and/or modify it under
   the terms of the GNU Lesser General Public License as published by
   the Free Software Foundation, either version 3 of the License, or
   (at your option) any later version.
   
   xtb is distributed in the hope that it will be useful,
   but WITHOUT ANY WARRANTY; without even the implied warranty of
   MERCHANTABILITY or FITNESS FOR A PARTICULAR PURPOSE.  See the
   GNU Lesser General Public License for more details.
   
   Cite this work as:
   * S. Grimme, C. Bannwarth, P. Shushkov, J. Chem. Theory Comput., 2017,
     13, 1989-2009. DOI: 10.1021/acs.jctc.7b00118
   * C. Bannwarth, S. Ehlert and S. Grimme., J. Chem. Theory Comput., 2019,
     15, 1652-1671. DOI: 10.1021/acs.jctc.8b01176
   * P. Pracht, E. Caldeweyher, S. Ehlert, S. Grimme, ChemRxiv, 2019, preprint.
     DOI: 10.26434/chemrxiv.8326202.v1
   
   for DFT-D4:
   * E. Caldeweyher, C. Bannwarth and S. Grimme, J. Chem. Phys., 2017,
     147, 034112. DOI: 10.1063/1.4993215
   * E. Caldeweyher, S. Ehlert, A. Hansen, H. Neugebauer, S. Spicher,
     C. Bannwarth and S. Grimme, J. Chem. Phys., 2019, 150, 154122.
     DOI: 10.1063/1.5090222
   
   for sTDA-xTB:
   * S. Grimme and C. Bannwarth, J. Chem. Phys., 2016, 145, 054103.
     DOI: 10.1063/1.4959605
   
   in the mass-spec context:
   * V. Asgeirsson, C. Bauer and S. Grimme, Chem. Sci., 2017, 8, 4879.
     DOI: 10.1039/c7sc00601b
   
   for metadynamics refer to:
   * S. Grimme, J. Chem. Theory Comput., 2019, 155, 2847-2862
     DOI: 10.1021/acs.jctc.9b00143
   
   with help from (in alphabetical order)
   C. Bannwarth, F. Bohle, G. Brandenburg, E. Caldeweyher, M. Checinski,
   S. Dohm, S. Ehlert, S. Ehrlich, F. März, H. Neugebauer, J. Pisarek,
   P. Pracht, P. Shushkov, and S. Spicher.
   
 * started run on 2020/12/23 at 21:41:56.392     

           -------------------------------------------------
          |                Calculation Setup                |
           -------------------------------------------------

          program call               : xtb -c 0 -u 0 -a 1.0 --iterations 100 --opt normal --namespace product_18 /scratch/bell/zhao922/YARP/paper-example/potential_product/test/reaction_channel/pp_0/pp_20_0.xyz
          hostname                   : bell-fe05.rcac.purdue.edu
          calculation namespace      : product_18
          coordinate file            : /scratch/bell/zhao922/YARP/paper-example/potential_product/test/reaction_channel/pp_0/pp_20_0.xyz
          omp threads                :                    32
          number of atoms            :                    12
          number of electrons        :                    36
          charge                     :                     0
          spin                       :                   0.0
          first test random number   :      0.12458362271525


molecular fragmentation (1/2 indicates fragments):
111111111221
# atoms in fragment 1/2:    10     2
 fragment masses (1/2) :       88.06        2.02
CMA distance (Bohr)    :   5.974
constraining FC (au)   :  0.0500
           ------------------------------------------------- 
          |                 G F N 2 - x T B                 |
          | Geometry, Frequencies, Noncovalent interactions |
          |            JCTC 2019 parametrisation            |
           ------------------------------------------------- 
             k(s)              :                1.8500
             k(p)              :                2.2300
             k(d)              :                2.2300
             k(f)              :                2.0000
             kEN (H0ij)        :               -2.0000
             D4 a1             :                0.5200
             D4 a2             :                5.0000
             D4 s6             :                1.0000
             D4 s8             :                2.7000
             D4 s9             :                5.0000
             alphaj            :                2.0000

  Z AO/shell   Hii/eV     exponent
  1     Wed Apr 25 08:07:45 CEST 2018   EN: 2.200 GM2: 0.406  GM3: 0.0800  RAES: 1.40
     1s    -10.707211    1.230000
  6     Wed Apr 25 08:07:45 CEST 2018   EN: 2.550 GM2: 0.538  GM3: 0.1500  RAES: 3.00
     2s    -13.970922    2.096432
     2p    -10.063292    1.800000
  8     Wed Apr 25 08:07:45 CEST 2018   EN: 3.440 GM2: 0.452  GM3:-0.0517  RAES: 1.80
     2s    -20.229985    2.439742
     2p    -15.503117    2.137023

           ------------------------------------------------- 
          |        Self-Consistent Charge Iterations        |
           ------------------------------------------------- 

          ...................................................
          :                      SETUP                      :
          :.................................................:
          :  # basis functions                  30          :
          :  # atomic orbitals                  30          :
          :  # shells                           18          :
          :  # electrons                        36          :
          :  max. iterations                   100          :
          :  Hamiltonian                  GFN2-xTB          :
          :  restarted?                      false          :
          :  GBSA solvation                  false          :
          :  PC potential                    false          :
          :  electronic temp.          300.0000000     K    :
          :  accuracy                    1.0000000          :
          :  -> integral cutoff          0.2500000E+02      :
          :  -> integral neglect         0.1000000E-07      :
          :  -> SCF convergence          0.1000000E-05 Eh   :
          :  -> wf. convergence          0.1000000E-03 e    :
          :  Broyden damping             0.4000000          :
          ...................................................

 iter      E             dE          RMSdq      gap      omega  full diag
   1    -21.6552806 -0.216553E+02  0.568E+00    4.04       0.0  T
   2    -21.6902580 -0.349774E-01  0.338E+00    2.60       1.0  T
   3    -21.6961078 -0.584985E-02  0.219E+00    3.57       1.0  T
   4    -21.7166235 -0.205157E-01  0.346E-01    2.90       1.0  T
   5    -21.7175155 -0.892022E-03  0.922E-02    2.98       1.0  T
   6    -21.7175345 -0.189193E-04  0.486E-02    2.98       1.0  T
   7    -21.7175408 -0.634403E-05  0.173E-02    2.98       1.7  T
   8    -21.7175411 -0.332938E-06  0.483E-03    2.98       6.0  T
   9    -21.7175412 -0.664521E-07  0.265E-03    2.98      10.9  T
  10    -21.7175413 -0.505569E-07  0.746E-04    2.98      38.7  T
  11    -21.7175413 -0.204754E-08  0.374E-04    2.98      77.2  T

   *** convergence criteria satisfied after 11 iterations ***

         #    Occupation            Energy/Eh            Energy/eV
      -------------------------------------------------------------
         1        2.0000           -0.7535115             -20.5041
       ...           ...                  ...                  ...
        12        2.0000           -0.5324011             -14.4874
        13        2.0000           -0.5081956             -13.8287
        14        2.0000           -0.4998090             -13.6005
        15        2.0000           -0.4767355             -12.9726
        16        2.0000           -0.4606053             -12.5337
        17        2.0000           -0.4410609             -12.0019
        18        2.0000           -0.3869977             -10.5307 (HOMO)
        19                         -0.2776113              -7.5542 (LUMO)
        20                         -0.1913177              -5.2060
        21                         -0.0521129              -1.4181
        22                          0.0565599               1.5391
        23                          0.0735569               2.0016
       ...                                ...                  ...
        30                          1.0240257              27.8652
      -------------------------------------------------------------
                  HL-Gap            0.1093864 Eh            2.9766 eV
             Fermi-level           -0.3323045 Eh           -9.0425 eV

 SCC (total)                   0 d,  0 h,  0 min,  0.098 sec
 SCC setup                      ...        0 min,  0.000 sec (  0.133%)
 Dispersion                     ...        0 min,  0.000 sec (  0.057%)
 integral evaluation            ...        0 min,  0.001 sec (  0.726%)
 zeroth order Hamiltonian       ...        0 min,  0.000 sec (  0.062%)
 iterations                     ...        0 min,  0.093 sec ( 94.289%)
 molecular gradient             ...        0 min,  0.004 sec (  4.469%)
 printout                       ...        0 min,  0.000 sec (  0.079%)

         :::::::::::::::::::::::::::::::::::::::::::::::::::::
         ::                     SUMMARY                     ::
         :::::::::::::::::::::::::::::::::::::::::::::::::::::
         :: total energy             -21.489818139668 Eh    ::
         :: gradient norm              0.146084197958 Eh/a0 ::
         :: HOMO-LUMO gap              2.976555100585 eV    ::
         ::.................................................::
         :: SCC energy               -21.717541257778 Eh    ::
         :: -> isotropic ES            0.039025496372 Eh    ::
         :: -> anisotropic ES          0.007812678485 Eh    ::
         :: -> anisotropic XC          0.001548502405 Eh    ::
         :: -> dispersion             -0.005881750050 Eh    ::
         :: repulsion energy           0.227716439670 Eh    ::
         :: add. restraining           0.000000000000 Eh    ::
         :::::::::::::::::::::::::::::::::::::::::::::::::::::

      ----------------------------------------------------------- 
     |                   =====================                   |
     |                        A N C O P T                        |
     |                   =====================                   |
     |               Approximate Normal Coordinate               |
     |                Rational Function Optimizer                |
      ----------------------------------------------------------- 

          ...................................................
          :                      SETUP                      :
          :.................................................:
          :   optimization level            normal          :
          :   max. optcycles                   200          :
          :   ANC micro-cycles                  20          :
          :   degrees of freedom                30          :
          :.................................................:
          :   RF solver                   davidson          :
          :   write xtbopt.log                true          :
          :   linear?                        false          :
          :   energy convergence         0.5000000E-05 Eh   :
          :   grad. convergence          0.1000000E-02 Eh/α :
          :   maximium RF displ.         1.0000000          :
          :   Hlow (freq-cutoff)         0.1000000E-01      :
          :   Hmax (freq-cutoff)         5.0000000          :
          :   S6 in model hess.         20.0000000          :
          ...................................................

generating ANC from model Hessian ...
Using Lindh-Hessian (1995)
 Shifting diagonal of input Hessian by   1.016796998714999E-002
 Lowest  eigenvalues of input Hessian
    0.010000   -0.000000   -0.000000   -0.000000    0.000000    0.000000
    0.000000    0.010277    0.010392    0.011669    0.012023    0.014735
    0.015442    0.018877    0.030472    0.036013    0.049752    0.083127
 Highest eigenvalues
    1.138316    1.175566    1.316744    1.430074    1.642591    2.626629
 

........................................................................
.............................. CYCLE    1 ..............................
........................................................................
   1    -21.7175413 -0.217175E+02  0.171E-04    2.98       0.0  T
   2    -21.7175413 -0.934861E-10  0.135E-04    2.98     214.2  T
   3    -21.7175413 -0.185210E-09  0.537E-05    2.98     537.9  T
     SCC iter.                  ...        0 min,  0.001 sec
     gradient                   ...        0 min,  0.001 sec
 * total energy  :   -21.4898181 Eh     change       -0.8143253E-08 Eh
   gradient norm :     0.1460791 Eh/α   predicted     0.0000000E+00 (-100.00%)
   displ. norm   :     0.2938884 α      lambda       -0.2210379E-01
   maximum displ.:     0.1762532 α      in ANC's #5, #12, #10, ...

........................................................................
.............................. CYCLE    2 ..............................
........................................................................
   1    -21.7365365 -0.217365E+02  0.487E-01    3.29       0.0  T
   2    -21.7370022 -0.465725E-03  0.328E-01    3.10       1.0  T
   3    -21.7375102 -0.508020E-03  0.196E-01    3.21       1.0  T
   4    -21.7375833 -0.730479E-04  0.267E-02    3.18       1.1  T
   5    -21.7375858 -0.256391E-05  0.135E-02    3.18       2.1  T
   6    -21.7375866 -0.755495E-06  0.643E-03    3.18       4.5  T
   7    -21.7375866 -0.554982E-07  0.243E-03    3.18      11.9  T
   8    -21.7375867 -0.208120E-07  0.995E-04    3.18      29.0  T
     SCC iter.                  ...        0 min,  0.003 sec
     gradient                   ...        0 min,  0.001 sec
 * total energy  :   -21.5035575 Eh     change       -0.1373937E-01 Eh
   gradient norm :     0.0434554 Eh/α   predicted    -0.1200644E-01 ( -12.61%)
   displ. norm   :     0.4471762 α      lambda       -0.6185485E-02
   maximum displ.:     0.2883914 α      in ANC's #6, #5, #7, ...

........................................................................
.............................. CYCLE    3 ..............................
........................................................................
   1    -21.7435767 -0.217436E+02  0.563E-01    3.29       0.0  T
   2    -21.7436590 -0.823679E-04  0.349E-01    3.25       1.0  T
   3    -21.7434841  0.174950E-03  0.156E-01    3.32       1.0  T
   4    -21.7437188 -0.234692E-03  0.224E-02    3.26       1.3  T
   5    -21.7437197 -0.928460E-06  0.846E-03    3.26       3.4  T
   6    -21.7437198 -0.672059E-07  0.396E-03    3.26       7.3  T
   7    -21.7437198 -0.415104E-07  0.107E-03    3.27      26.9  T
     SCC iter.                  ...        0 min,  0.002 sec
     gradient                   ...        0 min,  0.001 sec
 * total energy  :   -21.5062628 Eh     change       -0.2705252E-02 Eh
   gradient norm :     0.0204409 Eh/α   predicted    -0.3711188E-02 (  37.18%)
   displ. norm   :     0.3124428 α      lambda       -0.2733195E-02
   maximum displ.:     0.2581361 α      in ANC's #5, #12, #9, ...

........................................................................
.............................. CYCLE    4 ..............................
........................................................................
   1    -21.7450139 -0.217450E+02  0.287E-01    3.30       0.0  T
   2    -21.7450541 -0.401966E-04  0.179E-01    3.26       1.0  T
   3    -21.7450102  0.439036E-04  0.107E-01    3.31       1.0  T
   4    -21.7450878 -0.776389E-04  0.126E-02    3.27       2.3  T
   5    -21.7450884 -0.634014E-06  0.720E-03    3.28       4.0  T
   6    -21.7450885 -0.932404E-07  0.311E-03    3.28       9.3  T
   7    -21.7450886 -0.196995E-07  0.117E-03    3.28      24.7  T
     SCC iter.                  ...        0 min,  0.002 sec
     gradient                   ...        0 min,  0.001 sec
 * total energy  :   -21.5075930 Eh     change       -0.1330226E-02 Eh
   gradient norm :     0.0236095 Eh/α   predicted    -0.1500004E-02 (  12.76%)
   displ. norm   :     0.2058760 α      lambda       -0.8499584E-03
   maximum displ.:     0.1687930 α      in ANC's #5, #6, #9, ...

........................................................................
.............................. CYCLE    5 ..............................
........................................................................
   1    -21.7429375 -0.217429E+02  0.176E-01    3.22       0.0  T
   2    -21.7429778 -0.402630E-04  0.116E-01    3.27       1.0  T
   3    -21.7430088 -0.310560E-04  0.719E-02    3.23       1.0  T
   4    -21.7430239 -0.151035E-04  0.832E-03    3.25       3.5  T
   5    -21.7430243 -0.396278E-06  0.437E-03    3.25       6.6  T
   6    -21.7430244 -0.401820E-07  0.178E-03    3.25      16.3  T
     SCC iter.                  ...        0 min,  0.002 sec
     gradient                   ...        0 min,  0.001 sec
 * total energy  :   -21.5082059 Eh     change       -0.6128569E-03 Eh
   gradient norm :     0.0074202 Eh/α   predicted    -0.4429911E-03 ( -27.72%)
   displ. norm   :     0.2546236 α      lambda       -0.5667008E-03
   maximum displ.:     0.2037344 α      in ANC's #5, #6, #9, ...

........................................................................
.............................. CYCLE    6 ..............................
........................................................................
   1    -21.7431686 -0.217432E+02  0.241E-01    3.24       0.0  T
   2    -21.7431843 -0.157066E-04  0.151E-01    3.27       1.0  T
   3    -21.7431407  0.436145E-04  0.793E-02    3.23       1.0  T
   4    -21.7431992 -0.584841E-04  0.918E-03    3.26       3.1  T
   5    -21.7431994 -0.194183E-06  0.575E-03    3.26       5.0  T
   6    -21.7431995 -0.575312E-07  0.167E-03    3.26      17.3  T
   7    -21.7431995 -0.669863E-08  0.521E-04    3.26      55.4  T
     SCC iter.                  ...        0 min,  0.002 sec
     gradient                   ...        0 min,  0.001 sec
 * total energy  :   -21.5085937 Eh     change       -0.3878094E-03 Eh
   gradient norm :     0.0115356 Eh/α   predicted    -0.3017206E-03 ( -22.20%)
   displ. norm   :     0.1953583 α      lambda       -0.2578613E-03
   maximum displ.:     0.1622117 α      in ANC's #5, #6, #9, ...

........................................................................
.............................. CYCLE    7 ..............................
........................................................................
   1    -21.7438112 -0.217438E+02  0.153E-01    3.27       0.0  T
   2    -21.7438133 -0.210542E-05  0.940E-02    3.27       1.0  T
   3    -21.7438133  0.575715E-07  0.126E-02    3.27       2.3  T
   4    -21.7438146 -0.129773E-05  0.546E-03    3.27       5.3  T
   5    -21.7438146 -0.664134E-07  0.237E-03    3.27      12.2  T
   6    -21.7438146 -0.105126E-07  0.589E-04    3.27      49.0  T
     SCC iter.                  ...        0 min,  0.092 sec
     gradient                   ...        0 min,  0.001 sec
 * total energy  :   -21.5087945 Eh     change       -0.2008488E-03 Eh
   gradient norm :     0.0098723 Eh/α   predicted    -0.1338503E-03 ( -33.36%)
   displ. norm   :     0.1975382 α      lambda       -0.2144948E-03
   maximum displ.:     0.1636657 α      in ANC's #5, #6, #9, ...

........................................................................
.............................. CYCLE    8 ..............................
........................................................................
   1    -21.7447293 -0.217447E+02  0.140E-01    3.29       0.0  T
   2    -21.7447328 -0.347539E-05  0.861E-02    3.28       1.0  T
   3    -21.7447249  0.789206E-05  0.314E-02    3.30       1.0  T
   4    -21.7447350 -0.101700E-04  0.563E-03    3.29       5.1  T
   5    -21.7447351 -0.498729E-07  0.257E-03    3.29      11.2  T
   6    -21.7447351 -0.121675E-07  0.104E-03    3.29      27.7  T
     SCC iter.                  ...        0 min,  0.002 sec
     gradient                   ...        0 min,  0.001 sec
 * total energy  :   -21.5089486 Eh     change       -0.1540968E-03 Eh
   gradient norm :     0.0052000 Eh/α   predicted    -0.1114324E-03 ( -27.69%)
   displ. norm   :     0.1775415 α      lambda       -0.1150973E-03
   maximum displ.:     0.1504552 α      in ANC's #5, #6, #9, ...

........................................................................
.............................. CYCLE    9 ..............................
........................................................................
   1    -21.7458433 -0.217458E+02  0.142E-01    3.30       0.0  T
   2    -21.7458457 -0.247604E-05  0.873E-02    3.29       1.0  T
   3    -21.7458455  0.202811E-06  0.132E-02    3.30       2.2  T
   4    -21.7458470 -0.148334E-05  0.548E-03    3.29       5.3  T
   5    -21.7458471 -0.820948E-07  0.222E-03    3.29      13.0  T
   6    -21.7458471 -0.895545E-08  0.850E-04    3.29      34.0  T
     SCC iter.                  ...        0 min,  0.092 sec
     gradient                   ...        0 min,  0.001 sec
 * total energy  :   -21.5090269 Eh     change       -0.7830404E-04 Eh
   gradient norm :     0.0044381 Eh/α   predicted    -0.5936718E-04 ( -24.18%)
   displ. norm   :     0.1602708 α      lambda       -0.6629869E-04
   maximum displ.:     0.1317696 α      in ANC's #5, #4, #9, ...

........................................................................
.............................. CYCLE   10 ..............................
........................................................................
   1    -21.7450029 -0.217450E+02  0.123E-01    3.29       0.0  T
   2    -21.7450053 -0.239090E-05  0.763E-02    3.30       1.0  T
   3    -21.7450003  0.505374E-05  0.246E-02    3.29       1.2  T
   4    -21.7450070 -0.673401E-05  0.470E-03    3.30       6.1  T
   5    -21.7450070 -0.213337E-07  0.234E-03    3.29      12.3  T
   6    -21.7450070 -0.104839E-07  0.752E-04    3.29      38.4  T
     SCC iter.                  ...        0 min,  0.002 sec
     gradient                   ...        0 min,  0.001 sec
 * total energy  :   -21.5090669 Eh     change       -0.4001897E-04 Eh
   gradient norm :     0.0042594 Eh/α   predicted    -0.3400224E-04 ( -15.03%)
   displ. norm   :     0.1159926 α      lambda       -0.5041214E-04
   maximum displ.:     0.1024994 α      in ANC's #5, #9, #3, ...

........................................................................
.............................. CYCLE   11 ..............................
........................................................................
   1    -21.7463290 -0.217463E+02  0.872E-02    3.30       0.0  T
   2    -21.7463303 -0.129491E-05  0.541E-02    3.30       1.0  T
   3    -21.7463303  0.106162E-07  0.898E-03    3.30       3.2  T
   4    -21.7463310 -0.640128E-06  0.375E-03    3.30       7.7  T
   5    -21.7463310 -0.468442E-07  0.154E-03    3.30      18.8  T
   6    -21.7463310 -0.487024E-08  0.649E-04    3.30      44.5  T
     SCC iter.                  ...        0 min,  0.092 sec
     gradient                   ...        0 min,  0.001 sec
 * total energy  :   -21.5091020 Eh     change       -0.3504216E-04 Eh
   gradient norm :     0.0035853 Eh/α   predicted    -0.2554403E-04 ( -27.10%)
   displ. norm   :     0.1932017 α      lambda       -0.5972935E-04
   maximum displ.:     0.1601440 α      in ANC's #5, #9, #3, ...

........................................................................
.............................. CYCLE   12 ..............................
........................................................................
   1    -21.7459174 -0.217459E+02  0.173E-01    3.30       0.0  T
   2    -21.7459219 -0.447087E-05  0.108E-01    3.30       1.0  T
   3    -21.7459227 -0.786703E-06  0.161E-02    3.29       1.8  T
   4    -21.7459249 -0.226169E-05  0.700E-03    3.30       4.1  T
   5    -21.7459250 -0.865287E-07  0.367E-03    3.30       7.9  T
   6    -21.7459251 -0.364602E-07  0.990E-04    3.30      29.2  T
   7    -21.7459251 -0.367376E-08  0.639E-04    3.30      45.1  T
     SCC iter.                  ...        0 min,  0.002 sec
     gradient                   ...        0 min,  0.002 sec
 * total energy  :   -21.5091380 Eh     change       -0.3604844E-04 Eh
   gradient norm :     0.0063697 Eh/α   predicted    -0.3098032E-04 ( -14.06%)
   displ. norm   :     0.1855705 α      lambda       -0.9090391E-04
   maximum displ.:     0.1421627 α      in ANC's #5, #3, #4, ...

........................................................................
.............................. CYCLE   13 ..............................
........................................................................
   1    -21.7456387 -0.217456E+02  0.164E-01    3.29       0.0  T
   2    -21.7456435 -0.482456E-05  0.103E-01    3.29       1.0  T
   3    -21.7456435 -0.770434E-08  0.174E-02    3.29       1.7  T
   4    -21.7456463 -0.274740E-05  0.697E-03    3.29       4.1  T
   5    -21.7456465 -0.163055E-06  0.353E-03    3.29       8.2  T
   6    -21.7456465 -0.258298E-07  0.137E-03    3.29      21.0  T
   7    -21.7456465 -0.627163E-08  0.640E-04    3.29      45.1  T
     SCC iter.                  ...        0 min,  0.002 sec
     gradient                   ...        0 min,  0.001 sec
 * total energy  :   -21.5092004 Eh     change       -0.6241504E-04 Eh
   gradient norm :     0.0040799 Eh/α   predicted    -0.4701781E-04 ( -24.67%)
   displ. norm   :     0.1243384 α      lambda       -0.6536165E-04
   maximum displ.:     0.0700461 α      in ANC's #5, #6, #3, ...

........................................................................
.............................. CYCLE   14 ..............................
........................................................................
   1    -21.7460512 -0.217461E+02  0.144E-01    3.28       0.0  T
   2    -21.7460549 -0.368428E-05  0.900E-02    3.28       1.0  T
   3    -21.7460518  0.304584E-05  0.224E-02    3.27       1.3  T
   4    -21.7460572 -0.538648E-05  0.591E-03    3.28       4.9  T
   5    -21.7460573 -0.853480E-07  0.307E-03    3.28       9.4  T
   6    -21.7460573 -0.176395E-07  0.122E-03    3.28      23.7  T
   7    -21.7460573 -0.549107E-08  0.568E-04    3.28      50.8  T
     SCC iter.                  ...        0 min,  0.002 sec
     gradient                   ...        0 min,  0.001 sec
 * total energy  :   -21.5092367 Eh     change       -0.3626504E-04 Eh
   gradient norm :     0.0034700 Eh/α   predicted    -0.3318762E-04 (  -8.49%)
   displ. norm   :     0.1666040 α      lambda       -0.4054208E-04
   maximum displ.:     0.1110088 α      in ANC's #5, #3, #9, ...

........................................................................
.............................. CYCLE   15 ..............................
........................................................................
   1    -21.7446349 -0.217446E+02  0.164E-01    3.28       0.0  T
   2    -21.7446390 -0.414593E-05  0.103E-01    3.28       1.0  T
   3    -21.7446419 -0.292144E-05  0.905E-03    3.27       3.2  T
   4    -21.7446421 -0.138980E-06  0.568E-03    3.28       5.1  T
   5    -21.7446421 -0.349516E-07  0.194E-03    3.27      14.9  T
   6    -21.7446421 -0.297778E-07  0.972E-04    3.28      29.7  T
   7    -21.7446421 -0.360448E-08  0.535E-04    3.28      54.0  T
     SCC iter.                  ...        0 min,  0.003 sec
     gradient                   ...        0 min,  0.001 sec
 * total energy  :   -21.5092448 Eh     change       -0.8111415E-05 Eh
   gradient norm :     0.0059351 Eh/α   predicted    -0.2083280E-04 ( 156.83%)
   displ. norm   :     0.0757622 α      lambda       -0.4545733E-04
   maximum displ.:     0.0662560 α      in ANC's #5, #9, #3, ...

........................................................................
.............................. CYCLE   16 ..............................
........................................................................
   1    -21.7458367 -0.217458E+02  0.622E-02    3.28       0.0  T
   2    -21.7458382 -0.147353E-05  0.389E-02    3.28       1.0  T
   3    -21.7458360  0.216094E-05  0.186E-02    3.29       1.6  T
   4    -21.7458391 -0.313858E-05  0.344E-03    3.28       8.4  T
   5    -21.7458392 -0.247696E-07  0.189E-03    3.28      15.2  T
   6    -21.7458392 -0.780548E-08  0.923E-04    3.28      31.3  T
     SCC iter.                  ...        0 min,  0.002 sec
     gradient                   ...        0 min,  0.001 sec
 * total energy  :   -21.5092568 Eh     change       -0.1197144E-04 Eh
   gradient norm :     0.0034118 Eh/α   predicted    -0.2285966E-04 (  90.95%)
   displ. norm   :     0.0322106 α      lambda       -0.3302958E-04
   maximum displ.:     0.0164706 α      in ANC's #6, #4, #1, ...

........................................................................
.............................. CYCLE   17 ..............................
........................................................................
   1    -21.7462928 -0.217463E+02  0.382E-02    3.28       0.0  T
   2    -21.7462931 -0.327810E-06  0.238E-02    3.28       1.2  T
   3    -21.7462930  0.141109E-06  0.592E-03    3.28       4.9  T
   4    -21.7462933 -0.321886E-06  0.182E-03    3.28      15.9  T
   5    -21.7462933 -0.102218E-07  0.933E-04    3.28      30.9  T
   6    -21.7462933 -0.146345E-08  0.447E-04    3.28      64.6  T
     SCC iter.                  ...        0 min,  0.003 sec
     gradient                   ...        0 min,  0.001 sec
 * total energy  :   -21.5092719 Eh     change       -0.1510858E-04 Eh
   gradient norm :     0.0019439 Eh/α   predicted    -0.1653362E-04 (   9.43%)
   displ. norm   :     0.0792643 α      lambda       -0.1563275E-04
   maximum displ.:     0.0379835 α      in ANC's #5, #3, #8, ...

........................................................................
.............................. CYCLE   18 ..............................
........................................................................
   1    -21.7456494 -0.217456E+02  0.905E-02    3.28       0.0  T
   2    -21.7456508 -0.137567E-05  0.572E-02    3.28       1.0  T
   3    -21.7456517 -0.972772E-06  0.528E-03    3.28       5.5  T
   4    -21.7456518 -0.449982E-07  0.331E-03    3.28       8.7  T
   5    -21.7456518 -0.131300E-07  0.163E-03    3.28      17.7  T
   6    -21.7456518 -0.195338E-07  0.621E-04    3.28      46.5  T
   7    -21.7456518 -0.161454E-08  0.326E-04    3.28      88.5  T
     SCC iter.                  ...        0 min,  0.002 sec
     gradient                   ...        0 min,  0.091 sec
 * total energy  :   -21.5092896 Eh     change       -0.1767208E-04 Eh
   gradient norm :     0.0027304 Eh/α   predicted    -0.7836512E-05 ( -55.66%)
   displ. norm   :     0.0905439 α      lambda       -0.2554508E-04
   maximum displ.:     0.0474416 α      in ANC's #8, #3, #9, ...

........................................................................
.............................. CYCLE   19 ..............................
........................................................................
   1    -21.7453448 -0.217453E+02  0.113E-01    3.28       0.0  T
   2    -21.7453471 -0.222605E-05  0.717E-02    3.28       1.0  T
   3    -21.7453485 -0.146349E-05  0.703E-03    3.28       4.1  T
   4    -21.7453486 -0.960991E-07  0.435E-03    3.28       6.6  T
   5    -21.7453487 -0.382858E-07  0.206E-03    3.28      14.0  T
   6    -21.7453487 -0.260010E-07  0.894E-04    3.28      32.3  T
   7    -21.7453487 -0.367283E-08  0.437E-04    3.28      66.0  T
     SCC iter.                  ...        0 min,  0.002 sec
     gradient                   ...        0 min,  0.001 sec
 * total energy  :   -21.5093091 Eh     change       -0.1951809E-04 Eh
   gradient norm :     0.0034114 Eh/α   predicted    -0.1287796E-04 ( -34.02%)
   displ. norm   :     0.1109622 α      lambda       -0.3213505E-04
   maximum displ.:     0.0649345 α      in ANC's #8, #3, #9, ...

........................................................................
.............................. CYCLE   20 ..............................
........................................................................
   1    -21.7451573 -0.217452E+02  0.145E-01    3.29       0.0  T
   2    -21.7451610 -0.375046E-05  0.917E-02    3.29       1.0  T
   3    -21.7451635 -0.248624E-05  0.888E-03    3.29       3.3  T
   4    -21.7451636 -0.111065E-06  0.514E-03    3.29       5.6  T
   5    -21.7451637 -0.455572E-07  0.242E-03    3.29      11.9  T
   6    -21.7451637 -0.342909E-07  0.119E-03    3.29      24.2  T
   7    -21.7451637 -0.736852E-08  0.538E-04    3.29      53.7  T
   8    -21.7451637 -0.121679E-08  0.135E-04    3.29     214.4  T
     SCC iter.                  ...        0 min,  0.002 sec
     gradient                   ...        0 min,  0.091 sec
 * total energy  :   -21.5093319 Eh     change       -0.2282635E-04 Eh
   gradient norm :     0.0041532 Eh/α   predicted    -0.1626582E-04 ( -28.74%)
   displ. norm   :     0.1093882 α      lambda       -0.3823146E-04
   maximum displ.:     0.0634216 α      in ANC's #8, #3, #9, ...
 * RMSD in coord.:     0.7786013 α      energy gain  -0.1951377E-01 Eh

generating ANC from model Hessian ...
Using Lindh-Hessian (1995)
 Shifting diagonal of input Hessian by   1.001535714346287E-002
 Lowest  eigenvalues of input Hessian
    0.010000   -0.000000   -0.000000    0.000000    0.000000    0.000000
    0.000000    0.010089    0.010129    0.010361    0.010399    0.012402
    0.016856    0.018341    0.027320    0.034872    0.046922    0.073975
 Highest eigenvalues
    1.163134    1.218726    1.304818    1.405384    1.532634    2.799528
 

........................................................................
.............................. CYCLE   21 ..............................
........................................................................
   1    -21.7454060 -0.217454E+02  0.142E-01    3.29       0.0  T
   2    -21.7454094 -0.347891E-05  0.889E-02    3.29       1.0  T
   3    -21.7454116 -0.217504E-05  0.880E-03    3.29       3.3  T
   4    -21.7454117 -0.110265E-06  0.469E-03    3.29       6.2  T
   5    -21.7454118 -0.364574E-07  0.194E-03    3.29      14.9  T
   6    -21.7454118 -0.118816E-07  0.113E-03    3.29      25.6  T
   7    -21.7454118 -0.784022E-08  0.532E-04    3.29      54.3  T
   8    -21.7454118 -0.969699E-09  0.303E-04    3.29      95.4  T
     SCC iter.                  ...        0 min,  0.003 sec
     gradient                   ...        0 min,  0.001 sec
 * total energy  :   -21.5093628 Eh     change       -0.3090570E-04 Eh
   gradient norm :     0.0036731 Eh/α   predicted     0.0000000E+00 (-100.00%)
   displ. norm   :     0.0426975 α      lambda       -0.4616227E-04
   maximum displ.:     0.0219490 α      in ANC's #6, #5, #3, ...

........................................................................
.............................. CYCLE   22 ..............................
........................................................................
   1    -21.7461301 -0.217461E+02  0.485E-02    3.29       0.0  T
   2    -21.7461306 -0.505961E-06  0.304E-02    3.29       1.0  T
   3    -21.7461300  0.599036E-06  0.916E-03    3.29       3.2  T
   4    -21.7461309 -0.888458E-06  0.185E-03    3.29      15.6  T
   5    -21.7461309 -0.872210E-08  0.101E-03    3.29      28.5  T
   6    -21.7461309 -0.136881E-08  0.429E-04    3.29      67.3  T
   7    -21.7461309 -0.291301E-09  0.873E-05    3.29     330.5  T
     SCC iter.                  ...        0 min,  0.003 sec
     gradient                   ...        0 min,  0.001 sec
 * total energy  :   -21.5093983 Eh     change       -0.3551038E-04 Eh
   gradient norm :     0.0013830 Eh/α   predicted    -0.2312254E-04 ( -34.89%)
   displ. norm   :     0.2458815 α      lambda       -0.1254467E-03
   maximum displ.:     0.1187569 α      in ANC's #5, #9, #3, ...

........................................................................
.............................. CYCLE   23 ..............................
........................................................................
   1    -21.7461522 -0.217462E+02  0.238E-01    3.28       0.0  T
   2    -21.7461639 -0.117488E-04  0.148E-01    3.29       1.0  T
   3    -21.7461593  0.456614E-05  0.323E-02    3.28       1.0  T
   4    -21.7461692 -0.988117E-05  0.991E-03    3.29       2.9  T
   5    -21.7461696 -0.386684E-06  0.540E-03    3.28       5.3  T
   6    -21.7461696 -0.340597E-07  0.192E-03    3.28      15.0  T
   7    -21.7461697 -0.738213E-08  0.477E-04    3.28      60.5  T
   8    -21.7461697 -0.118587E-08  0.197E-04    3.28     146.3  T
     SCC iter.                  ...        0 min,  0.002 sec
     gradient                   ...        0 min,  0.293 sec
 * total energy  :   -21.5094448 Eh     change       -0.4643082E-04 Eh
   gradient norm :     0.0055919 Eh/α   predicted    -0.6440963E-04 (  38.72%)
   displ. norm   :     0.1302162 α      lambda       -0.1413815E-03
   maximum displ.:     0.0672655 α      in ANC's #6, #5, #9, ...

........................................................................
.............................. CYCLE   24 ..............................
........................................................................
   1    -21.7444563 -0.217445E+02  0.158E-01    3.29       0.0  T
   2    -21.7444585 -0.217545E-05  0.978E-02    3.28       1.0  T
   3    -21.7444596 -0.105281E-05  0.822E-03    3.29       3.5  T
   4    -21.7444599 -0.353495E-06  0.463E-03    3.28       6.2  T
   5    -21.7444600 -0.593759E-07  0.164E-03    3.28      17.6  T
   6    -21.7444600 -0.530825E-08  0.534E-04    3.28      54.0  T
     SCC iter.                  ...        0 min,  0.002 sec
     gradient                   ...        0 min,  0.001 sec
 * total energy  :   -21.5095053 Eh     change       -0.6049829E-04 Eh
   gradient norm :     0.0087528 Eh/α   predicted    -0.7189011E-04 (  18.83%)
   displ. norm   :     0.1285430 α      lambda       -0.3015139E-03
   maximum displ.:     0.0666607 α      in ANC's #3, #6, #9, ...

........................................................................
.............................. CYCLE   25 ..............................
........................................................................
   1    -21.7467325 -0.217467E+02  0.176E-01    3.28       0.0  T
   2    -21.7467355 -0.294879E-05  0.108E-01    3.28       1.0  T
   3    -21.7467360 -0.560536E-06  0.991E-03    3.28       2.9  T
   4    -21.7467367 -0.632541E-06  0.522E-03    3.28       5.5  T
   5    -21.7467368 -0.163777E-06  0.247E-03    3.28      11.7  T
   6    -21.7467368 -0.949183E-08  0.112E-03    3.28      25.9  T
     SCC iter.                  ...        0 min,  0.092 sec
     gradient                   ...        0 min,  0.001 sec
 * total energy  :   -21.5095083 Eh     change       -0.3076885E-05 Eh
   gradient norm :     0.0088182 Eh/α   predicted    -0.1532466E-03 (4880.58%)
   displ. norm   :     0.0661514 α      lambda       -0.2087988E-03
   maximum displ.:     0.0328025 α      in ANC's #3, #5, #2, ...

........................................................................
.............................. CYCLE   26 ..............................
........................................................................
   1    -21.7463605 -0.217464E+02  0.867E-02    3.29       0.0  T
   2    -21.7463615 -0.102168E-05  0.536E-02    3.28       1.0  T
   3    -21.7463584  0.312325E-05  0.191E-02    3.29       1.5  T
   4    -21.7463623 -0.390411E-05  0.239E-03    3.28      12.1  T
   5    -21.7463623 -0.856226E-08  0.117E-03    3.28      24.7  T
   6    -21.7463623 -0.158617E-08  0.456E-04    3.28      63.3  T
     SCC iter.                  ...        0 min,  0.002 sec
     gradient                   ...        0 min,  0.001 sec
 * total energy  :   -21.5096470 Eh     change       -0.1386457E-03 Eh
   gradient norm :     0.0030872 Eh/α   predicted    -0.1048571E-03 ( -24.37%)
   displ. norm   :     0.1896425 α      lambda       -0.1386418E-03
   maximum displ.:     0.1053851 α      in ANC's #5, #9, #4, ...

........................................................................
.............................. CYCLE   27 ..............................
........................................................................
   1    -21.7438907 -0.217439E+02  0.178E-01    3.28       0.0  T
   2    -21.7438939 -0.321736E-05  0.109E-01    3.28       1.0  T
   3    -21.7438946 -0.734125E-06  0.123E-02    3.28       2.4  T
   4    -21.7438956 -0.954966E-06  0.574E-03    3.28       5.0  T
   5    -21.7438956 -0.309942E-07  0.303E-03    3.28       9.5  T
   6    -21.7438957 -0.372714E-07  0.108E-03    3.28      26.6  T
   7    -21.7438957 -0.513434E-08  0.462E-04    3.28      62.5  T
   8    -21.7438957 -0.888132E-09  0.264E-04    3.28     109.3  T
     SCC iter.                  ...        0 min,  0.092 sec
     gradient                   ...        0 min,  0.002 sec
 * total energy  :   -21.5097122 Eh     change       -0.6521047E-04 Eh
   gradient norm :     0.0092918 Eh/α   predicted    -0.7181184E-04 (  10.12%)
   displ. norm   :     0.1024722 α      lambda       -0.1365663E-03
   maximum displ.:     0.0503750 α      in ANC's #5, #9, #4, ...

........................................................................
.............................. CYCLE   28 ..............................
........................................................................
   1    -21.7451384 -0.217451E+02  0.960E-02    3.28       0.0  T
   2    -21.7451392 -0.831956E-06  0.573E-02    3.28       1.0  T
   3    -21.7451389  0.331801E-06  0.853E-03    3.29       3.4  T
   4    -21.7451395 -0.641446E-06  0.304E-03    3.28       9.5  T
   5    -21.7451395 -0.281790E-07  0.110E-03    3.28      26.1  T
   6    -21.7451395 -0.180517E-08  0.569E-04    3.28      50.7  T
     SCC iter.                  ...        0 min,  0.002 sec
     gradient                   ...        0 min,  0.001 sec
 * total energy  :   -21.5098272 Eh     change       -0.1150138E-03 Eh
   gradient norm :     0.0055054 Eh/α   predicted    -0.6900096E-04 ( -40.01%)
   displ. norm   :     0.5431180 α      lambda       -0.4322373E-03
   maximum displ.:     0.2914699 α      in ANC's #9, #5, #4, ...

........................................................................
.............................. CYCLE   29 ..............................
........................................................................
   1    -21.7431120 -0.217431E+02  0.563E-01    3.28       0.0  T
   2    -21.7431373 -0.252760E-04  0.341E-01    3.27       1.0  T
   3    -21.7431454 -0.805736E-05  0.311E-02    3.28       1.0  T
   4    -21.7431489 -0.350610E-05  0.168E-02    3.27       1.7  T
   5    -21.7431496 -0.731664E-06  0.777E-03    3.28       3.7  T
   6    -21.7431498 -0.135283E-06  0.398E-03    3.27       7.2  T
   7    -21.7431498 -0.964830E-07  0.141E-03    3.27      20.5  T
   8    -21.7431499 -0.753936E-08  0.803E-04    3.27      35.9  T
     SCC iter.                  ...        0 min,  0.092 sec
     gradient                   ...        0 min,  0.001 sec
 * total energy  :   -21.5101206 Eh     change       -0.2933672E-03 Eh
   gradient norm :     0.0118924 Eh/α   predicted    -0.2798616E-03 (  -4.60%)
   displ. norm   :     0.3903622 α      lambda       -0.3790155E-03
   maximum displ.:     0.2081767 α      in ANC's #5, #6, #4, ...

........................................................................
.............................. CYCLE   30 ..............................
........................................................................
   1    -21.7419488 -0.217419E+02  0.396E-01    3.26       0.0  T
   2    -21.7419607 -0.118948E-04  0.237E-01    3.26       1.0  T
   3    -21.7419574  0.331036E-05  0.311E-02    3.25       1.0  T
   4    -21.7419656 -0.820489E-05  0.122E-02    3.26       2.4  T
   5    -21.7419659 -0.308741E-06  0.557E-03    3.26       5.2  T
   6    -21.7419660 -0.136894E-06  0.238E-03    3.26      12.2  T
   7    -21.7419660 -0.983943E-08  0.502E-04    3.26      57.5  T
     SCC iter.                  ...        0 min,  0.002 sec
     gradient                   ...        0 min,  0.001 sec
 * total energy  :   -21.5103609 Eh     change       -0.2403618E-03 Eh
   gradient norm :     0.0134931 Eh/α   predicted    -0.2183894E-03 (  -9.14%)
   displ. norm   :     0.2746881 α      lambda       -0.4940321E-03
   maximum displ.:     0.1474867 α      in ANC's #6, #5, #7, ...

........................................................................
.............................. CYCLE   31 ..............................
........................................................................
   1    -21.7477901 -0.217478E+02  0.301E-01    3.28       0.0  T
   2    -21.7477970 -0.685238E-05  0.183E-01    3.28       1.0  T
   3    -21.7477942  0.271165E-05  0.270E-02    3.29       1.1  T
   4    -21.7478008 -0.660323E-05  0.102E-02    3.28       2.8  T
   5    -21.7478010 -0.187832E-06  0.424E-03    3.28       6.8  T
   6    -21.7478011 -0.343743E-07  0.147E-03    3.28      19.6  T
   7    -21.7478011 -0.866239E-08  0.564E-04    3.28      51.2  T
     SCC iter.                  ...        0 min,  0.002 sec
     gradient                   ...        0 min,  0.001 sec
 * total energy  :   -21.5106516 Eh     change       -0.2906233E-03 Eh
   gradient norm :     0.0133198 Eh/α   predicted    -0.2656555E-03 (  -8.59%)
   displ. norm   :     0.5960471 α      lambda       -0.8829416E-03
   maximum displ.:     0.3266458 α      in ANC's #5, #6, #9, ...

........................................................................
.............................. CYCLE   32 ..............................
........................................................................
   1    -21.7418755 -0.217419E+02  0.627E-01    3.31       0.0  T
   2    -21.7419143 -0.388346E-04  0.381E-01    3.28       1.0  T
   3    -21.7418168  0.975491E-04  0.107E-01    3.32       1.0  T
   4    -21.7419423 -0.125547E-03  0.222E-02    3.28       1.3  T
   5    -21.7419428 -0.497196E-06  0.851E-03    3.29       3.4  T
   6    -21.7419429 -0.127601E-06  0.377E-03    3.29       7.7  T
   7    -21.7419430 -0.583663E-07  0.150E-03    3.29      19.2  T
   8    -21.7419430 -0.866238E-08  0.758E-04    3.29      38.1  T
     SCC iter.                  ...        0 min,  0.002 sec
     gradient                   ...        0 min,  0.001 sec
 * total energy  :   -21.5108508 Eh     change       -0.1992144E-03 Eh
   gradient norm :     0.0210519 Eh/α   predicted    -0.5983311E-03 ( 200.35%)
   displ. norm   :     0.1307525 α      lambda       -0.7154547E-03
   maximum displ.:     0.0982520 α      in ANC's #5, #9, #10, ...

........................................................................
.............................. CYCLE   33 ..............................
........................................................................
   1    -21.7488655 -0.217489E+02  0.127E-01    3.32       0.0  T
   2    -21.7488715 -0.595068E-05  0.765E-02    3.31       1.0  T
   3    -21.7488644  0.701274E-05  0.333E-02    3.33       1.0  T
   4    -21.7488739 -0.943537E-05  0.626E-03    3.32       4.6  T
   5    -21.7488740 -0.162346E-06  0.283E-03    3.32      10.2  T
   6    -21.7488741 -0.190651E-07  0.160E-03    3.32      18.0  T
     SCC iter.                  ...        0 min,  0.002 sec
     gradient                   ...        0 min,  0.001 sec
 * total energy  :   -21.5112062 Eh     change       -0.3554500E-03 Eh
   gradient norm :     0.0083015 Eh/α   predicted    -0.3638423E-03 (   2.36%)
   displ. norm   :     0.4200035 α      lambda       -0.4564677E-03
   maximum displ.:     0.2531733 α      in ANC's #6, #9, #7, ...

........................................................................
.............................. CYCLE   34 ..............................
........................................................................
   1    -21.7415528 -0.217416E+02  0.522E-01    3.23       0.0  T
   2    -21.7415820 -0.291573E-04  0.316E-01    3.26       1.0  T
   3    -21.7414736  0.108378E-03  0.110E-01    3.21       1.0  T
   4    -21.7416045 -0.130895E-03  0.165E-02    3.25       1.8  T
   5    -21.7416048 -0.317098E-06  0.934E-03    3.25       3.1  T
   6    -21.7416051 -0.246380E-06  0.312E-03    3.25       9.2  T
   7    -21.7416051 -0.176367E-07  0.924E-04    3.25      31.2  T
   8    -21.7416051 -0.286661E-08  0.550E-04    3.25      52.5  T
     SCC iter.                  ...        0 min,  0.003 sec
     gradient                   ...        0 min,  0.091 sec
 * total energy  :   -21.5109888 Eh     change        0.2174028E-03 Eh
   gradient norm :     0.0245327 Eh/α   predicted    -0.2684915E-03 (-223.50%)
   displ. norm   :     0.1425888 α      lambda       -0.1085338E-02
   maximum displ.:     0.0695511 α      in ANC's #5, #2, #3, ...

........................................................................
.............................. CYCLE   35 ..............................
........................................................................
   1    -21.7468792 -0.217469E+02  0.113E-01    3.32       0.0  T
   2    -21.7468929 -0.137587E-04  0.673E-02    3.29       1.0  T
   3    -21.7468958 -0.291712E-05  0.465E-02    3.31       1.0  T
   4    -21.7469049 -0.900810E-05  0.606E-03    3.30       4.8  T
   5    -21.7469050 -0.114053E-06  0.284E-03    3.30      10.2  T
   6    -21.7469050 -0.215708E-07  0.160E-03    3.30      18.0  T
     SCC iter.                  ...        0 min,  0.002 sec
     gradient                   ...        0 min,  0.001 sec
 * total energy  :   -21.5115901 Eh     change       -0.6012803E-03 Eh
   gradient norm :     0.0093553 Eh/α   predicted    -0.5537005E-03 (  -7.91%)
   displ. norm   :     0.2413225 α      lambda       -0.4067569E-03
   maximum displ.:     0.1256204 α      in ANC's #6, #7, #9, ...

........................................................................
.............................. CYCLE   36 ..............................
........................................................................
   1    -21.7477153 -0.217477E+02  0.300E-01    3.36       0.0  T
   2    -21.7477299 -0.146303E-04  0.184E-01    3.33       1.0  T
   3    -21.7476814  0.485702E-04  0.781E-02    3.37       1.0  T
   4    -21.7477427 -0.613083E-04  0.121E-02    3.34       2.4  T
   5    -21.7477427 -0.609054E-07  0.455E-03    3.34       6.3  T
   6    -21.7477428 -0.568566E-07  0.175E-03    3.34      16.5  T
   7    -21.7477428 -0.101798E-07  0.598E-04    3.34      48.3  T
     SCC iter.                  ...        0 min,  0.002 sec
     gradient                   ...        0 min,  0.091 sec
 * total energy  :   -21.5117566 Eh     change       -0.1665239E-03 Eh
   gradient norm :     0.0109008 Eh/α   predicted    -0.2152232E-03 (  29.24%)
   displ. norm   :     0.3472788 α      lambda       -0.5051503E-03
   maximum displ.:     0.2145728 α      in ANC's #6, #2, #8, ...

........................................................................
.............................. CYCLE   37 ..............................
........................................................................
   1    -21.7456236 -0.217456E+02  0.477E-01    3.34       0.0  T
   2    -21.7456369 -0.132990E-04  0.293E-01    3.33       1.0  T
   3    -21.7456368  0.117603E-06  0.330E-02    3.35       1.0  T
   4    -21.7456460 -0.916497E-05  0.155E-02    3.33       1.9  T
   5    -21.7456463 -0.349812E-06  0.373E-03    3.34       7.7  T
   6    -21.7456463 -0.196091E-07  0.101E-03    3.34      28.7  T
   7    -21.7456463 -0.354983E-08  0.606E-04    3.34      47.6  T
     SCC iter.                  ...        0 min,  0.003 sec
     gradient                   ...        0 min,  0.001 sec
 * total energy  :   -21.5121175 Eh     change       -0.3608766E-03 Eh
   gradient norm :     0.0099627 Eh/α   predicted    -0.2830321E-03 ( -21.57%)
   displ. norm   :     0.4058589 α      lambda       -0.5084102E-03
   maximum displ.:     0.2135217 α      in ANC's #6, #7, #2, ...

........................................................................
.............................. CYCLE   38 ..............................
........................................................................
   1    -21.7441642 -0.217442E+02  0.504E-01    3.33       0.0  T
   2    -21.7441800 -0.157692E-04  0.309E-01    3.33       1.0  T
   3    -21.7441879 -0.789937E-05  0.251E-02    3.32       1.2  T
   4    -21.7441891 -0.121015E-05  0.152E-02    3.33       1.9  T
   5    -21.7441897 -0.563905E-06  0.502E-03    3.33       5.8  T
   6    -21.7441898 -0.141099E-06  0.160E-03    3.33      18.0  T
   7    -21.7441898 -0.779677E-08  0.604E-04    3.33      47.8  T
     SCC iter.                  ...        0 min,  0.093 sec
     gradient                   ...        0 min,  0.001 sec
 * total energy  :   -21.5123999 Eh     change       -0.2824105E-03 Eh
   gradient norm :     0.0156919 Eh/α   predicted    -0.2960800E-03 (   4.84%)
   displ. norm   :     0.2627687 α      lambda       -0.4131337E-03
   maximum displ.:     0.1777523 α      in ANC's #5, #2, #7, ...

........................................................................
.............................. CYCLE   39 ..............................
........................................................................
   1    -21.7523025 -0.217523E+02  0.235E-01    3.44       0.0  T
   2    -21.7523290 -0.265126E-04  0.148E-01    3.40       1.0  T
   3    -21.7523068  0.221735E-04  0.942E-02    3.44       1.0  T
   4    -21.7523582 -0.513558E-04  0.816E-03    3.41       3.5  T
   5    -21.7523583 -0.579337E-07  0.465E-03    3.41       6.2  T
   6    -21.7523583 -0.438174E-07  0.134E-03    3.41      21.6  T
   7    -21.7523583 -0.438578E-08  0.457E-04    3.41      63.2  T
     SCC iter.                  ...        0 min,  0.002 sec
     gradient                   ...        0 min,  0.001 sec
 * total energy  :   -21.5124952 Eh     change       -0.9533460E-04 Eh
   gradient norm :     0.0139422 Eh/α   predicted    -0.2208311E-03 ( 131.64%)
   displ. norm   :     0.4024418 α      lambda       -0.5831032E-03
   maximum displ.:     0.2039665 α      in ANC's #6, #7, #2, ...

........................................................................
.............................. CYCLE   40 ..............................
........................................................................
   1    -21.7453867 -0.217454E+02  0.480E-01    3.41       0.0  T
   2    -21.7454176 -0.309658E-04  0.296E-01    3.39       1.0  T
   3    -21.7453368  0.808005E-04  0.970E-02    3.43       1.0  T
   4    -21.7454386 -0.101732E-03  0.188E-02    3.39       1.5  T
   5    -21.7454390 -0.397819E-06  0.826E-03    3.40       3.5  T
   6    -21.7454391 -0.123042E-06  0.320E-03    3.40       9.0  T
   7    -21.7454391 -0.282885E-07  0.772E-04    3.40      37.4  T
   8    -21.7454391 -0.225605E-08  0.460E-04    3.40      62.8  T
     SCC iter.                  ...        0 min,  0.093 sec
     gradient                   ...        0 min,  0.001 sec
 * total energy  :   -21.5127331 Eh     change       -0.2378938E-03 Eh
   gradient norm :     0.0146451 Eh/α   predicted    -0.3387725E-03 (  42.40%)
   displ. norm   :     0.1164604 α      lambda       -0.3780329E-03
   maximum displ.:     0.0702977 α      in ANC's #4, #9, #5, ...

........................................................................
.............................. CYCLE   41 ..............................
........................................................................
   1    -21.7485545 -0.217486E+02  0.168E-01    3.38       0.0  T
   2    -21.7486010 -0.465362E-04  0.108E-01    3.43       1.0  T
   3    -21.7486244 -0.233939E-04  0.669E-02    3.40       1.0  T
   4    -21.7486367 -0.122708E-04  0.113E-02    3.41       2.5  T
   5    -21.7486373 -0.559862E-06  0.436E-03    3.41       6.6  T
   6    -21.7486373 -0.897152E-07  0.176E-03    3.41      16.4  T
   7    -21.7486373 -0.307944E-08  0.608E-04    3.41      47.5  T
     SCC iter.                  ...        0 min,  0.002 sec
     gradient                   ...        0 min,  0.001 sec
 * total energy  :   -21.5127148 Eh     change        0.1836527E-04 Eh
   gradient norm :     0.0170930 Eh/α   predicted    -0.1915804E-03 (*******%)
   displ. norm   :     0.1748736 α      lambda       -0.3874502E-03
   maximum displ.:     0.0832409 α      in ANC's #6, #2, #5, ...

........................................................................
.............................. CYCLE   42 ..............................
........................................................................
   1    -21.7490504 -0.217491E+02  0.214E-01    3.42       0.0  T
   2    -21.7490623 -0.119392E-04  0.134E-01    3.40       1.0  T
   3    -21.7490321  0.301947E-04  0.674E-02    3.43       1.0  T
   4    -21.7490719 -0.397291E-04  0.822E-03    3.41       3.5  T
   5    -21.7490720 -0.127953E-06  0.435E-03    3.41       6.6  T
   6    -21.7490720 -0.395295E-07  0.178E-03    3.41      16.2  T
   7    -21.7490720 -0.592111E-08  0.402E-04    3.41      71.8  T
     SCC iter.                  ...        0 min,  0.004 sec
     gradient                   ...        0 min,  0.001 sec
 * total energy  :   -21.5129108 Eh     change       -0.1959921E-03 Eh
   gradient norm :     0.0093760 Eh/α   predicted    -0.1996515E-03 (   1.87%)
   displ. norm   :     0.1500876 α      lambda       -0.1242480E-03
   maximum displ.:     0.0671864 α      in ANC's #2, #6, #7, ...
 * RMSD in coord.:     1.1332906 α      energy gain  -0.3578852E-02 Eh

generating ANC from model Hessian ...
Using Lindh-Hessian (1995)
 Shifting diagonal of input Hessian by   1.009076139752312E-002
 Lowest  eigenvalues of input Hessian
    0.010000    0.010084   -0.000000   -0.000000   -0.000000    0.000000
    0.000000    0.000000    0.010177    0.010262    0.011067    0.014635
    0.015826    0.018159    0.030266    0.041018    0.053497    0.058515
 Highest eigenvalues
    1.147551    1.256057    1.290489    1.330625    1.496468    2.790681
 

........................................................................
.............................. CYCLE   43 ..............................
........................................................................
   1    -21.7479140 -0.217479E+02  0.166E-01    3.44       0.0  T
   2    -21.7479332 -0.191160E-04  0.105E-01    3.41       1.0  T
   3    -21.7479301  0.307342E-05  0.648E-02    3.44       1.0  T
   4    -21.7479517 -0.216637E-04  0.714E-03    3.42       4.0  T
   5    -21.7479520 -0.227137E-06  0.378E-03    3.42       7.6  T
   6    -21.7479520 -0.280629E-07  0.145E-03    3.42      19.9  T
   7    -21.7479520 -0.275759E-08  0.390E-04    3.42      74.1  T
   8    -21.7479520 -0.498041E-09  0.189E-04    3.42     152.7  T
     SCC iter.                  ...        0 min,  0.092 sec
     gradient                   ...        0 min,  0.001 sec
 * total energy  :   -21.5129652 Eh     change       -0.5446866E-04 Eh
   gradient norm :     0.0085872 Eh/α   predicted     0.0000000E+00 (-100.00%)
   displ. norm   :     0.0520640 α      lambda       -0.9971996E-04
   maximum displ.:     0.0406523 α      in ANC's #6, #2, #4, ...

........................................................................
.............................. CYCLE   44 ..............................
........................................................................
   1    -21.7498566 -0.217499E+02  0.596E-02    3.43       0.0  T
   2    -21.7498582 -0.159712E-05  0.367E-02    3.43       1.0  T
   3    -21.7498567  0.150158E-05  0.176E-02    3.43       1.6  T
   4    -21.7498590 -0.223021E-05  0.313E-03    3.43       9.2  T
   5    -21.7498590 -0.557069E-07  0.152E-03    3.43      18.9  T
   6    -21.7498590 -0.509966E-08  0.628E-04    3.43      46.0  T
     SCC iter.                  ...        0 min,  0.002 sec
     gradient                   ...        0 min,  0.001 sec
 * total energy  :   -21.5130342 Eh     change       -0.6901376E-04 Eh
   gradient norm :     0.0030797 Eh/α   predicted    -0.4999467E-04 ( -27.56%)
   displ. norm   :     0.1101637 α      lambda       -0.1083886E-03
   maximum displ.:     0.0637073 α      in ANC's #6, #7, #2, ...

........................................................................
.............................. CYCLE   45 ..............................
........................................................................
   1    -21.7517383 -0.217517E+02  0.112E-01    3.44       0.0  T
   2    -21.7517403 -0.199575E-05  0.688E-02    3.45       1.0  T
   3    -21.7517384  0.193377E-05  0.173E-02    3.44       1.7  T
   4    -21.7517413 -0.289441E-05  0.410E-03    3.45       7.0  T
   5    -21.7517413 -0.441217E-07  0.248E-03    3.45      11.6  T
   6    -21.7517413 -0.172199E-07  0.766E-04    3.45      37.7  T
   7    -21.7517413 -0.128607E-08  0.241E-04    3.45     119.8  T
     SCC iter.                  ...        0 min,  0.092 sec
     gradient                   ...        0 min,  0.001 sec
 * total energy  :   -21.5130782 Eh     change       -0.4398044E-04 Eh
   gradient norm :     0.0062735 Eh/α   predicted    -0.5485254E-04 (  24.72%)
   displ. norm   :     0.0991912 α      lambda       -0.8099107E-04
   maximum displ.:     0.0794836 α      in ANC's #6, #4, #2, ...

........................................................................
.............................. CYCLE   46 ..............................
........................................................................
   1    -21.7513580 -0.217514E+02  0.107E-01    3.44       0.0  T
   2    -21.7513590 -0.980003E-06  0.656E-02    3.44       1.0  T
   3    -21.7513585  0.467011E-06  0.105E-02    3.45       2.7  T
   4    -21.7513596 -0.107395E-05  0.335E-03    3.44       8.6  T
   5    -21.7513596 -0.155387E-07  0.176E-03    3.44      16.4  T
   6    -21.7513596 -0.692421E-08  0.366E-04    3.44      78.8  T
     SCC iter.                  ...        0 min,  0.003 sec
     gradient                   ...        0 min,  0.001 sec
 * total energy  :   -21.5131354 Eh     change       -0.5716126E-04 Eh
   gradient norm :     0.0061024 Eh/α   predicted    -0.4089325E-04 ( -28.46%)
   displ. norm   :     0.1590372 α      lambda       -0.9378607E-04
   maximum displ.:     0.1221717 α      in ANC's #6, #4, #7, ...

........................................................................
.............................. CYCLE   47 ..............................
........................................................................
   1    -21.7503612 -0.217504E+02  0.165E-01    3.44       0.0  T
   2    -21.7503634 -0.221248E-05  0.101E-01    3.43       1.0  T
   3    -21.7503574  0.608347E-05  0.264E-02    3.44       1.1  T
   4    -21.7503651 -0.774914E-05  0.473E-03    3.43       6.1  T
   5    -21.7503651 -0.192277E-07  0.247E-03    3.43      11.7  T
   6    -21.7503651 -0.163829E-07  0.549E-04    3.43      52.6  T
     SCC iter.                  ...        0 min,  0.092 sec
     gradient                   ...        0 min,  0.002 sec
 * total energy  :   -21.5132038 Eh     change       -0.6838853E-04 Eh
   gradient norm :     0.0040860 Eh/α   predicted    -0.4807801E-04 ( -29.70%)
   displ. norm   :     0.2167270 α      lambda       -0.8279840E-04
   maximum displ.:     0.1535795 α      in ANC's #6, #4, #7, ...

........................................................................
.............................. CYCLE   48 ..............................
........................................................................
   1    -21.7487585 -0.217488E+02  0.217E-01    3.44       0.0  T
   2    -21.7487623 -0.383327E-05  0.132E-01    3.43       1.0  T
   3    -21.7487511  0.112204E-04  0.356E-02    3.44       1.0  T
   4    -21.7487652 -0.140857E-04  0.624E-03    3.43       4.6  T
   5    -21.7487652 -0.293125E-07  0.276E-03    3.43      10.5  T
   6    -21.7487652 -0.134935E-07  0.955E-04    3.43      30.2  T
     SCC iter.                  ...        0 min,  0.002 sec
     gradient                   ...        0 min,  0.001 sec
 * total energy  :   -21.5132538 Eh     change       -0.5005281E-04 Eh
   gradient norm :     0.0050006 Eh/α   predicted    -0.4334149E-04 ( -13.41%)
   displ. norm   :     0.1083819 α      lambda       -0.5743511E-04
   maximum displ.:     0.0660072 α      in ANC's #6, #4, #7, ...

........................................................................
.............................. CYCLE   49 ..............................
........................................................................
   1    -21.7498585 -0.217499E+02  0.109E-01    3.44       0.0  T
   2    -21.7498610 -0.256251E-05  0.667E-02    3.43       1.0  T
   3    -21.7498535  0.751803E-05  0.321E-02    3.45       1.0  T
   4    -21.7498631 -0.958691E-05  0.381E-03    3.44       7.6  T
   5    -21.7498631 -0.185785E-07  0.191E-03    3.44      15.1  T
   6    -21.7498631 -0.510006E-08  0.747E-04    3.44      38.6  T
     SCC iter.                  ...        0 min,  0.092 sec
     gradient                   ...        0 min,  0.002 sec
 * total energy  :   -21.5132861 Eh     change       -0.3227168E-04 Eh
   gradient norm :     0.0057129 Eh/α   predicted    -0.2905666E-04 (  -9.96%)
   displ. norm   :     0.1507558 α      lambda       -0.7140513E-04
   maximum displ.:     0.0901563 α      in ANC's #4, #6, #8, ...

........................................................................
.............................. CYCLE   50 ..............................
........................................................................
   1    -21.7501826 -0.217502E+02  0.150E-01    3.45       0.0  T
   2    -21.7501854 -0.276983E-05  0.921E-02    3.44       1.0  T
   3    -21.7501791  0.626854E-05  0.275E-02    3.46       1.0  T
   4    -21.7501872 -0.805167E-05  0.538E-03    3.45       5.4  T
   5    -21.7501872 -0.303943E-07  0.212E-03    3.45      13.6  T
   6    -21.7501872 -0.290874E-08  0.669E-04    3.45      43.2  T
     SCC iter.                  ...        0 min,  0.003 sec
     gradient                   ...        0 min,  0.002 sec
 * total energy  :   -21.5133381 Eh     change       -0.5200173E-04 Eh
   gradient norm :     0.0043353 Eh/α   predicted    -0.3651335E-04 ( -29.78%)
   displ. norm   :     0.1733817 α      lambda       -0.6246011E-04
   maximum displ.:     0.1053791 α      in ANC's #4, #6, #8, ...

........................................................................
.............................. CYCLE   51 ..............................
........................................................................
   1    -21.7504300 -0.217504E+02  0.195E-01    3.45       0.0  T
   2    -21.7504332 -0.314929E-05  0.121E-01    3.45       1.0  T
   3    -21.7504348 -0.161751E-05  0.103E-02    3.45       2.8  T
   4    -21.7504351 -0.296734E-06  0.602E-03    3.45       4.8  T
   5    -21.7504351 -0.538144E-07  0.198E-03    3.45      14.6  T
   6    -21.7504352 -0.145627E-07  0.763E-04    3.45      37.9  T
     SCC iter.                  ...        0 min,  0.005 sec
     gradient                   ...        0 min,  0.003 sec
 * total energy  :   -21.5133869 Eh     change       -0.4879391E-04 Eh
   gradient norm :     0.0033082 Eh/α   predicted    -0.3216871E-04 ( -34.07%)
   displ. norm   :     0.2263594 α      lambda       -0.7259962E-04
   maximum displ.:     0.1510718 α      in ANC's #4, #6, #8, ...

........................................................................
.............................. CYCLE   52 ..............................
........................................................................
   1    -21.7510363 -0.217510E+02  0.267E-01    3.47       0.0  T
   2    -21.7510434 -0.703610E-05  0.168E-01    3.46       1.0  T
   3    -21.7510382  0.518629E-05  0.315E-02    3.48       1.0  T
   4    -21.7510485 -0.102850E-04  0.887E-03    3.46       3.3  T
   5    -21.7510485 -0.494626E-07  0.198E-03    3.47      14.6  T
   6    -21.7510485 -0.266636E-08  0.529E-04    3.47      54.5  T
   7    -21.7510485 -0.125729E-08  0.217E-04    3.47     133.0  T
     SCC iter.                  ...        0 min,  0.004 sec
     gradient                   ...        0 min,  0.002 sec
 * total energy  :   -21.5134423 Eh     change       -0.5543774E-04 Eh
   gradient norm :     0.0039482 Eh/α   predicted    -0.3816131E-04 ( -31.16%)
   displ. norm   :     0.2523065 α      lambda       -0.6552910E-04
   maximum displ.:     0.1715296 α      in ANC's #4, #6, #8, ...

........................................................................
.............................. CYCLE   53 ..............................
........................................................................
   1    -21.7502398 -0.217502E+02  0.283E-01    3.47       0.0  T
   2    -21.7502466 -0.674967E-05  0.177E-01    3.46       1.0  T
   3    -21.7502483 -0.166352E-05  0.201E-02    3.47       1.4  T
   4    -21.7502514 -0.310585E-05  0.933E-03    3.46       3.1  T
   5    -21.7502514 -0.831519E-07  0.158E-03    3.47      18.3  T
   6    -21.7502515 -0.129243E-07  0.528E-04    3.47      54.7  T
   7    -21.7502515 -0.103282E-08  0.205E-04    3.47     140.6  T
     SCC iter.                  ...        0 min,  0.094 sec
     gradient                   ...        0 min,  0.002 sec
 * total energy  :   -21.5134901 Eh     change       -0.4774631E-04 Eh
   gradient norm :     0.0048035 Eh/α   predicted    -0.3485102E-04 ( -27.01%)
   displ. norm   :     0.2146847 α      lambda       -0.9035085E-04
   maximum displ.:     0.1702240 α      in ANC's #4, #8, #2, ...

........................................................................
.............................. CYCLE   54 ..............................
........................................................................
   1    -21.7528159 -0.217528E+02  0.239E-01    3.50       0.0  T
   2    -21.7528252 -0.935602E-05  0.152E-01    3.48       1.0  T
   3    -21.7528070  0.182587E-04  0.496E-02    3.51       1.0  T
   4    -21.7528319 -0.249110E-04  0.771E-03    3.49       3.7  T
   5    -21.7528320 -0.687498E-07  0.378E-03    3.49       7.6  T
   6    -21.7528320 -0.149890E-07  0.133E-03    3.49      21.7  T
   7    -21.7528320 -0.557962E-08  0.268E-04    3.49     107.9  T
     SCC iter.                  ...        0 min,  0.095 sec
     gradient                   ...        0 min,  0.001 sec
 * total energy  :   -21.5135038 Eh     change       -0.1369678E-04 Eh
   gradient norm :     0.0075637 Eh/α   predicted    -0.4725597E-04 ( 245.02%)
   displ. norm   :     0.2270834 α      lambda       -0.1004408E-03
   maximum displ.:     0.1462906 α      in ANC's #4, #6, #7, ...

........................................................................
.............................. CYCLE   55 ..............................
........................................................................
   1    -21.7496485 -0.217496E+02  0.226E-01    3.48       0.0  T
   2    -21.7496525 -0.402347E-05  0.140E-01    3.48       1.0  T
   3    -21.7496542 -0.166265E-05  0.120E-02    3.48       2.4  T
   4    -21.7496547 -0.508400E-06  0.740E-03    3.48       3.9  T
   5    -21.7496549 -0.195962E-06  0.286E-03    3.48      10.1  T
   6    -21.7496549 -0.729369E-08  0.800E-04    3.48      36.1  T
     SCC iter.                  ...        0 min,  0.003 sec
     gradient                   ...        0 min,  0.002 sec
 * total energy  :   -21.5135413 Eh     change       -0.3752834E-04 Eh
   gradient norm :     0.0047952 Eh/α   predicted    -0.5281196E-04 (  40.73%)
   displ. norm   :     0.1060495 α      lambda       -0.4373139E-04
   maximum displ.:     0.0740539 α      in ANC's #4, #8, #6, ...

........................................................................
.............................. CYCLE   56 ..............................
........................................................................
   1    -21.7500798 -0.217501E+02  0.148E-01    3.47       0.0  T
   2    -21.7500835 -0.367425E-05  0.941E-02    3.47       1.0  T
   3    -21.7500750  0.852000E-05  0.332E-02    3.46       1.0  T
   4    -21.7500863 -0.112492E-04  0.462E-03    3.47       6.3  T
   5    -21.7500863 -0.256334E-07  0.239E-03    3.47      12.1  T
   6    -21.7500863 -0.100587E-07  0.802E-04    3.47      36.0  T
     SCC iter.                  ...        0 min,  0.204 sec
     gradient                   ...        0 min,  0.001 sec
 * total energy  :   -21.5135563 Eh     change       -0.1501425E-04 Eh
   gradient norm :     0.0021738 Eh/α   predicted    -0.2211126E-04 (  47.27%)
   displ. norm   :     0.0714365 α      lambda       -0.1344032E-04
   maximum displ.:     0.0586903 α      in ANC's #4, #8, #6, ...

........................................................................
.............................. CYCLE   57 ..............................
........................................................................
   1    -21.7505768 -0.217506E+02  0.711E-02    3.48       0.0  T
   2    -21.7505775 -0.735300E-06  0.449E-02    3.47       1.0  T
   3    -21.7505752  0.227897E-05  0.169E-02    3.48       1.7  T
   4    -21.7505781 -0.291630E-05  0.214E-03    3.48      13.5  T
   5    -21.7505781 -0.689184E-09  0.867E-04    3.48      33.3  T
   6    -21.7505781 -0.250115E-08  0.208E-04    3.48     138.8  T
     SCC iter.                  ...        0 min,  0.091 sec
     gradient                   ...        0 min,  0.003 sec
 * total energy  :   -21.5135669 Eh     change       -0.1062499E-04 Eh
   gradient norm :     0.0009900 Eh/α   predicted    -0.6754931E-05 ( -36.42%)
   displ. norm   :     0.1425736 α      lambda       -0.1321874E-04
   maximum displ.:     0.1176031 α      in ANC's #4, #6, #7, ...

........................................................................
.............................. CYCLE   58 ..............................
........................................................................
   1    -21.7507895 -0.217508E+02  0.117E-01    3.48       0.0  T
   2    -21.7507908 -0.123291E-05  0.728E-02    3.48       1.0  T
   3    -21.7507890  0.177559E-05  0.159E-02    3.49       1.8  T
   4    -21.7507917 -0.270616E-05  0.368E-03    3.48       7.9  T
   5    -21.7507917 -0.709783E-08  0.884E-04    3.48      32.6  T
   6    -21.7507917 -0.610992E-09  0.241E-04    3.48     119.6  T
     SCC iter.                  ...        0 min,  0.002 sec
     gradient                   ...        0 min,  0.001 sec
 * total energy  :   -21.5135826 Eh     change       -0.1570279E-04 Eh
   gradient norm :     0.0015960 Eh/α   predicted    -0.6670517E-05 ( -57.52%)
   displ. norm   :     0.1210427 α      lambda       -0.1156181E-04
   maximum displ.:     0.1043135 α      in ANC's #4, #6, #7, ...

........................................................................
.............................. CYCLE   59 ..............................
........................................................................
   1    -21.7508963 -0.217509E+02  0.831E-02    3.48       0.0  T
   2    -21.7508967 -0.435905E-06  0.513E-02    3.48       1.0  T
   3    -21.7508969 -0.116923E-06  0.507E-03    3.48       5.7  T
   4    -21.7508970 -0.179823E-06  0.256E-03    3.48      11.3  T
   5    -21.7508970 -0.892804E-08  0.406E-04    3.48      71.1  T
   6    -21.7508970 -0.250644E-09  0.154E-04    3.48     187.6  T
     SCC iter.                  ...        0 min,  0.002 sec
     gradient                   ...        0 min,  0.002 sec
 * total energy  :   -21.5135976 Eh     change       -0.1494124E-04 Eh
   gradient norm :     0.0012396 Eh/α   predicted    -0.5819257E-05 ( -61.05%)
   displ. norm   :     0.1809101 α      lambda       -0.1491512E-04
   maximum displ.:     0.1581812 α      in ANC's #4, #6, #7, ...

........................................................................
.............................. CYCLE   60 ..............................
........................................................................
   1    -21.7506504 -0.217507E+02  0.130E-01    3.48       0.0  T
   2    -21.7506515 -0.109236E-05  0.807E-02    3.48       1.0  T
   3    -21.7506521 -0.624132E-06  0.591E-03    3.48       4.9  T
   4    -21.7506522 -0.100319E-06  0.365E-03    3.48       7.9  T
   5    -21.7506522 -0.225871E-07  0.997E-04    3.48      29.0  T
   6    -21.7506522 -0.654794E-08  0.303E-04    3.48      95.3  T
     SCC iter.                  ...        0 min,  0.002 sec
     gradient                   ...        0 min,  0.092 sec
 * total energy  :   -21.5136158 Eh     change       -0.1823416E-04 Eh
   gradient norm :     0.0010674 Eh/α   predicted    -0.7566059E-05 ( -58.51%)
   displ. norm   :     0.1832917 α      lambda       -0.1413876E-04
   maximum displ.:     0.1705624 α      in ANC's #4, #6, #3, ...

........................................................................
.............................. CYCLE   61 ..............................
........................................................................
   1    -21.7509994 -0.217510E+02  0.124E-01    3.49       0.0  T
   2    -21.7510004 -0.101248E-05  0.764E-02    3.48       1.0  T
   3    -21.7509999  0.516205E-06  0.112E-02    3.49       2.6  T
   4    -21.7510011 -0.122392E-05  0.364E-03    3.49       7.9  T
   5    -21.7510011 -0.466134E-08  0.136E-03    3.49      21.2  T
   6    -21.7510011 -0.937079E-08  0.270E-04    3.49     106.9  T
   7    -21.7510011 -0.142169E-09  0.115E-04    3.49     250.3  T
     SCC iter.                  ...        0 min,  0.004 sec
     gradient                   ...        0 min,  0.003 sec
 * total energy  :   -21.5136311 Eh     change       -0.1528348E-04 Eh
   gradient norm :     0.0016734 Eh/α   predicted    -0.7174158E-05 ( -53.06%)
   displ. norm   :     0.3466852 α      lambda       -0.1876250E-04
   maximum displ.:     0.3127067 α      in ANC's #4, #6, #1, ...

........................................................................
.............................. CYCLE   62 ..............................
........................................................................
   1    -21.7503328 -0.217503E+02  0.253E-01    3.48       0.0  T
   2    -21.7503373 -0.448609E-05  0.158E-01    3.48       1.0  T
   3    -21.7503401 -0.280258E-05  0.106E-02    3.48       2.7  T
   4    -21.7503404 -0.235105E-06  0.624E-03    3.48       4.6  T
   5    -21.7503404 -0.400695E-07  0.119E-03    3.48      24.2  T
   6    -21.7503404 -0.459622E-08  0.520E-04    3.48      55.5  T
   7    -21.7503404 -0.177617E-08  0.210E-04    3.48     137.6  T
     SCC iter.                  ...        0 min,  0.005 sec
     gradient                   ...        0 min,  0.003 sec
 * total energy  :   -21.5136418 Eh     change       -0.1071790E-04 Eh
   gradient norm :     0.0022967 Eh/α   predicted    -0.9883472E-05 (  -7.79%)
   displ. norm   :     0.0262419 α      lambda       -0.1233491E-04
   maximum displ.:     0.0135163 α      in ANC's #6, #4, #5, ...

........................................................................
.............................. CYCLE   63 ..............................
........................................................................
   1    -21.7508243 -0.217508E+02  0.263E-02    3.48       0.0  T
   2    -21.7508244 -0.958065E-07  0.158E-02    3.48       1.8  T
   3    -21.7508244 -0.416401E-08  0.144E-03    3.48      20.0  T
[...]
   3    -21.7505723 -0.297371E-05  0.114E-02    3.48       2.5  T
   4    -21.7505726 -0.338785E-06  0.693E-03    3.49       4.2  T
   5    -21.7505728 -0.146974E-06  0.213E-03    3.48      13.6  T
   6    -21.7505728 -0.768567E-08  0.489E-04    3.48      59.0  T
   7    -21.7505728 -0.115065E-08  0.218E-04    3.48     132.3  T
     SCC iter.                  ...        0 min,  0.094 sec
     gradient                   ...        0 min,  0.002 sec
 * total energy  :   -21.5136600 Eh     change        0.1424354E-05 Eh
   gradient norm :     0.0028311 Eh/α   predicted    -0.6699062E-05 (-570.32%)
   displ. norm   :     0.1174219 α      lambda       -0.1784096E-04
   maximum displ.:     0.1083391 α      in ANC's #4, #6, #1, ...
 * RMSD in coord.:     0.8845870 α      energy gain  -0.7492314E-03 Eh

generating ANC from model Hessian ...
Using Lindh-Hessian (1995)
 Shifting diagonal of input Hessian by   1.009936654709771E-002
 Lowest  eigenvalues of input Hessian
    0.010000    0.010067   -0.000000   -0.000000   -0.000000    0.000000
    0.000000    0.000000    0.010216    0.010245    0.011153    0.014065
    0.016973    0.017914    0.032977    0.039988    0.048820    0.067416
 Highest eigenvalues
    1.154893    1.273070    1.294704    1.331809    1.488603    2.796962
 

........................................................................
.............................. CYCLE   67 ..............................
........................................................................
   1    -21.7509617 -0.217510E+02  0.915E-02    3.48       0.0  T
   2    -21.7509624 -0.694599E-06  0.573E-02    3.48       1.0  T
   3    -21.7509627 -0.258474E-06  0.520E-03    3.48       5.6  T
   4    -21.7509628 -0.178989E-06  0.259E-03    3.48      11.1  T
   5    -21.7509629 -0.118674E-07  0.106E-03    3.48      27.4  T
   6    -21.7509629 -0.273979E-08  0.322E-04    3.48      89.6  T
   7    -21.7509629 -0.551676E-09  0.824E-05    3.48     350.3  T
     SCC iter.                  ...        0 min,  0.004 sec
     gradient                   ...        0 min,  0.002 sec
 * total energy  :   -21.5136709 Eh     change       -0.1089645E-04 Eh
   gradient norm :     0.0009773 Eh/α   predicted     0.0000000E+00 (-100.00%)
   displ. norm   :     0.0302220 α      lambda       -0.5993729E-05
   maximum displ.:     0.0256628 α      in ANC's #1, #4, #5, ...

........................................................................
.............................. CYCLE   68 ..............................
........................................................................
   1    -21.7507308 -0.217507E+02  0.158E-02    3.48       0.0  T
   2    -21.7507308 -0.484943E-07  0.993E-03    3.48       2.9  T
   3    -21.7507307  0.113325E-06  0.393E-03    3.48       7.3  T
   4    -21.7507309 -0.149525E-06  0.564E-04    3.48      51.2  T
   5    -21.7507309 -0.419707E-09  0.321E-04    3.48      89.8  T
     SCC iter.                  ...        0 min,  0.093 sec
     gradient                   ...        0 min,  0.002 sec
 * total energy  :   -21.5136774 Eh     change       -0.6464477E-05 Eh
   gradient norm :     0.0003727 Eh/α   predicted    -0.2996869E-05 ( -53.64%)
   displ. norm   :     0.0397880 α      lambda       -0.4791916E-05
   maximum displ.:     0.0274252 α      in ANC's #1, #4, #5, ...

........................................................................
.............................. CYCLE   69 ..............................
........................................................................
   1    -21.7505632 -0.217506E+02  0.342E-02    3.48       0.0  T
   2    -21.7505633 -0.143307E-06  0.215E-02    3.48       1.3  T
   3    -21.7505634 -0.937053E-07  0.164E-03    3.48      17.6  T
   4    -21.7505634 -0.229211E-08  0.101E-03    3.48      28.7  T
   5    -21.7505634 -0.320685E-08  0.338E-04    3.48      85.3  T
   6    -21.7505634 -0.464514E-09  0.108E-04    3.48     266.7  T
     SCC iter.                  ...        0 min,  0.003 sec
     gradient                   ...        0 min,  0.092 sec
 * total energy  :   -21.5136803 Eh     change       -0.2989360E-05 Eh
   gradient norm :     0.0009551 Eh/α   predicted    -0.2398476E-05 ( -19.77%)
   displ. norm   :     0.0500347 α      lambda       -0.6064445E-05
   maximum displ.:     0.0299868 α      in ANC's #1, #4, #5, ...

   *** GEOMETRY OPTIMIZATION CONVERGED AFTER 69 ITERATIONS ***

------------------------------------------------------------------------
 total energy gain   :        -0.0238622 Eh      -14.9738 kcal/mol
 total RMSD          :         1.8952947 a0        1.0029 Å
 total power (kW/mol):        -0.9079741 (step)  -13.9359 (real)
------------------------------------------------------------------------

 ANCopt (total)                0 d,  0 h,  0 min,  4.496 sec
 optimizer setup                ...        0 min,  0.000 sec (  0.006%)
 model hessian                  ...        0 min,  0.009 sec (  0.197%)
 ANC generation                 ...        0 min,  0.002 sec (  0.037%)
 coordinate transformation      ...        0 min,  0.003 sec (  0.062%)
 single point calculation       ...        0 min,  4.179 sec ( 92.949%)
 optimization log               ...        0 min,  0.005 sec (  0.111%)
 hessian update                 ...        0 min,  0.278 sec (  6.185%)
 rational function              ...        0 min,  0.006 sec (  0.141%)

================
 final structure:
================
12
 xtb: 6.2.3 (830e466)
C         0.81472286696144    1.51097638307086   -2.21370205783939
C         0.71659278195632    0.87410359531307   -0.84654416704235
C         1.76407964101807    0.58570814319978   -0.14022260093900
O         0.84804883981948    2.91649953643257   -2.16647329494758
O         2.12079219212011    3.33932383523988   -1.67778433808435
O         2.70449751151073    0.27195131103333    0.46312975153393
H         1.95143204947825    4.25647105673982   -1.42595611001657
H         1.69680673090073    1.14088827075040   -2.74862687802610
H        -0.08746923155620    1.30396653850644   -2.79320967169092
H        -0.08184048575942   -2.17604606170444   -2.20118679700701
H         0.19649452564071   -1.51198852449648   -1.89959910160606
H        -0.25516742208049    0.82774591591957   -0.38563473435255
 
 Bond Distances (Angstroems)
 ---------------------------
C1-C2=1.5114         C1-O4=1.4067         C1-H8=1.0960         C1-H9=1.0921         C2-C1=1.5114         C2-C3=1.2959         
C2-H12=1.0765        C3-C2=1.2959         C3-O6=1.1605         O4-C1=1.4067         O4-O5=1.4274         O5-O4=1.4274         
O5-H7=0.9661         O6-C3=1.1605         H7-O5=0.9661         H8-C1=1.0960         H9-C1=1.0921         H10-H11=0.7806       
H11-H10=0.7806       H12-C2=1.0765        
 H  H  Rav=0.7806 sigma=0.0000  Rmin=0.7806  Rmax=0.7806     1
 C  H  Rav=1.0882 sigma=0.0084  Rmin=1.0765  Rmax=1.0960     3
 C  C  Rav=1.4036 sigma=0.1078  Rmin=1.2959  Rmax=1.5114     2
 O  H  Rav=0.9661 sigma=0.0000  Rmin=0.9661  Rmax=0.9661     1
 O  C  Rav=1.2836 sigma=0.1231  Rmin=1.1605  Rmax=1.4067     2
 O  O  Rav=1.4274 sigma=0.0000  Rmin=1.4274  Rmax=1.4274     1
 
 selected bond angles (degree)
 --------------------
O4-C1-C2=113.09                H8-C1-C2=110.58                H8-C1-O4=109.55                H9-C1-C2=110.27                
H9-C1-O4=103.11                H9-C1-H8=109.99                C3-C2-C1=122.30                H12-C2-C1=117.65               
H12-C2-C3=119.12               O6-C3-C2=176.90                O5-O4-C1=109.18                H7-O5-O4=102.37                
 
 selected dihedral angles (degree)
 ---------------------------------
C3-C2-C1-O4=271.82            C3-C2-C1-H8= 35.10            C3-C2-C1-H9=156.96            H12-C2-C1-O4= 80.68           
H12-C2-C1-H8=203.96           H12-C2-C1-H9=325.83           O6-C3-C2-C1=272.47            O6-C3-C2-H12=103.77           
O5-O4-C1-C2= 72.87            O5-O4-C1-H8=309.03            O5-O4-C1-H9=191.95            H7-O5-O4-C1=196.88            
 
 CMA Distance (Angstroems)
 ---------------------------
R(CMA):  3.9207
           -------------------------------------------------
          |                Final Singlepoint                |
           -------------------------------------------------

          ...................................................
          :                      SETUP                      :
          :.................................................:
          :  # basis functions                  30          :
          :  # atomic orbitals                  30          :
          :  # shells                           18          :
          :  # electrons                        36          :
          :  max. iterations                   100          :
          :  Hamiltonian                  GFN2-xTB          :
          :  restarted?                      false          :
          :  GBSA solvation                  false          :
          :  PC potential                    false          :
          :  electronic temp.          300.0000000     K    :
          :  accuracy                    1.0000000          :
          :  -> integral cutoff          0.2500000E+02      :
          :  -> integral neglect         0.1000000E-07      :
          :  -> SCF convergence          0.1000000E-05 Eh   :
          :  -> wf. convergence          0.1000000E-03 e    :
          :  Broyden damping             0.4000000          :
          ...................................................

 iter      E             dE          RMSdq      gap      omega  full diag
   1    -21.7505634 -0.217506E+02  0.325E-05    3.48       0.0  T
   2    -21.7505634 -0.264677E-11  0.217E-05    3.48    1328.6  T
   3    -21.7505634 -0.987654E-12  0.145E-05    3.48    1984.2  T

   *** convergence criteria satisfied after 3 iterations ***

         #    Occupation            Energy/Eh            Energy/eV
      -------------------------------------------------------------
         1        2.0000           -0.7525383             -20.4776
       ...           ...                  ...                  ...
        12        2.0000           -0.5341045             -14.5337
        13        2.0000           -0.5095612             -13.8659
        14        2.0000           -0.4953046             -13.4779
        15        2.0000           -0.4761057             -12.9555
        16        2.0000           -0.4692121             -12.7679
        17        2.0000           -0.4209584             -11.4549
        18        2.0000           -0.3927350             -10.6869 (HOMO)
        19                         -0.2648417              -7.2067 (LUMO)
        20                         -0.1804290              -4.9097
        21                         -0.1550987              -4.2205
        22                          0.0790583               2.1513
        23                          0.1011229               2.7517
       ...                                ...                  ...
        30                          1.1649394              31.6996
      -------------------------------------------------------------
                  HL-Gap            0.1278933 Eh            3.4802 eV
             Fermi-level           -0.3287883 Eh           -8.9468 eV

 SCC (total)                   0 d,  0 h,  0 min,  0.005 sec
 SCC setup                      ...        0 min,  0.000 sec (  4.757%)
 Dispersion                     ...        0 min,  0.000 sec (  0.920%)
 integral evaluation            ...        0 min,  0.001 sec ( 11.093%)
 zeroth order Hamiltonian       ...        0 min,  0.000 sec (  5.128%)
 iterations                     ...        0 min,  0.002 sec ( 34.464%)
 molecular gradient             ...        0 min,  0.001 sec ( 32.603%)
 printout                       ...        0 min,  0.000 sec (  6.602%)

         :::::::::::::::::::::::::::::::::::::::::::::::::::::
         ::                     SUMMARY                     ::
         :::::::::::::::::::::::::::::::::::::::::::::::::::::
         :: total energy             -21.513680355560 Eh    ::
         :: gradient norm              0.000954987364 Eh/a0 ::
         :: HOMO-LUMO gap              3.480153512307 eV    ::
         ::.................................................::
         :: SCC energy               -21.750563408299 Eh    ::
         :: -> isotropic ES            0.042035993509 Eh    ::
         :: -> anisotropic ES          0.003484664539 Eh    ::
         :: -> anisotropic XC          0.005695243389 Eh    ::
         :: -> dispersion             -0.005812834584 Eh    ::
         :: repulsion energy           0.236874607852 Eh    ::
         :: add. restraining           0.000000000000 Eh    ::
         :::::::::::::::::::::::::::::::::::::::::::::::::::::

           -------------------------------------------------
          |                Property Printout                |
           -------------------------------------------------

    * Orbital Energies and Occupations

         #    Occupation            Energy/Eh            Energy/eV
      -------------------------------------------------------------
         1        2.0000           -0.7525383             -20.4776
       ...           ...                  ...                  ...
         6        2.0000           -0.6186292             -16.8338
         7        2.0000           -0.5990929             -16.3021
         8        2.0000           -0.5842540             -15.8984
         9        2.0000           -0.5810690             -15.8117
        10        2.0000           -0.5709348             -15.5359
        11        2.0000           -0.5608029             -15.2602
        12        2.0000           -0.5341045             -14.5337
        13        2.0000           -0.5095612             -13.8659
        14        2.0000           -0.4953046             -13.4779
        15        2.0000           -0.4761057             -12.9555
        16        2.0000           -0.4692121             -12.7679
        17        2.0000           -0.4209584             -11.4549
        18        2.0000           -0.3927350             -10.6869 (HOMO)
        19                         -0.2648417              -7.2067 (LUMO)
        20                         -0.1804290              -4.9097
        21                         -0.1550987              -4.2205
        22                          0.0790583               2.1513
        23                          0.1011229               2.7517
        24                          0.1183728               3.2211
        25                          0.1306445               3.5550
        26                          0.1664988               4.5307
        27                          0.1711456               4.6571
        28                          0.2793083               7.6004
        29                          0.3715229              10.1097
        30                          1.1649394              31.6996
      -------------------------------------------------------------
                  HL-Gap            0.1278933 Eh            3.4802 eV
             Fermi-level           -0.3287883 Eh           -8.9468 eV

     #   Z        covCN         q      C6AA      α(0)
     1   6 C      3.684     0.102    19.090     6.256
     2   6 C      2.883    -0.144    31.692     9.229
     3   6 C      1.843     0.255    25.273     8.121
     4   8 O      1.777    -0.208    17.441     5.639
     5   8 O      1.734    -0.325    19.420     5.950
     6   8 O      0.856    -0.221    18.409     5.752
     7   1 H      0.805     0.322     0.658     1.274
     8   1 H      0.924     0.056     2.242     2.342
     9   1 H      0.924     0.075     2.029     2.228
    10   1 H      0.801    -0.001     3.134     2.781
    11   1 H      0.801    -0.004     3.178     2.801
    12   1 H      0.926     0.091     1.868     2.137

 Mol. C6AA /au·bohr⁶  :       1326.189495
 Mol. C8AA /au·bohr⁸  :      28265.351351
 Mol. α(0) /au        :         54.511087


Wiberg/Mayer (AO) data.
largest (>0.10) Wiberg bond orders for each atom
          total WBO             WBO to atom ...
     1  C   3.943        O    4 0.983    H    8 0.967    C    2 0.959    H    9 0.951
     2  C   3.905        C    3 1.752    C    1 0.959    H   12 0.913    O    6 0.249
     3  C   3.881        O    6 2.028    C    2 1.752
     4  O   2.033        C    1 0.983    O    5 0.972
     5  O   1.907        O    4 0.972    H    7 0.890
     6  O   2.374        C    3 2.028    C    2 0.249
     7  H   0.896        O    5 0.890
     8  H   0.997        C    1 0.967
     9  H   0.994        C    1 0.951
    10  H   1.000        H   11 0.994
    11  H   1.000        H   10 0.994
    12  H   0.992        C    2 0.913

molecular dipole:
                 x           y           z       tot (Debye)
 q only:       -0.639       0.084      -0.185
   full:       -0.749       0.249      -0.172       2.052
molecular quadrupole (traceless):
                xx          xy          yy          xz          yz          zz
 q only:       -5.548       0.437       4.826      -0.162       2.130       0.722
  q+dip:       -6.834       0.647       6.531      -0.395       2.395       0.303
   full:       -7.234       1.184       7.037      -1.054       2.403       0.197

           -------------------------------------------------
          |                Geometry Summary                 |
           -------------------------------------------------

      molecular mass/u    :       90.0780670
   center of mass at/Å    :        1.4853514       1.5985401      -1.1554554
  moments of inertia/u·Å² :        0.9637542E+02   0.2271944E+03   0.3016605E+03
rotational constants/cm⁻¹ :        0.1749163E+00   0.7419916E-01   0.5588280E-01

 * 9 selected distances

     #   Z        #   Z                                     value/Å
     2   6 C      3   6 C                                 1.2958745
     1   6 C      4   8 O                                 1.4067112
     4   8 O      5   8 O                                 1.4274008 (max)
     3   6 C      6   8 O                                 1.1605443
     5   8 O      7   1 H                                 0.9660535
     1   6 C      8   1 H                                 1.0959844
     1   6 C      9   1 H                                 1.0920773
    10   1 H     11   1 H                                 0.7806394 (min)
     2   6 C     12   1 H                                 1.0765242

 * 6 distinct bonds (by element types)

   Z      Z             #   av. dist./Å        max./Å        min./Å
   1 H    1 H           1     0.7806394     0.7806394     0.7806394
   1 H    6 C           3     1.0881953     1.0959844     1.0765242
   6 C    6 C           1     1.2958745     1.2958745     1.2958745
   1 H    8 O           1     0.9660535     0.9660535     0.9660535
   6 C    8 O           2     1.2836278     1.4067112     1.1605443
   8 O    8 O           1     1.4274008     1.4274008     1.4274008


optimized geometry written to: xtbopt.xyz


           -------------------------------------------------
          | TOTAL ENERGY              -21.513680355560 Eh   |
          | GRADIENT NORM               0.000954987364 Eh/α |
          | HOMO-LUMO GAP               3.480153512307 eV   |
           -------------------------------------------------

------------------------------------------------------------------------
 * finished run on 2020/12/23 at 21:42:01.265     
------------------------------------------------------------------------
 total:
 * wall-time:     0 d,  0 h,  0 min,  4.873 sec
 *  cpu-time:     0 d,  0 h,  0 min, 19.808 sec
 * ratio c/w:     4.065 speedup
 SCF:
 * wall-time:     0 d,  0 h,  0 min,  0.099 sec
 *  cpu-time:     0 d,  0 h,  0 min,  0.377 sec
 * ratio c/w:     3.805 speedup
 ANC optimizer:
 * wall-time:     0 d,  0 h,  0 min,  4.504 sec
 *  cpu-time:     0 d,  0 h,  0 min, 18.165 sec
 * ratio c/w:     4.033 speedup

