12
 energy: -21.582266842277 gnorm: 0.160023624345 xtb: 6.2.3 (830e466)
C         1.21838000000000   -0.23520000000000   -2.29096000000000
C         0.57500000000000    0.62488000000000   -1.20713000000000
C         1.56652000000000    1.61252000000000   -0.63958000000000
O         1.37253000000000    2.95170000000000   -0.71434000000000
O         0.34166000000000    3.47387000000000   -1.29655000000000
O         2.57068000000000    1.19510000000000   -0.08517000000000
H         0.71373000000000    3.95898000000000   -2.07641000000000
H         2.07899000000000   -0.80409000000000   -1.87858000000000
H         1.57051000000000    0.40405000000000   -3.12865000000000
H         0.47296000000000   -0.95861000000000   -2.68363000000000
H        -0.30028000000000    1.14578000000000   -1.64768000000000
H         0.20833000000000   -0.02938000000000   -0.38715000000000
12
 energy: -21.595036965018 gnorm: 0.059031976700 xtb: 6.2.3 (830e466)
C         1.21558309703726   -0.22950882303503   -2.29170202454856
C         0.56410450139706    0.63907861982039   -1.21725605546412
C         1.58278906517047    1.58558935418255   -0.62429563236923
O         1.40330474586903    2.92557280770472   -0.69184103837013
O         0.31944556677146    3.43971645794591   -1.33254975558715
O         2.57918308926699    1.19149367810910   -0.07846204278645
H         0.68628360477970    3.96094341587487   -2.07858580668818
H         2.06422881755794   -0.78236439182960   -1.88330925468223
H         1.57343189174996    0.38313261374555   -3.12291077335057
H         0.48953469182923   -0.94629884832880   -2.68176852485816
H        -0.29976063915232    1.17399494069584   -1.63313582031789
H         0.21088156772323   -0.00174982488549   -0.40001327097734
12
 energy: -21.597859342611 gnorm: 0.014213154970 xtb: 6.2.3 (830e466)
C         1.21058082936412   -0.22435148185162   -2.29713869539990
C         0.56438879080803    0.64726277447724   -1.22059371544083
C         1.60014607725978    1.56623506820069   -0.61657209486031
O         1.41620576861571    2.90700337343410   -0.68004818973967
O         0.29630998684346    3.38424066142019   -1.37572859115123
O         2.59190907421751    1.19908363554072   -0.06143631510063
H         0.67357338955723    3.95923115005371   -2.06912962010446
H         2.05236527111534   -0.76634115562589   -1.87882081332966
H         1.56769821674318    0.38407359716240   -3.12331151377617
H         0.48639499995990   -0.93646069742812   -2.67955518375229
H        -0.27854898045980    1.20794791700264   -1.62476544402136
H         0.20798657597554    0.01167515761396   -0.40872982332349
12
 energy: -21.598143606819 gnorm: 0.007614481324 xtb: 6.2.3 (830e466)
C         1.20972776610100   -0.22353872169817   -2.29712017817226
C         0.56491039216741    0.64786480401323   -1.21781348986502
C         1.60102295697136    1.55913337877166   -0.60885814461435
O         1.42191038969967    2.90242068979792   -0.68702907948305
O         0.28956520726884    3.36566077065493   -1.39397088590338
O         2.59885178503396    1.20103799545596   -0.05672094041670
H         0.66712522593889    3.96901612868945   -2.06002340090108
H         2.05305391883764   -0.76521563336688   -1.87950587782945
H         1.56546148515609    0.38568993492164   -3.12410958871701
H         0.48536557178998   -0.93611471238056   -2.67966783446160
H        -0.26785612476728    1.22251288238671   -1.62068137122772
H         0.19987142580244    0.01113248275411   -0.41032920840839
12
 energy: -21.598308668685 gnorm: 0.009086403049 xtb: 6.2.3 (830e466)
C         1.21001977319380   -0.22632691974166   -2.29495723569540
C         0.56481444688336    0.64560564354447   -1.21585327081785
C         1.60339854906982    1.55340898400189   -0.61331343044321
O         1.42838594326540    2.89940356183636   -0.70208903926600
O         0.28682782856179    3.35621421768962   -1.40742519794108
O         2.59913339019112    1.20131048162447   -0.05170873420883
H         0.66071866724895    3.99758003359171   -2.03988811607110
H         2.05679564828272   -0.76592198953336   -1.87872324365424
H         1.56253942778674    0.38376962622871   -3.12395665567143
H         0.48611004979073   -0.94152550712603   -2.67582226937910
H        -0.26118483793995    1.22693959943250   -1.62123137261688
H         0.19145111366551    0.00914226845133   -0.41086143423488
12
 energy: -21.598537012958 gnorm: 0.010921995770 xtb: 6.2.3 (830e466)
C         1.21110374529011   -0.23134671548714   -2.29062919135350
C         0.56262617914612    0.64108788217222   -1.21314628789760
C         1.60116388785531    1.54491035401299   -0.61526237515774
O         1.44604486386763    2.89579528272667   -0.73703589703603
O         0.28978354473151    3.35124874336407   -1.42342688284463
O         2.59643128117154    1.19897791755864   -0.04777937239558
H         0.64589317070123    4.04708231480047   -2.00363916289592
H         2.06376001374862   -0.76528434969807   -1.87540911939033
H         1.55822097157752    0.37982765390965   -3.12269421702229
H         0.49138990999830   -0.95362487266983   -2.66928391064963
H        -0.25615600869438    1.22698957877760   -1.62495630904488
H         0.17874844060649    0.00393621053274   -0.41256727431188
12
 energy: -21.598706970004 gnorm: 0.015415859234 xtb: 6.2.3 (830e466)
C         1.21225657307999   -0.23862593898316   -2.28783242749016
C         0.56096748800748    0.63695834243420   -1.21427824794839
C         1.60172287112285    1.54056899477536   -0.62461280653803
O         1.45841287534369    2.89218953592749   -0.76909302773545
O         0.29454905948152    3.34830983344845   -1.43895088399919
O         2.58824551299833    1.19761049149936   -0.04044793932321
H         0.63607073385838    4.10300911230858   -1.96076343516313
H         2.06889230799706   -0.76545953648806   -1.87162735744187
H         1.55393087161705    0.37005471783080   -3.12395824236517
H         0.49612399164104   -0.96746645043341   -2.66056063689677
H        -0.25772628146411    1.22010379004619   -1.63087392679192
H         0.17556399631671    0.00234710763420   -0.41283106830671
12
 energy: -21.598899522637 gnorm: 0.010645909768 xtb: 6.2.3 (830e466)
C         1.21414712043701   -0.24430666649345   -2.28527768356525
C         0.55734841094451    0.63391352720251   -1.21651996127266
C         1.60156022495242    1.53883917953724   -0.63467857366303
O         1.48268780598659    2.88899310343282   -0.81629907602374
O         0.30958611102690    3.35496341276693   -1.44866188253609
O         2.57173739772234    1.19279743860464   -0.02624824634746
H         0.61470270087771    4.14585288393096   -1.91113466650264
H         2.07457792901567   -0.76190423975770   -1.86707441929457
H         1.54987143891233    0.36108503985344   -3.12529700526133
H         0.50353485429072   -0.98101461379313   -2.65141344384063
H        -0.26529124619183    1.20919224172792   -1.63970825560324
H         0.17454725202562    0.00118869298784   -0.41351678608935
12
 energy: -21.598974204788 gnorm: 0.018683059030 xtb: 6.2.3 (830e466)
C         1.21404940300134   -0.25164815893681   -2.28537416880539
C         0.55754531369052    0.63045890880370   -1.21918598454134
C         1.59955452255792    1.54007305717551   -0.63700171171926
O         1.48926846198326    2.88462113745934   -0.84450601969482
O         0.31505176369267    3.34526731327382   -1.47651282375919
O         2.56335697224125    1.19653961134837   -0.01906502334021
H         0.61121459345015    4.20017545098592   -1.86127466876717
H         2.07482050275359   -0.76387994073952   -1.86393641640840
H         1.54674062902915    0.34925279349974   -3.12852515835358
H         0.50492095805421   -0.99180143447920   -2.64501262121334
H        -0.26873486365609    1.20067998792213   -1.64284388763531
H         0.18122174320203   -0.00013872631300   -0.41259151576198
12
 energy: -21.599145156591 gnorm: 0.007206903610 xtb: 6.2.3 (830e466)
C         1.21238393567480   -0.24673361351379   -2.28900165238167
C         0.56022482432038    0.63327155665825   -1.21902620870768
C         1.59910340707328    1.54651692786721   -0.62932744199537
O         1.47309791369336    2.88635194689512   -0.81526076266641
O         0.30990115761367    3.34125336779309   -1.47521039661175
O         2.56943307826903    1.20163085141813   -0.02401492182758
H         0.62618036857614    4.16199660063164   -1.88813281092592
H         2.06870471708801   -0.76569758582313   -1.86810848004471
H         1.54985205002136    0.35520532364579   -3.12894514422508
H         0.49863301363749   -0.97991717682026   -2.65234314332316
H        -0.26810289540893    1.20442582804636   -1.63575813011003
H         0.18959842944142    0.00129597320160   -0.41070090718065
12
 energy: -21.599231732019 gnorm: 0.004928356401 xtb: 6.2.3 (830e466)
C         1.21218242764557   -0.24715543780737   -2.28884733823389
C         0.55984948740811    0.63117288125020   -1.21773536491230
C         1.59965945416888    1.54752597156377   -0.63085357566240
O         1.47508321191144    2.88474734741429   -0.82200364172664
O         0.31312396556799    3.33769814606316   -1.48904568094628
O         2.56718926151320    1.20226483378948   -0.01881331630863
H         0.62350936462728    4.17243125309841   -1.87592664369422
H         2.06889009820338   -0.76705737839579   -1.86927134438420
H         1.54933064914550    0.35609094070320   -3.12814433979760
H         0.49762319788887   -0.97928287090919   -2.65318697667543
H        -0.26861168005778    1.20235499322491   -1.63361006847747
H         0.19118056197756   -0.00119067999507   -0.40839170918093
12
 energy: -21.599343157279 gnorm: 0.017330851247 xtb: 6.2.3 (830e466)
C         1.21135327622503   -0.24830284395470   -2.28676982212981
C         0.55675381034494    0.62124056141186   -1.21046485901840
C         1.59706995169494    1.54880768568360   -0.63309250580556
O         1.48818038350253    2.87648714733651   -0.85968034813837
O         0.33235713179913    3.32215671077621   -1.55533300887814
O         2.55589680078797    1.20359933356362   -0.00264141228980
H         0.60959035651384    4.22806285757828   -1.81559682435465
H         2.06957206442307   -0.77106582240749   -1.87154385825488
H         1.54773926062249    0.36203812236753   -3.12205819614376
H         0.49698436605828   -0.97876308601845   -2.65717231482283
H        -0.27434214120536    1.18985924350799   -1.62266348972973
H         0.19785473923312   -0.01451990984494   -0.39881336043406
12
 energy: -21.599463396865 gnorm: 0.006118728190 xtb: 6.2.3 (830e466)
C         1.21128078566995   -0.24475512703840   -2.28658095703217
C         0.55649707910389    0.62272998699201   -1.20894733340422
C         1.59713324265194    1.54740622967815   -0.63109399648191
O         1.48554295469657    2.87819847444649   -0.84734005515550
O         0.33194167602186    3.32670849130170   -1.54364799118058
O         2.55975719885215    1.20131626935155   -0.00729513545424
H         0.60981515474851    4.20583202737592   -1.83861367294599
H         2.06850361293224   -0.77025363153444   -1.87190153001877
H         1.55020314096320    0.36805980257949   -3.11953088331108
H         0.49694071479500   -0.97360222514058   -2.66116994695243
H        -0.27445121046656    1.19225682903339   -1.62061972534196
H         0.19584565003124   -0.01429712704526   -0.39908877272116
12
 energy: -21.599538834324 gnorm: 0.006132314830 xtb: 6.2.3 (830e466)
C         1.21063716022559   -0.24351507487439   -2.28649953557593
C         0.55611772577707    0.62083367164331   -1.20629707840195
C         1.59634910236161    1.54674579410070   -0.63091107352967
O         1.48823354674766    2.87559203625149   -0.85646346562728
O         0.34000957994368    3.32088682261532   -1.56420334778058
O         2.55595072875822    1.20239974828227   -0.00143482971744
H         0.60585404128724    4.21623445794001   -1.82411597076197
H         2.06746430741465   -0.77042333143834   -1.87315786631287
H         1.54987222139229    0.37189992548696   -3.11729855835505
H         0.49659181555451   -0.97120300197887   -2.66364214101666
H        -0.27787429512652    1.18798910738899   -1.61567357693859
H         0.19980406566398   -0.01784015541746   -0.39613255598203
12
 energy: -21.599268080407 gnorm: 0.027719990136 xtb: 6.2.3 (830e466)
C         1.20724849113146   -0.23654513384420   -2.28740078753645
C         0.55550215305386    0.61165470441816   -1.19226965785955
C         1.59267717786297    1.54252733013248   -0.62708065502902
O         1.50218051435784    2.86427665725848   -0.90055336727384
O         0.38231506308593    3.29100018303364   -1.66611757531084
O         2.53617106977943    1.20980407679924    0.03313939133908
H         0.58377037369094    4.26014391253721   -1.75710822952561
H         2.06313310434711   -0.77080137178298   -1.88268251807377
H         1.54624288949584    0.39238419647762   -3.10779712209242
H         0.49283512009012   -0.95738348672156   -2.67584232004296
H        -0.29181005247932    1.16965437817478   -1.58977061473727
H         0.21874409558382   -0.03711544648288   -0.38234654385735
12
 energy: -21.599667845212 gnorm: 0.003550243528 xtb: 6.2.3 (830e466)
C         1.20870674051050   -0.23865797356666   -2.28814440896241
C         0.55694562268663    0.61821748862985   -1.20010253509140
C         1.59458749431827    1.54457304708555   -0.62708230350633
O         1.48963559001929    2.87185283228178   -0.86671555116378
O         0.35769594336160    3.30836745194893   -1.60239618241566
O         2.54818740680606    1.20700375449144    0.01343409801688
H         0.60119858738938    4.22220341209702   -1.80853346322808
H         2.06450754713542   -0.76945045033827   -1.87926560610709
H         1.54782158559922    0.38299725786824   -3.11369443644326
H         0.49401444279966   -0.96228472780654   -2.67027722170532
H        -0.28460294501005    1.18044092534994   -1.60257668716325
H         0.21031198438400   -0.02566301804127   -0.39047570223032
12
 energy: -21.599714947544 gnorm: 0.002620064063 xtb: 6.2.3 (830e466)
C         1.20793043145182   -0.23690277477624   -2.28906504889805
C         0.55755722314360    0.61674691181122   -1.19731075851054
C         1.59426125995708    1.54356023541663   -0.62483128377756
O         1.49134744703022    2.87078617688668   -0.87169657828626
O         0.36553498608027    3.30268986357671   -1.61880871964967
O         2.54463578846752    1.20929628590051    0.02213041920857
H         0.59729857045909    4.22532939375357   -1.80194327745872
H         2.06419523302936   -0.76926510712148   -1.88297987358857
H         1.54587122862001    0.38737506757137   -3.11316065089585
H         0.49226187398243   -0.95904006444947   -2.67225780994078
H        -0.28531825684151    1.17877561914141   -1.59732988822082
H         0.21343421462011   -0.02975160771090   -0.38857652998174
12
 energy: -21.599667663042 gnorm: 0.017125882165 xtb: 6.2.3 (830e466)
C         1.20334374330689   -0.22619265231476   -2.29448523522843
C         0.56072631112457    0.60889030024628   -1.18245784112977
C         1.59224119896517    1.53978739240146   -0.61098400473536
O         1.49973792572314    2.86452617706729   -0.89552165160351
O         0.40931264389903    3.27119761044455   -1.70919212327043
O         2.52437496276903    1.22139216809258    0.07000050264293
H         0.57783787883156    4.23795083591885   -1.76921952474262
H         2.06234510327181   -0.76691666775437   -1.90450239034812
H         1.53404610136534    0.41257253339002   -3.11053154695162
H         0.48283710496775   -0.94076391450205   -2.68333017515032
H        -0.29030819461212    1.16890282788668   -1.56773786296859
H         0.23251522038783   -0.05174661087653   -0.37786814651419
12
 energy: -21.599798168902 gnorm: 0.001425149200 xtb: 6.2.3 (830e466)
C         1.20571286119590   -0.23125809308464   -2.29207105771384
C         0.55928976478349    0.61324564602023   -1.19037760105281
C         1.59330516919502    1.54166214994709   -0.61732979769416
O         1.49452416054698    2.86847638203636   -0.87988490764892
O         0.38573955088673    3.28897257367607   -1.65660825095246
O         2.53495013508848    1.21494350349736    0.04545569845549
H         0.58953597026630    4.22617702575955   -1.79351512795319
H         2.06399689952408   -0.76697709528269   -1.89439121799914
H         1.53908758307087    0.39994870858311   -3.11272351711420
H         0.48774940433245   -0.95024486302029   -2.67712266082359
H        -0.28705793891143    1.17486663508109   -1.58321503246257
H         0.22217644002113   -0.04021257321323   -0.38404652704061
12
 energy: -21.599834465500 gnorm: 0.002312084341 xtb: 6.2.3 (830e466)
C         1.20416236988566   -0.22710265973985   -2.29414818094951
C         0.56021613582033    0.61099456771247   -1.18597861430552
C         1.59257610469302    1.54081802309813   -0.61196653924456
O         1.49701653875272    2.86655740368876   -0.88481972009908
O         0.39947748402933    3.27975793378276   -1.68124934971736
O         2.52794617344354    1.21811139393841    0.06144409781563
H         0.58487800278418    4.22576773781561   -1.78901364948593
H         2.06441572144214   -0.76414051985673   -1.90232598272128
H         1.53349240343728    0.40856061527415   -3.11297991906785
H         0.48528591368527   -0.94493282981137   -2.67982845152070
H        -0.28860275237921    1.17216626360941   -1.57384570613935
H         0.22814590440575   -0.04695792951175   -0.38111798456449
12
 energy: -21.599867356736 gnorm: 0.004502452999 xtb: 6.2.3 (830e466)
C         1.20176105934400   -0.21953734485824   -2.29722267604926
C         0.56090043875383    0.60724138168178   -1.17872400217220
C         1.59077199738666    1.53922583772970   -0.60323406070888
O         1.50243682625521    2.86277490721959   -0.89336389656496
O         0.42174827975514    3.26627819549291   -1.71742108075389
O         2.51566797996132    1.22140991402087    0.08693912703844
H         0.57857459334297    4.22307470663697   -1.78553724049567
H         2.06654556911227   -0.75662352606359   -1.91523407646041
H         1.52289800601305    0.42375856426485   -3.11339437534625
H         0.48294856929377   -0.93722592213138   -2.68350728072833
H        -0.29224789153996    1.16726396707822   -1.55863701392284
H         0.23700457232173   -0.05804068107169   -0.37649342383575
12
 energy: -21.599885201484 gnorm: 0.001686925537 xtb: 6.2.3 (830e466)
C         1.20132104921053   -0.21753383660928   -2.29758472334143
C         0.56065839695928    0.60703217370677   -1.17760295020932
C         1.58988229828720    1.53929690916999   -0.60103027995946
O         1.50489871350709    2.86127447781779   -0.89491975966688
O         0.42473445311992    3.26410960392923   -1.71930200246387
O         2.51349296933697    1.22151256353762    0.09012053568545
H         0.57860525959645    4.21889178170949   -1.78823016748565
H         2.06761487282366   -0.75317151097771   -1.91750443930829
H         1.51989335638637    0.42697245000869   -3.11362192834578
H         0.48336998510064   -0.93622902455774   -2.68346386022044
H        -0.29303661413408    1.16676723393293   -1.55651436559306
H         0.23757525980597   -0.05932282166779   -0.37617605909126
12
 energy: -21.599898761766 gnorm: 0.002728392317 xtb: 6.2.3 (830e466)
C         1.20017618792244   -0.21264562411025   -2.29876151473789
C         0.55979983247584    0.60566661741698   -1.17441193305185
C         1.58929745643207    1.53853792722197   -0.59813632044163
O         1.50997367583912    2.85760495795419   -0.89884423190861
O         0.43318709123262    3.25911649952028   -1.72732254336957
O         2.50664414546614    1.22154781635978    0.10148243230448
H         0.57915291277998    4.21210082235165   -1.79364303766446
H         2.07110232437792   -0.74425331490777   -1.92403811852639
H         1.51114237697765    0.43539833238611   -3.11483637221029
H         0.48442388189605   -0.93442020480777   -2.68286372014205
H        -0.29583934059723    1.16462524988990   -1.54998044914295
H         0.23994945519741   -0.06367907927508   -0.37447419110878
12
 energy: -21.599909244790 gnorm: 0.002717189692 xtb: 6.2.3 (830e466)
C         1.19938161419344   -0.20961507257293   -2.29968150965296
C         0.55926695863461    0.60443702918096   -1.17197474256201
C         1.58747786504099    1.53814665207632   -0.59438995360939
O         1.51260283489876    2.85558636185238   -0.90177548440001
O         0.43804820034100    3.25609626959563   -1.73356540565452
O         2.50296179856069    1.22148509647204    0.10805005525165
H         0.58085757604230    4.20979314221163   -1.79740828837582
H         2.07312555417943   -0.73900853364706   -1.92825220669199
H         1.50588191254504    0.44095633782822   -3.11548517317059
H         0.48521504162666   -0.93331959416851   -2.68320766775888
H        -0.29802952363331    1.16273489260753   -1.54481653701226
H         0.24222016757039   -0.06769258143623   -0.37332308636320
12
 energy: -21.599935617406 gnorm: 0.001551915545 xtb: 6.2.3 (830e466)
C         1.19743672207567   -0.20310233153706   -2.30198553806369
C         0.55837888834570    0.60157515120098   -1.16657824149271
C         1.58450768359828    1.53699765812205   -0.58762618205869
O         1.51859766861924    2.85130557884001   -0.90916261511463
O         0.45020949253296    3.24897862116411   -1.75047853701377
O         2.49310594410587    1.22196029737353    0.12519249448920
H         0.58357402163501    4.20638114850702   -1.80271749903935
H         2.07752821782484   -0.72757786392562   -1.93800699034745
H         1.49366859247589    0.45281045373680   -3.11746545883492
H         0.48651666605339   -0.93118950943570   -2.68351383478826
H        -0.30284023270878    1.15844350319574   -1.53285171702489
H         0.24832633544195   -0.07698270724187   -0.37063588071082
12
 energy: -21.599971000003 gnorm: 0.007337296744 xtb: 6.2.3 (830e466)
C         1.19069567882666   -0.17962714787283   -2.30974475616053
C         0.55557189265715    0.59176181223072   -1.14741611168229
C         1.57542649566299    1.53235303227476   -0.56532686444264
O         1.53848800117115    2.83639805987954   -0.93400817122846
O         0.49211105115653    3.22247821074204   -1.80962737984380
O         2.45891710290544    1.22485924379867    0.18441805054472
H         0.59326414318664    4.19065864041919   -1.82206685554038
H         2.09158261413123   -0.68858322589848   -1.97193409498110
H         1.45266301184942    0.49541223009358   -3.12260598526326
H         0.48984111874068   -0.92074937297944   -2.68564427022342
H        -0.31918341079588    1.14337129262418   -1.49102593176128
H         0.26963230050802   -0.10873277531194   -0.36084762941754
12
 energy: -21.600001258102 gnorm: 0.004928875154 xtb: 6.2.3 (830e466)
C         1.19023146329557   -0.17702362203778   -2.30999157613682
C         0.55535198281675    0.59110097029340   -1.14569277315399
C         1.57492189685296    1.53164828291239   -0.56374900773988
O         1.53868370402374    2.83510444952546   -0.93404187892375
O         0.49135820354744    3.21983232027107   -1.80842361895953
O         2.45779774153315    1.22556881246718    0.18602934330095
H         0.59727258867350    4.18569958412994   -1.82978487679017
H         2.09121052319547   -0.68595275032498   -1.97372742609067
H         1.45160916113070    0.49999327015029   -3.12078469702166
H         0.48991442751328   -0.91750418455043   -2.68767697787714
H        -0.32023272176073    1.14208691640526   -1.48766246753612
H         0.27089102917820   -0.11095404924182   -0.36032404307120
12
 energy: -21.600049385849 gnorm: 0.000975888195 xtb: 6.2.3 (830e466)
C         1.18868889831813   -0.16997703850531   -2.31110270174447
C         0.55561661175433    0.58895070888704   -1.14069521936783
C         1.57448378420505    1.52970670847388   -0.55943962922867
O         1.53777979633331    2.83180874675024   -0.93249741713972
O         0.49287259331081    3.21110811196352   -1.81116255938695
O         2.45427504907094    1.22893972490698    0.19381225222653
H         0.60607556952706    4.17246596520886   -1.84905009885125
H         2.08983769901882   -0.68033439338953   -1.98041752241093
H         1.44808097931216    0.51325465902605   -3.11604375738788
H         0.48830540789132   -0.90730007475318   -2.69386197386817
H        -0.32279586748815    1.13804591327434   -1.47716128962109
H         0.27578947874628   -0.11706903184288   -0.35821008321954
12
 energy: -21.600097775598 gnorm: 0.003436497718 xtb: 6.2.3 (830e466)
C         1.18557136686387   -0.15709664118420   -2.31418126930509
C         0.55617374604537    0.58383259551986   -1.13041035702209
C         1.57239030393540    1.52671937580121   -0.54945788615667
O         1.53836300591509    2.82591215045349   -0.93358961594354
O         0.50159753605647    3.19565934678166   -1.82547974787896
O         2.44460263677469    1.23482205072171    0.21481835155253
H         0.61906700366431    4.15305722163256   -1.87918521377478
H         2.08938927138592   -0.66968016534687   -1.99578465875591
H         1.43848833510200    0.53824543470392   -3.11033290518668
H         0.48492109448541   -0.89031043422180   -2.70391412025658
H        -0.32840470993283    1.12994838945688   -1.45530570866266
H         0.28685040970436   -0.13150932431843   -0.35300686860953
12
 energy: -21.600132110879 gnorm: 0.003572099175 xtb: 6.2.3 (830e466)
C         1.18340115870719   -0.14922472207651   -2.31641818264890
C         0.55698371700554    0.58038077192878   -1.12387060488295
C         1.57080234235527    1.52529551693665   -0.54248812026162
O         1.53895493270705    2.82255714195443   -0.93497684749101
O         0.50837592002824    3.18575835075069   -1.83689580212917
O         2.43794299361185    1.23865949884833    0.22967618054061
H         0.62595923034703    4.14252678597885   -1.89667576092807
H         2.08894439765778   -0.66388586910210   -2.00602304151929
H         1.43251891870796    0.55373457431453   -3.10723939889415
H         0.48194252773479   -0.87956821679099   -2.71024731682306
H        -0.33173426047894    1.12467118072459   -1.44097209937984
H         0.29491812161630   -0.14130501346723   -0.34969900558249
12
 energy: -21.600177319823 gnorm: 0.002759295036 xtb: 6.2.3 (830e466)
C         1.18065284865003   -0.13988482212149   -2.31925722981323
C         0.55845981781986    0.57602535701430   -1.11596157684603
C         1.56883710810337    1.52397081010293   -0.53376638021813
O         1.53914567809417    2.81893946946216   -0.93646347775009
O         0.51702296973811    3.17347465257195   -1.85195005840820
O         2.42990900969515    1.24370551055862    0.24814597975239
H         0.63353954052748    4.13063486947911   -1.91737915536523
H         2.08765441984738   -0.65841548741315   -2.01858671667970
H         1.42633418255804    0.57230204581637   -3.10331266733726
H         0.47725160648813   -0.86570797743652   -2.71846514898291
H        -0.33548066587144    1.11800307517625   -1.42317399134727
H         0.30568348434980   -0.15344750321052   -0.34565957700427
12
 energy: -21.600221375104 gnorm: 0.002478773452 xtb: 6.2.3 (830e466)
C         1.17764740939366   -0.12979469393438   -2.32223331365998
C         0.56018327251773    0.57123003692647   -1.10742335992945
C         1.56663846551990    1.52275131792291   -0.52441132746332
O         1.53891461675014    2.81524577721383   -0.93797569948264
O         0.52632829999351    3.16001489510507   -1.86840495276199
O         2.42149741903986    1.24929797701407    0.26750819477252
H         0.64153484930022    4.11792145989700   -1.93968077888518
H         2.08556878740050   -0.65343947498801   -2.03183504674839
H         1.42080960937328    0.59240640221870   -3.09850177693609
H         0.47162945826786   -0.84987772186334   -2.72786739127522
H        -0.33953195874507    1.11044508522158   -1.40373540212278
H         0.31778977118849   -0.16660106073388   -0.34126914550742
12
 energy: -21.600255194404 gnorm: 0.003269461359 xtb: 6.2.3 (830e466)
C         1.17487028371379   -0.12038601925770   -2.32475979384090
C         0.56172673396949    0.56682466505007   -1.09963746984533
C         1.56459740838091    1.52167184177152   -0.51605494402457
O         1.53838441323085    2.81186136290304   -0.93925975760502
O         0.53449532531717    3.14740101596691   -1.88293257471006
O         2.41411876718816    1.25440846908191    0.28437966652064
H         0.64912029947431    4.10575566677229   -1.96054429163483
H         2.08320052439761   -0.64909089972562   -2.04355323369355
H         1.41654270148548    0.61103762055738   -3.09339254910602
H         0.46626354302467   -0.83459333609812   -2.73681053694451
H        -0.34328026520337    1.10319850477991   -1.38591472318482
H         0.32897026502101   -0.17848889180158   -0.33734979193095
12
 energy: -21.600280651319 gnorm: 0.004015529091 xtb: 6.2.3 (830e466)
C         1.17253646351943   -0.11227458494147   -2.32667461618187
C         0.56288616553965    0.56316079127042   -1.09317971145852
C         1.56282662725417    1.52073971053852   -0.50926621970566
O         1.53773991206445    2.80892934265316   -0.94021840902272
O         0.54091097203492    3.13660875645791   -1.89426982356334
O         2.40813869695077    1.25856458656062    0.29768429666329
H         0.65605093235294    4.09484727343219   -1.97861329952145
H         2.08105568268655   -0.64510178596540   -2.05305732433932
H         1.41327521808316    0.62682263482457   -3.08859375017434
H         0.46186776201465   -0.82133010017437   -2.74433123185785
H        -0.34650539842394    1.09687585523545   -1.37106201721633
H         0.33822696592335   -0.18824247989160   -0.33424789362181
12
 energy: -21.600305848083 gnorm: 0.004485108112 xtb: 6.2.3 (830e466)
C         1.17019790914038   -0.10399054248790   -2.32843250049093
C         0.56385383632408    0.55960634040385   -1.08689511295007