12
 energy: -21.510315397935 gnorm: 0.000736596314 xtb: 6.2.3 (830e466)
C         0.74016298192143    1.87646291949443   -1.02885680013662
C        -0.09441123053594    0.94079757075707   -0.60576631343652
C         1.90849871044862   -0.66946289322056   -1.79765575507210
O         0.52419304118788    2.52543562018364   -2.20397159021104
O         1.61633322902475    3.37649607032663   -2.52290770397703
O         2.57488299790358   -0.94073982372851   -0.84352833941329
H         1.22237916334454    4.01259631509401   -3.13480961929405
H         1.62441029378341    2.18895655078073   -0.49089256189405
H         2.21050735897277    0.08439361034919   -2.54175126835876
H         0.96144767393383   -1.18323822520202   -2.02880432520589
H        -0.96690182015866    0.67185077758834   -1.17330234497401
H         0.06749760017384    0.45605150757839    0.33646662196852
