12
 energy: -21.571444456908 gnorm: 0.000739440356 xtb: 6.2.3 (830e466)
C         0.64178564719705    1.20091745360857   -2.02259870533668
C         0.02833277346848    0.45994591371656   -0.84299556551094
C         0.71099687109022    1.16663369868850    0.32395979832616
O         1.01571384336101    2.46891691473197   -1.50008998110685
O         1.29377064166831    2.29145875016148   -0.12662483065895
O         0.76646024522815    0.83500850218329    1.46603029052697
H         3.39585405097273    1.71578919979972   -4.21730150510156
H         1.52751767267459    0.67901487778170   -2.40888793689599
H        -0.05130192170745    1.40944564539011   -2.83756465730126
H         3.87159831504496    1.10451079495105   -4.28700446248306
H        -1.04847686714510    0.61437183855640   -0.75501630546970
H         0.23673872814627   -0.60640358957035   -0.82770613898656
