      -----------------------------------------------------------      
     |                   =====================                   |     
     |                           x T B                           |     
     |                   =====================                   |     
     |                         S. Grimme                         |     
     |          Mulliken Center for Theoretical Chemistry        |     
     |                    University of Bonn                     |     
      -----------------------------------------------------------      

   * xtb version 6.2.3 (830e466) compiled by 'ehlert@majestix' on 2020-03-16

   xtb is free software: you can redistribute it and/or modify it under
   the terms of the GNU Lesser General Public License as published by
   the Free Software Foundation, either version 3 of the License, or
   (at your option) any later version.
   
   xtb is distributed in the hope that it will be useful,
   but WITHOUT ANY WARRANTY; without even the implied warranty of
   MERCHANTABILITY or FITNESS FOR A PARTICULAR PURPOSE.  See the
   GNU Lesser General Public License for more details.
   
   Cite this work as:
   * S. Grimme, C. Bannwarth, P. Shushkov, J. Chem. Theory Comput., 2017,
     13, 1989-2009. DOI: 10.1021/acs.jctc.7b00118
   * C. Bannwarth, S. Ehlert and S. Grimme., J. Chem. Theory Comput., 2019,
     15, 1652-1671. DOI: 10.1021/acs.jctc.8b01176
   * P. Pracht, E. Caldeweyher, S. Ehlert, S. Grimme, ChemRxiv, 2019, preprint.
     DOI: 10.26434/chemrxiv.8326202.v1
   
   for DFT-D4:
   * E. Caldeweyher, C. Bannwarth and S. Grimme, J. Chem. Phys., 2017,
     147, 034112. DOI: 10.1063/1.4993215
   * E. Caldeweyher, S. Ehlert, A. Hansen, H. Neugebauer, S. Spicher,
     C. Bannwarth and S. Grimme, J. Chem. Phys., 2019, 150, 154122.
     DOI: 10.1063/1.5090222
   
   for sTDA-xTB:
   * S. Grimme and C. Bannwarth, J. Chem. Phys., 2016, 145, 054103.
     DOI: 10.1063/1.4959605
   
   in the mass-spec context:
   * V. Asgeirsson, C. Bauer and S. Grimme, Chem. Sci., 2017, 8, 4879.
     DOI: 10.1039/c7sc00601b
   
   for metadynamics refer to:
   * S. Grimme, J. Chem. Theory Comput., 2019, 155, 2847-2862
     DOI: 10.1021/acs.jctc.9b00143
   
   with help from (in alphabetical order)
   C. Bannwarth, F. Bohle, G. Brandenburg, E. Caldeweyher, M. Checinski,
   S. Dohm, S. Ehlert, S. Ehrlich, F. März, H. Neugebauer, J. Pisarek,
   P. Pracht, P. Shushkov, and S. Spicher.
   
 * started run on 2020/12/23 at 21:43:47.639     

           -------------------------------------------------
          |                Calculation Setup                |
           -------------------------------------------------

          program call               : xtb -c 0 -u 0 -a 1.0 --iterations 100 --opt normal --namespace product_36 /scratch/bell/zhao922/YARP/paper-example/potential_product/test/reaction_channel/pp_0/pp_9_1.xyz
          hostname                   : bell-fe05.rcac.purdue.edu
          calculation namespace      : product_36
          coordinate file            : /scratch/bell/zhao922/YARP/paper-example/potential_product/test/reaction_channel/pp_0/pp_9_1.xyz
          omp threads                :                    32
          number of atoms            :                    12
          number of electrons        :                    36
          charge                     :                     0
          spin                       :                   0.0
          first test random number   :      0.96089932540266

           ------------------------------------------------- 
          |                 G F N 2 - x T B                 |
          | Geometry, Frequencies, Noncovalent interactions |
          |            JCTC 2019 parametrisation            |
           ------------------------------------------------- 
             k(s)              :                1.8500
             k(p)              :                2.2300
             k(d)              :                2.2300
             k(f)              :                2.0000
             kEN (H0ij)        :               -2.0000
             D4 a1             :                0.5200
             D4 a2             :                5.0000
             D4 s6             :                1.0000
             D4 s8             :                2.7000
             D4 s9             :                5.0000
             alphaj            :                2.0000

  Z AO/shell   Hii/eV     exponent
  1     Wed Apr 25 08:07:45 CEST 2018   EN: 2.200 GM2: 0.406  GM3: 0.0800  RAES: 1.40
     1s    -10.707211    1.230000
  6     Wed Apr 25 08:07:45 CEST 2018   EN: 2.550 GM2: 0.538  GM3: 0.1500  RAES: 3.00
     2s    -13.970922    2.096432
     2p    -10.063292    1.800000
  8     Wed Apr 25 08:07:45 CEST 2018   EN: 3.440 GM2: 0.452  GM3:-0.0517  RAES: 1.80
     2s    -20.229985    2.439742
     2p    -15.503117    2.137023

           ------------------------------------------------- 
          |        Self-Consistent Charge Iterations        |
           ------------------------------------------------- 

          ...................................................
          :                      SETUP                      :
          :.................................................:
          :  # basis functions                  30          :
          :  # atomic orbitals                  30          :
          :  # shells                           18          :
          :  # electrons                        36          :
          :  max. iterations                   100          :
          :  Hamiltonian                  GFN2-xTB          :
          :  restarted?                      false          :
          :  GBSA solvation                  false          :
          :  PC potential                    false          :
          :  electronic temp.          300.0000000     K    :
          :  accuracy                    1.0000000          :
          :  -> integral cutoff          0.2500000E+02      :
          :  -> integral neglect         0.1000000E-07      :
          :  -> SCF convergence          0.1000000E-05 Eh   :
          :  -> wf. convergence          0.1000000E-03 e    :
          :  Broyden damping             0.4000000          :
          ...................................................

 iter      E             dE          RMSdq      gap      omega  full diag
   1    -21.6684584 -0.216685E+02  0.500E+00    3.93       0.0  T
   2    -21.6976544 -0.291960E-01  0.271E+00    3.11       1.0  T
   3    -21.6978656 -0.211250E-03  0.174E+00    3.56       1.0  T
   4    -21.7067017 -0.883607E-02  0.156E-01    3.27       1.0  T
   5    -21.7067565 -0.547930E-04  0.783E-02    3.32       1.0  T
   6    -21.7067690 -0.124605E-04  0.317E-02    3.32       1.0  T
   7    -21.7067696 -0.635725E-06  0.968E-03    3.31       3.0  T
   8    -21.7067700 -0.388620E-06  0.355E-03    3.31       8.1  T
   9    -21.7067700  0.976353E-09  0.111E-03    3.31      26.1  T
  10    -21.7067700 -0.110628E-07  0.280E-04    3.31     103.1  T
  11    -21.7067700 -0.227175E-09  0.869E-05    3.31     332.3  T

   *** convergence criteria satisfied after 11 iterations ***

         #    Occupation            Energy/Eh            Energy/eV
      -------------------------------------------------------------
         1        2.0000           -0.7517522             -20.4562
       ...           ...                  ...                  ...
        12        2.0000           -0.5213436             -14.1865
        13        2.0000           -0.5145692             -14.0021
        14        2.0000           -0.4843324             -13.1794
        15        2.0000           -0.4709386             -12.8149
        16        2.0000           -0.4593722             -12.5002
        17        2.0000           -0.4374526             -11.9037
        18        2.0000           -0.4160859             -11.3223 (HOMO)
        19                         -0.2942950              -8.0082 (LUMO)
        20                         -0.0559070              -1.5213
        21                          0.0552011               1.5021
        22                          0.0685323               1.8649
        23                          0.0756932               2.0597
       ...                                ...                  ...
        30                          0.5150646              14.0156
      -------------------------------------------------------------
                  HL-Gap            0.1217909 Eh            3.3141 eV
             Fermi-level           -0.3551905 Eh           -9.6652 eV

 SCC (total)                   0 d,  0 h,  0 min,  0.097 sec
 SCC setup                      ...        0 min,  0.000 sec (  0.271%)
 Dispersion                     ...        0 min,  0.000 sec (  0.071%)
 integral evaluation            ...        0 min,  0.001 sec (  0.724%)
 zeroth order Hamiltonian       ...        0 min,  0.000 sec (  0.081%)
 iterations                     ...        0 min,  0.006 sec (  6.670%)
 molecular gradient             ...        0 min,  0.089 sec ( 91.769%)
 printout                       ...        0 min,  0.000 sec (  0.221%)

         :::::::::::::::::::::::::::::::::::::::::::::::::::::
         ::                     SUMMARY                     ::
         :::::::::::::::::::::::::::::::::::::::::::::::::::::
         :: total energy             -21.547567900289 Eh    ::
         :: gradient norm              0.127547648057 Eh/a0 ::
         :: HOMO-LUMO gap              3.314099382408 eV    ::
         ::.................................................::
         :: SCC energy               -21.706770003534 Eh    ::
         :: -> isotropic ES            0.044572964746 Eh    ::
         :: -> anisotropic ES         -0.000629959950 Eh    ::
         :: -> anisotropic XC         -0.008218802814 Eh    ::
         :: -> dispersion             -0.006096041770 Eh    ::
         :: repulsion energy           0.159193353144 Eh    ::
         :: add. restraining           0.000000000000 Eh    ::
         :::::::::::::::::::::::::::::::::::::::::::::::::::::

      ----------------------------------------------------------- 
     |                   =====================                   |
     |                        A N C O P T                        |
     |                   =====================                   |
     |               Approximate Normal Coordinate               |
     |                Rational Function Optimizer                |
      ----------------------------------------------------------- 

          ...................................................
          :                      SETUP                      :
          :.................................................:
          :   optimization level            normal          :
          :   max. optcycles                   200          :
          :   ANC micro-cycles                  20          :
          :   degrees of freedom                30          :
          :.................................................:
          :   RF solver                   davidson          :
          :   write xtbopt.log                true          :
          :   linear?                        false          :
          :   energy convergence         0.5000000E-05 Eh   :
          :   grad. convergence          0.1000000E-02 Eh/α :
          :   maximium RF displ.         1.0000000          :
          :   Hlow (freq-cutoff)         0.1000000E-01      :
          :   Hmax (freq-cutoff)         5.0000000          :
          :   S6 in model hess.         20.0000000          :
          ...................................................

generating ANC from model Hessian ...
Using Lindh-Hessian (1995)
 Shifting diagonal of input Hessian by   2.345381465701371E-003
 Lowest  eigenvalues of input Hessian
   -0.000000   -0.000000   -0.000000    0.000000    0.000000    0.000000
    0.010000    0.011581    0.013171    0.017036    0.018572    0.033639
    0.041236    0.054116    0.059841    0.071699    0.074760    0.095835
 Highest eigenvalues
    1.145774    1.175367    1.322510    1.415434    1.635659    2.094722
 

........................................................................
.............................. CYCLE    1 ..............................
........................................................................
   1    -21.7067700 -0.217068E+02  0.489E-05    3.31       0.0  T
   2    -21.7067700 -0.118874E-10  0.308E-05    3.31     936.7  T
   3    -21.7067700 -0.625278E-11  0.177E-05    3.31    1634.7  T
     SCC iter.                  ...        0 min,  0.001 sec
     gradient                   ...        0 min,  0.001 sec
 * total energy  :   -21.5475679 Eh     change       -0.1102208E-08 Eh
   gradient norm :     0.1275480 Eh/α   predicted     0.0000000E+00 (-100.00%)
   displ. norm   :     0.2087412 α      lambda       -0.1444461E-01
   maximum displ.:     0.0730086 α      in ANC's #10, #3, #16, ...

........................................................................
.............................. CYCLE    2 ..............................
........................................................................
   1    -21.7264563 -0.217265E+02  0.331E-01    3.51       0.0  T
   2    -21.7266618 -0.205545E-03  0.199E-01    3.46       1.0  T
   3    -21.7266810 -0.192146E-04  0.806E-02    3.44       1.0  T
   4    -21.7266850 -0.398326E-05  0.220E-02    3.44       1.3  T
   5    -21.7266873 -0.233342E-05  0.881E-03    3.44       3.3  T
   6    -21.7266876 -0.275886E-06  0.552E-03    3.44       5.2  T
   7    -21.7266877 -0.591038E-07  0.213E-03    3.44      13.5  T
     SCC iter.                  ...        0 min,  0.086 sec
     gradient                   ...        0 min,  0.001 sec
 * total energy  :   -21.5571600 Eh     change       -0.9592143E-02 Eh
   gradient norm :     0.0477698 Eh/α   predicted    -0.7536998E-02 ( -21.43%)
   displ. norm   :     0.1632985 α      lambda       -0.3192469E-02
   maximum displ.:     0.0929008 α      in ANC's #3, #5, #4, ...

........................................................................
.............................. CYCLE    3 ..............................
........................................................................
   1    -21.7338448 -0.217338E+02  0.226E-01    3.55       0.0  T
   2    -21.7339196 -0.748199E-04  0.137E-01    3.51       1.0  T
   3    -21.7339269 -0.732658E-05  0.469E-02    3.50       1.0  T
   4    -21.7339290 -0.204939E-05  0.129E-02    3.50       2.2  T
   5    -21.7339297 -0.669021E-06  0.490E-03    3.50       5.9  T
   6    -21.7339297 -0.395784E-07  0.279E-03    3.50      10.3  T
     SCC iter.                  ...        0 min,  0.002 sec
     gradient                   ...        0 min,  0.001 sec
 * total energy  :   -21.5589368 Eh     change       -0.1776764E-02 Eh
   gradient norm :     0.0089482 Eh/α   predicted    -0.1638800E-02 (  -7.76%)
   displ. norm   :     0.1072286 α      lambda       -0.3729766E-03
   maximum displ.:     0.0692922 α      in ANC's #4, #5, #12, ...

........................................................................
.............................. CYCLE    4 ..............................
........................................................................
   1    -21.7334710 -0.217335E+02  0.165E-01    3.50       0.0  T
   2    -21.7334763 -0.525285E-05  0.103E-01    3.50       1.0  T
   3    -21.7334771 -0.798433E-06  0.160E-02    3.49       1.8  T
   4    -21.7334789 -0.183346E-05  0.678E-03    3.49       4.3  T
   5    -21.7334791 -0.128795E-06  0.297E-03    3.49       9.7  T
   6    -21.7334791 -0.145001E-07  0.798E-04    3.49      36.2  T
     SCC iter.                  ...        0 min,  0.002 sec
     gradient                   ...        0 min,  0.001 sec
 * total energy  :   -21.5591003 Eh     change       -0.1634744E-03 Eh
   gradient norm :     0.0061793 Eh/α   predicted    -0.1886339E-03 (  15.39%)
   displ. norm   :     0.1272455 α      lambda       -0.2685157E-03
   maximum displ.:     0.0726018 α      in ANC's #4, #3, #5, ...

........................................................................
.............................. CYCLE    5 ..............................
........................................................................
   1    -21.7324788 -0.217325E+02  0.153E-01    3.50       0.0  T
   2    -21.7324818 -0.298074E-05  0.944E-02    3.50       1.0  T
   3    -21.7324830 -0.126184E-05  0.807E-03    3.50       3.6  T
   4    -21.7324832 -0.176378E-06  0.451E-03    3.50       6.4  T
   5    -21.7324832 -0.250811E-07  0.194E-03    3.50      14.9  T
   6    -21.7324832 -0.729444E-08  0.712E-04    3.50      40.5  T
     SCC iter.                  ...        0 min,  0.002 sec
     gradient                   ...        0 min,  0.087 sec
 * total energy  :   -21.5592883 Eh     change       -0.1879980E-03 Eh
   gradient norm :     0.0054327 Eh/α   predicted    -0.1364323E-03 ( -27.43%)
   displ. norm   :     0.1888234 α      lambda       -0.2588835E-03
   maximum displ.:     0.1151352 α      in ANC's #4, #3, #5, ...

........................................................................
.............................. CYCLE    6 ..............................
........................................................................
   1    -21.7310579 -0.217311E+02  0.254E-01    3.49       0.0  T
   2    -21.7310668 -0.898752E-05  0.157E-01    3.50       1.0  T
   3    -21.7310700 -0.318769E-05  0.158E-02    3.50       1.8  T
   4    -21.7310711 -0.109489E-05  0.775E-03    3.50       3.7  T
   5    -21.7310712 -0.301798E-07  0.276E-03    3.50      10.5  T
   6    -21.7310712 -0.120802E-07  0.782E-04    3.50      36.9  T
     SCC iter.                  ...        0 min,  0.002 sec
     gradient                   ...        0 min,  0.001 sec
 * total energy  :   -21.5594449 Eh     change       -0.1565920E-03 Eh
   gradient norm :     0.0117645 Eh/α   predicted    -0.1340567E-03 ( -14.39%)
   displ. norm   :     0.1073068 α      lambda       -0.1928356E-03
   maximum displ.:     0.0618730 α      in ANC's #4, #1, #3, ...

........................................................................
.............................. CYCLE    7 ..............................
........................................................................
   1    -21.7320116 -0.217320E+02  0.132E-01    3.50       0.0  T
   2    -21.7320155 -0.388078E-05  0.823E-02    3.51       1.0  T
   3    -21.7320166 -0.112252E-05  0.112E-02    3.51       2.6  T
   4    -21.7320173 -0.643919E-06  0.481E-03    3.51       6.0  T
   5    -21.7320173 -0.167107E-07  0.228E-03    3.51      12.7  T
   6    -21.7320173 -0.134910E-07  0.781E-04    3.51      37.0  T
     SCC iter.                  ...        0 min,  0.002 sec
     gradient                   ...        0 min,  0.001 sec
 * total energy  :   -21.5595983 Eh     change       -0.1534425E-03 Eh
   gradient norm :     0.0090007 Eh/α   predicted    -0.9752606E-04 ( -36.44%)
   displ. norm   :     0.2490626 α      lambda       -0.3161918E-03
   maximum displ.:     0.1603597 α      in ANC's #4, #1, #3, ...

........................................................................
.............................. CYCLE    8 ..............................
........................................................................
   1    -21.7319834 -0.217320E+02  0.320E-01    3.50       0.0  T
   2    -21.7320023 -0.189278E-04  0.199E-01    3.51       1.0  T
   3    -21.7320085 -0.620375E-05  0.229E-02    3.51       1.3  T
   4    -21.7320110 -0.243970E-05  0.105E-02    3.51       2.8  T
   5    -21.7320111 -0.108592E-06  0.399E-03    3.51       7.2  T
   6    -21.7320111 -0.176165E-07  0.118E-03    3.51      24.5  T
   7    -21.7320111 -0.314779E-08  0.484E-04    3.51      59.6  T
     SCC iter.                  ...        0 min,  0.002 sec
     gradient                   ...        0 min,  0.086 sec
 * total energy  :   -21.5598244 Eh     change       -0.2260726E-03 Eh
   gradient norm :     0.0111551 Eh/α   predicted    -0.1679017E-03 ( -25.73%)
   displ. norm   :     0.2217260 α      lambda       -0.3534795E-03
   maximum displ.:     0.1275435 α      in ANC's #4, #1, #3, ...

........................................................................
.............................. CYCLE    9 ..............................
........................................................................
   1    -21.7347524 -0.217348E+02  0.266E-01    3.54       0.0  T
   2    -21.7347654 -0.129960E-04  0.165E-01    3.54       1.0  T
   3    -21.7347693 -0.391819E-05  0.216E-02    3.55       1.3  T
   4    -21.7347718 -0.247870E-05  0.104E-02    3.55       2.8  T
   5    -21.7347720 -0.170820E-06  0.500E-03    3.55       5.8  T
   6    -21.7347720 -0.576400E-07  0.185E-03    3.55      15.6  T
   7    -21.7347720 -0.762845E-08  0.544E-04    3.55      53.0  T
     SCC iter.                  ...        0 min,  0.002 sec
     gradient                   ...        0 min,  0.001 sec
 * total energy  :   -21.5600594 Eh     change       -0.2349691E-03 Eh
   gradient norm :     0.0077006 Eh/α   predicted    -0.1854275E-03 ( -21.08%)
   displ. norm   :     0.5840268 α      lambda       -0.6150708E-03
   maximum displ.:     0.3671353 α      in ANC's #4, #3, #1, ...

........................................................................
.............................. CYCLE   10 ..............................
........................................................................
   1    -21.7247342 -0.217247E+02  0.741E-01    3.50       0.0  T
   2    -21.7248312 -0.970130E-04  0.456E-01    3.54       1.0  T
   3    -21.7248523 -0.210699E-04  0.507E-02    3.54       1.0  T
   4    -21.7248638 -0.114997E-04  0.209E-02    3.55       1.4  T
   5    -21.7248643 -0.554826E-06  0.110E-02    3.54       2.6  T
   6    -21.7248645 -0.132737E-06  0.439E-03    3.54       6.6  T
   7    -21.7248645 -0.703291E-07  0.126E-03    3.54      22.9  T
   8    -21.7248645 -0.518093E-08  0.550E-04    3.54      52.5  T
     SCC iter.                  ...        0 min,  0.002 sec
     gradient                   ...        0 min,  0.001 sec
 * total energy  :   -21.5592449 Eh     change        0.8144817E-03 Eh
   gradient norm :     0.0473113 Eh/α   predicted    -0.4124408E-03 (-150.64%)
   displ. norm   :     0.3022003 α      lambda       -0.3034101E-02
   maximum displ.:     0.1909296 α      in ANC's #4, #3, #1, ...

........................................................................
.............................. CYCLE   11 ..............................
........................................................................
   1    -21.7359798 -0.217360E+02  0.423E-01    3.63       0.0  T
   2    -21.7360452 -0.653797E-04  0.258E-01    3.60       1.0  T
   3    -21.7360507 -0.547249E-05  0.477E-02    3.60       1.0  T
   4    -21.7360590 -0.833757E-05  0.150E-02    3.59       1.9  T
   5    -21.7360596 -0.552613E-06  0.779E-03    3.60       3.7  T
   6    -21.7360597 -0.114376E-06  0.396E-03    3.60       7.3  T
   7    -21.7360597 -0.404015E-07  0.133E-03    3.60      21.7  T
     SCC iter.                  ...        0 min,  0.087 sec
     gradient                   ...        0 min,  0.001 sec
 * total energy  :   -21.5604287 Eh     change       -0.1183853E-02 Eh
   gradient norm :     0.0053350 Eh/α   predicted    -0.1655598E-02 (  39.85%)
   displ. norm   :     0.1190155 α      lambda       -0.2149818E-03
   maximum displ.:     0.0921082 α      in ANC's #4, #2, #3, ...

........................................................................
.............................. CYCLE   12 ..............................
........................................................................
   1    -21.7349829 -0.217350E+02  0.151E-01    3.56       0.0  T
   2    -21.7349881 -0.517914E-05  0.938E-02    3.57       1.0  T
   3    -21.7349893 -0.126898E-05  0.152E-02    3.57       1.9  T
   4    -21.7349905 -0.118722E-05  0.600E-03    3.57       4.8  T
   5    -21.7349906 -0.602797E-07  0.324E-03    3.57       8.9  T
   6    -21.7349906 -0.149411E-07  0.113E-03    3.57      25.6  T
   7    -21.7349906 -0.305506E-08  0.245E-04    3.57     117.7  T
     SCC iter.                  ...        0 min,  0.002 sec
     gradient                   ...        0 min,  0.001 sec
 * total energy  :   -21.5605946 Eh     change       -0.1658787E-03 Eh
   gradient norm :     0.0101277 Eh/α   predicted    -0.1090122E-03 ( -34.28%)
   displ. norm   :     0.4894291 α      lambda       -0.7964126E-03
   maximum displ.:     0.3266467 α      in ANC's #4, #2, #3, ...

........................................................................
.............................. CYCLE   13 ..............................
........................................................................
   1    -21.7265981 -0.217266E+02  0.649E-01    3.46       0.0  T
   2    -21.7266852 -0.870587E-04  0.405E-01    3.50       1.0  T
   3    -21.7267158 -0.305955E-04  0.541E-02    3.50       1.0  T
   4    -21.7267285 -0.127077E-04  0.249E-02    3.51       1.2  T
   5    -21.7267296 -0.112407E-05  0.138E-02    3.50       2.1  T
   6    -21.7267299 -0.307681E-06  0.480E-03    3.50       6.0  T
   7    -21.7267300 -0.745558E-07  0.149E-03    3.50      19.4  T
   8    -21.7267300 -0.625003E-08  0.896E-04    3.50      32.2  T
     SCC iter.                  ...        0 min,  0.003 sec
     gradient                   ...        0 min,  0.001 sec
 * total energy  :   -21.5604079 Eh     change        0.1867313E-03 Eh
   gradient norm :     0.0439467 Eh/α   predicted    -0.4935809E-03 (-364.33%)
   displ. norm   :     0.2198435 α      lambda       -0.1616880E-02
   maximum displ.:     0.1679455 α      in ANC's #4, #2, #3, ...

........................................................................
.............................. CYCLE   14 ..............................
........................................................................
   1    -21.7347469 -0.217347E+02  0.345E-01    3.63       0.0  T
   2    -21.7347940 -0.470504E-04  0.213E-01    3.60       1.0  T
   3    -21.7348024 -0.838926E-05  0.414E-02    3.60       1.0  T
   4    -21.7348080 -0.558850E-05  0.155E-02    3.59       1.9  T
   5    -21.7348087 -0.745132E-06  0.829E-03    3.60       3.5  T
   6    -21.7348088 -0.116278E-06  0.385E-03    3.60       7.5  T
   7    -21.7348089 -0.398366E-07  0.114E-03    3.60      25.3  T
     SCC iter.                  ...        0 min,  0.003 sec
     gradient                   ...        0 min,  0.002 sec
 * total energy  :   -21.5610339 Eh     change       -0.6259970E-03 Eh
   gradient norm :     0.0092593 Eh/α   predicted    -0.8475119E-03 (  35.39%)
   displ. norm   :     0.1050367 α      lambda       -0.2121512E-03
   maximum displ.:     0.0628823 α      in ANC's #2, #4, #3, ...

........................................................................
.............................. CYCLE   15 ..............................
........................................................................
   1    -21.7349766 -0.217350E+02  0.134E-01    3.60       0.0  T
   2    -21.7349791 -0.253513E-05  0.836E-02    3.60       1.0  T
   3    -21.7349806 -0.149184E-05  0.762E-03    3.60       3.8  T
   4    -21.7349807 -0.143035E-06  0.442E-03    3.60       6.5  T
   5    -21.7349808 -0.181624E-07  0.123E-03    3.60      23.5  T
   6    -21.7349808 -0.226008E-08  0.348E-04    3.60      82.9  T
     SCC iter.                  ...        0 min,  0.003 sec
     gradient                   ...        0 min,  0.091 sec
 * total energy  :   -21.5612300 Eh     change       -0.1961608E-03 Eh
   gradient norm :     0.0077728 Eh/α   predicted    -0.1072445E-03 ( -45.33%)
   displ. norm   :     0.6935733 α      lambda       -0.1159760E-02
   maximum displ.:     0.3817247 α      in ANC's #4, #2, #3, ...

........................................................................
.............................. CYCLE   16 ..............................
........................................................................
   1    -21.7218550 -0.217219E+02  0.823E-01    3.50       0.0  T
   2    -21.7219923 -0.137357E-03  0.517E-01    3.55       1.0  T
   3    -21.7220218 -0.294810E-04  0.821E-02    3.54       1.0  T
   4    -21.7220645 -0.427314E-04  0.315E-02    3.56       1.0  T
   5    -21.7220655 -0.101369E-05  0.184E-02    3.56       1.6  T
   6    -21.7220662 -0.619177E-06  0.506E-03    3.56       5.7  T
   7    -21.7220663 -0.883470E-07  0.164E-03    3.56      17.6  T
   8    -21.7220663 -0.595099E-08  0.953E-04    3.56      30.3  T
     SCC iter.                  ...        0 min,  0.003 sec
     gradient                   ...        0 min,  0.001 sec
 * total energy  :   -21.5605676 Eh     change        0.6624479E-03 Eh
   gradient norm :     0.0488027 Eh/α   predicted    -0.8587988E-03 (-229.64%)
   displ. norm   :     0.3308761 α      lambda       -0.3511135E-02
   maximum displ.:     0.2073109 α      in ANC's #4, #3, #2, ...

........................................................................
.............................. CYCLE   17 ..............................
........................................................................
   1    -21.7368870 -0.217369E+02  0.386E-01    3.67       0.0  T
   2    -21.7369347 -0.476905E-04  0.239E-01    3.64       1.0  T
   3    -21.7369336  0.110495E-05  0.526E-02    3.65       1.0  T
   4    -21.7369500 -0.164190E-04  0.150E-02    3.64       1.9  T
   5    -21.7369504 -0.381659E-06  0.905E-03    3.64       3.2  T
   6    -21.7369505 -0.139241E-06  0.309E-03    3.64       9.3  T
   7    -21.7369505 -0.207522E-07  0.957E-04    3.64      30.2  T
     SCC iter.                  ...        0 min,  0.092 sec
     gradient                   ...        0 min,  0.003 sec
 * total energy  :   -21.5618060 Eh     change       -0.1238459E-02 Eh
   gradient norm :     0.0080605 Eh/α   predicted    -0.1947762E-02 (  57.27%)
   displ. norm   :     0.0863965 α      lambda       -0.2517767E-03
   maximum displ.:     0.0558163 α      in ANC's #4, #5, #3, ...

........................................................................
.............................. CYCLE   18 ..............................
........................................................................
   1    -21.7364675 -0.217365E+02  0.901E-02    3.63       0.0  T
   2    -21.7364713 -0.382626E-05  0.558E-02    3.63       1.0  T
   3    -21.7364719 -0.600540E-06  0.135E-02    3.63       2.1  T
   4    -21.7364727 -0.775536E-06  0.480E-03    3.63       6.0  T
   5    -21.7364727 -0.536510E-07  0.250E-03    3.63      11.5  T
   6    -21.7364727 -0.107182E-07  0.107E-03    3.63      26.9  T
     SCC iter.                  ...        0 min,  0.005 sec
     gradient                   ...        0 min,  0.002 sec
 * total energy  :   -21.5619477 Eh     change       -0.1416518E-03 Eh
   gradient norm :     0.0073942 Eh/α   predicted    -0.1268276E-03 ( -10.47%)
   displ. norm   :     0.2364829 α      lambda       -0.3486809E-03
   maximum displ.:     0.1354085 α      in ANC's #4, #2, #3, ...

........................................................................
.............................. CYCLE   19 ..............................
........................................................................
   1    -21.7340246 -0.217340E+02  0.326E-01    3.61       0.0  T
   2    -21.7340443 -0.197537E-04  0.206E-01    3.62       1.0  T
   3    -21.7340541 -0.983289E-05  0.247E-02    3.62       1.2  T
   4    -21.7340572 -0.305095E-05  0.117E-02    3.62       2.5  T
   5    -21.7340573 -0.869880E-07  0.520E-03    3.62       5.5  T
   6    -21.7340574 -0.871050E-07  0.157E-03    3.62      18.4  T
   7    -21.7340574 -0.814608E-08  0.647E-04    3.62      44.6  T
     SCC iter.                  ...        0 min,  0.005 sec
     gradient                   ...        0 min,  0.002 sec
 * total energy  :   -21.5621501 Eh     change       -0.2024399E-03 Eh
   gradient norm :     0.0159193 Eh/α   predicted    -0.1840930E-03 (  -9.06%)
   displ. norm   :     0.0784996 α      lambda       -0.1878387E-03
   maximum displ.:     0.0365296 α      in ANC's #4, #2, #20, ...

........................................................................
.............................. CYCLE   20 ..............................
........................................................................
   1    -21.7349574 -0.217350E+02  0.120E-01    3.63       0.0  T
   2    -21.7349597 -0.231521E-05  0.760E-02    3.63       1.0  T
   3    -21.7349612 -0.147425E-05  0.738E-03    3.63       3.9  T
   4    -21.7349614 -0.218425E-06  0.406E-03    3.63       7.1  T
   5    -21.7349614 -0.175818E-07  0.117E-03    3.63      24.7  T
   6    -21.7349614 -0.383599E-08  0.402E-04    3.63      71.8  T
     SCC iter.                  ...        0 min,  0.094 sec
     gradient                   ...        0 min,  0.002 sec
 * total energy  :   -21.5623080 Eh     change       -0.1578384E-03 Eh
   gradient norm :     0.0126023 Eh/α   predicted    -0.9449670E-04 ( -40.13%)
   displ. norm   :     0.1987239 α      lambda       -0.4038975E-03
   maximum displ.:     0.1114870 α      in ANC's #4, #20, #19, ...
 * RMSD in coord.:     0.7263309 α      energy gain  -0.1474007E-01 Eh

generating ANC from model Hessian ...
Using Lindh-Hessian (1995)
 Shifting diagonal of input Hessian by   3.450034822288127E-003
 Lowest  eigenvalues of input Hessian
   -0.000000   -0.000000   -0.000000    0.000000    0.000000    0.000000
    0.010000    0.012759    0.013898    0.017342    0.019724    0.028603
    0.045451    0.056980    0.062838    0.074129    0.078652    0.087857
 Highest eigenvalues
    1.146981    1.174538    1.241768    1.304562    1.518127    2.220685
 

........................................................................
.............................. CYCLE   21 ..............................
........................................................................
   1    -21.7369934 -0.217370E+02  0.290E-01    3.65       0.0  T
   2    -21.7370082 -0.147822E-04  0.184E-01    3.65       1.0  T
   3    -21.7370180 -0.975278E-05  0.159E-02    3.65       1.8  T
   4    -21.7370185 -0.501213E-06  0.911E-03    3.65       3.2  T
   5    -21.7370186 -0.781203E-07  0.322E-03    3.65       9.0  T
   6    -21.7370186 -0.229827E-07  0.110E-03    3.65      26.2  T
   7    -21.7370186 -0.456788E-08  0.444E-04    3.65      65.0  T
   8    -21.7370186 -0.382297E-09  0.202E-04    3.65     142.6  T
     SCC iter.                  ...        0 min,  0.092 sec
     gradient                   ...        0 min,  0.001 sec
 * total energy  :   -21.5625985 Eh     change       -0.2905081E-03 Eh
   gradient norm :     0.0085283 Eh/α   predicted     0.0000000E+00 (-100.00%)
   displ. norm   :     0.0781450 α      lambda       -0.1907940E-03
   maximum displ.:     0.0698694 α      in ANC's #4, #6, #13, ...

........................................................................
.............................. CYCLE   22 ..............................
........................................................................
   1    -21.7379130 -0.217379E+02  0.113E-01    3.67       0.0  T
   2    -21.7379151 -0.208350E-05  0.705E-02    3.66       1.0  T
   3    -21.7379164 -0.125786E-05  0.687E-03    3.66       4.2  T
   4    -21.7379165 -0.112437E-06  0.390E-03    3.66       7.4  T
   5    -21.7379165 -0.202517E-07  0.179E-03    3.66      16.2  T
   6    -21.7379165 -0.581847E-08  0.486E-04    3.66      59.4  T
     SCC iter.                  ...        0 min,  0.002 sec
     gradient                   ...        0 min,  0.001 sec
 * total energy  :   -21.5627129 Eh     change       -0.1144528E-03 Eh
   gradient norm :     0.0037875 Eh/α   predicted    -0.9597980E-04 ( -16.14%)
   displ. norm   :     0.1924662 α      lambda       -0.2759350E-03
   maximum displ.:     0.1622924 α      in ANC's #4, #2, #1, ...

........................................................................
.............................. CYCLE   23 ..............................
........................................................................
   1    -21.7382787 -0.217383E+02  0.229E-01    3.68       0.0  T
   2    -21.7382849 -0.619610E-05  0.143E-01    3.68       1.0  T
   3    -21.7382896 -0.471824E-05  0.112E-02    3.68       2.6  T
   4    -21.7382897 -0.711035E-07  0.598E-03    3.68       4.8  T
   5    -21.7382897 -0.609160E-07  0.147E-03    3.68      19.6  T
   6    -21.7382897 -0.107569E-07  0.511E-04    3.68      56.5  T
   7    -21.7382897 -0.269562E-09  0.179E-04    3.68     161.6  T
     SCC iter.                  ...        0 min,  0.002 sec
     gradient                   ...        0 min,  0.002 sec
 * total energy  :   -21.5629192 Eh     change       -0.2062286E-03 Eh
   gradient norm :     0.0042330 Eh/α   predicted    -0.1430771E-03 ( -30.62%)
   displ. norm   :     0.2526493 α      lambda       -0.2488736E-03
   maximum displ.:     0.1925316 α      in ANC's #4, #2, #6, ...

........................................................................
.............................. CYCLE   24 ..............................
........................................................................
   1    -21.7353781 -0.217354E+02  0.322E-01    3.64       0.0  T
   2    -21.7353948 -0.166890E-04  0.201E-01    3.65       1.0  T
   3    -21.7354028 -0.804698E-05  0.238E-02    3.65       1.2  T
   4    -21.7354057 -0.284276E-05  0.117E-02    3.66       2.5  T
   5    -21.7354058 -0.134188E-06  0.517E-03    3.65       5.6  T
   6    -21.7354059 -0.500560E-07  0.158E-03    3.65      18.3  T
   7    -21.7354059 -0.854415E-08  0.425E-04    3.65      67.9  T
     SCC iter.                  ...        0 min,  0.002 sec
     gradient                   ...        0 min,  0.001 sec
 * total energy  :   -21.5630528 Eh     change       -0.1336016E-03 Eh
   gradient norm :     0.0109870 Eh/α   predicted    -0.1323776E-03 (  -0.92%)
   displ. norm   :     0.0499963 α      lambda       -0.1130486E-03
   maximum displ.:     0.0368904 α      in ANC's #2, #5, #6, ...

........................................................................
.............................. CYCLE   25 ..............................
........................................................................
   1    -21.7370871 -0.217371E+02  0.491E-02    3.68       0.0  T
   2    -21.7370879 -0.832500E-06  0.303E-02    3.67       1.0  T
   3    -21.7370881 -0.191331E-06  0.561E-03    3.67       5.1  T
   4    -21.7370882 -0.108445E-06  0.231E-03    3.67      12.5  T
   5    -21.7370882 -0.156939E-07  0.118E-03    3.67      24.4  T
     SCC iter.                  ...        0 min,  0.002 sec
     gradient                   ...        0 min,  0.001 sec
 * total energy  :   -21.5631413 Eh     change       -0.8850213E-04 Eh
   gradient norm :     0.0056772 Eh/α   predicted    -0.5666442E-04 ( -35.97%)
   displ. norm   :     0.2136458 α      lambda       -0.1821801E-03
   maximum displ.:     0.1313250 α      in ANC's #2, #4, #6, ...

........................................................................
.............................. CYCLE   26 ..............................
........................................................................
   1    -21.7373193 -0.217373E+02  0.265E-01    3.68       0.0  T
   2    -21.7373308 -0.115293E-04  0.167E-01    3.69       1.0  T
   3    -21.7373382 -0.738345E-05  0.157E-02    3.68       1.8  T
   4    -21.7373388 -0.661287E-06  0.906E-03    3.69       3.2  T
   5    -21.7373389 -0.689607E-07  0.237E-03    3.68      12.2  T
   6    -21.7373389 -0.128213E-07  0.100E-03    3.69      28.8  T
     SCC iter.                  ...        0 min,  0.002 sec
     gradient                   ...        0 min,  0.001 sec
 * total energy  :   -21.5632516 Eh     change       -0.1103329E-03 Eh
   gradient norm :     0.0072429 Eh/α   predicted    -0.9524652E-04 ( -13.67%)
   displ. norm   :     0.0611475 α      lambda       -0.9366434E-04
   maximum displ.:     0.0385484 α      in ANC's #2, #6, #20, ...

........................................................................
.............................. CYCLE   27 ..............................
........................................................................
   1    -21.7395847 -0.217396E+02  0.850E-02    3.72       0.0  T
   2    -21.7395864 -0.175737E-05  0.535E-02    3.71       1.0  T
   3    -21.7395867 -0.248238E-06  0.979E-03    3.71       2.9  T
   4    -21.7395873 -0.586430E-06  0.326E-03    3.71       8.9  T
   5    -21.7395873 -0.121219E-07  0.171E-03    3.71      16.9  T
   6    -21.7395873 -0.272022E-08  0.396E-04    3.71      72.9  T
     SCC iter.                  ...        0 min,  0.002 sec
     gradient                   ...        0 min,  0.001 sec
 * total energy  :   -21.5632851 Eh     change       -0.3354552E-04 Eh
   gradient norm :     0.0034879 Eh/α   predicted    -0.4700574E-04 (  40.13%)
   displ. norm   :     0.1238860 α      lambda       -0.5764639E-04
   maximum displ.:     0.0796070 α      in ANC's #4, #2, #6, ...

........................................................................
.............................. CYCLE   28 ..............................
........................................................................
   1    -21.7382668 -0.217383E+02  0.141E-01    3.70       0.0  T
   2    -21.7382702 -0.342110E-05  0.884E-02    3.70       1.0  T
   3    -21.7382719 -0.171127E-05  0.109E-02    3.70       2.7  T
   4    -21.7382725 -0.595264E-06  0.537E-03    3.70       5.4  T
   5    -21.7382726 -0.252148E-07  0.223E-03    3.70      13.0  T
   6    -21.7382726 -0.118518E-07  0.638E-04    3.70      45.3  T
   7    -21.7382726 -0.139002E-08  0.140E-04    3.70     205.5  T
     SCC iter.                  ...        0 min,  0.002 sec
     gradient                   ...        0 min,  0.001 sec
 * total energy  :   -21.5633172 Eh     change       -0.3207625E-04 Eh
   gradient norm :     0.0043978 Eh/α   predicted    -0.2926521E-04 (  -8.76%)
   displ. norm   :     0.0330777 α      lambda       -0.1805493E-04
   maximum displ.:     0.0239377 α      in ANC's #4, #3, #2, ...

........................................................................
.............................. CYCLE   29 ..............................
........................................................................
   1    -21.7383308 -0.217383E+02  0.450E-02    3.71       0.0  T
   2    -21.7383311 -0.372034E-06  0.280E-02    3.71       1.0  T
   3    -21.7383313 -0.193015E-06  0.273E-03    3.71      10.6  T
   4    -21.7383313 -0.114062E-07  0.146E-03    3.71      19.8  T
     SCC iter.                  ...        0 min,  0.091 sec
     gradient                   ...        0 min,  0.001 sec
 * total energy  :   -21.5633290 Eh     change       -0.1175510E-04 Eh
   gradient norm :     0.0028636 Eh/α   predicted    -0.9038433E-05 ( -23.11%)
   displ. norm   :     0.0459573 α      lambda       -0.2454700E-04
   maximum displ.:     0.0376377 α      in ANC's #4, #3, #5, ...

........................................................................
.............................. CYCLE   30 ..............................
........................................................................
   1    -21.7390530 -0.217391E+02  0.541E-02    3.71       0.0  T
   2    -21.7390535 -0.459570E-06  0.336E-02    3.71       1.0  T
   3    -21.7390538 -0.284381E-06  0.322E-03    3.71       9.0  T
   4    -21.7390538 -0.193393E-07  0.189E-03    3.71      15.3  T
   5    -21.7390538 -0.440604E-08  0.863E-04    3.71      33.4  T
   6    -21.7390538 -0.199036E-08  0.193E-04    3.71     149.3  T
     SCC iter.                  ...        0 min,  0.002 sec
     gradient                   ...        0 min,  0.001 sec
 * total energy  :   -21.5633405 Eh     change       -0.1156404E-04 Eh
   gradient norm :     0.0020616 Eh/α   predicted    -0.1229938E-04 (   6.36%)
   displ. norm   :     0.0594363 α      lambda       -0.1279011E-04
   maximum displ.:     0.0437623 α      in ANC's #4, #6, #2, ...

........................................................................
.............................. CYCLE   31 ..............................
........................................................................
   1    -21.7386383 -0.217386E+02  0.891E-02    3.70       0.0  T
   2    -21.7386397 -0.141259E-05  0.564E-02    3.71       1.0  T
   3    -21.7386407 -0.939044E-06  0.494E-03    3.71       5.8  T
   4    -21.7386407 -0.563679E-07  0.282E-03    3.71      10.2  T
   5    -21.7386407 -0.792213E-08  0.883E-04    3.71      32.7  T
   6    -21.7386407 -0.119230E-08  0.343E-04    3.71      84.1  T
     SCC iter.                  ...        0 min,  0.093 sec
     gradient                   ...        0 min,  0.001 sec
 * total energy  :   -21.5633486 Eh     change       -0.8040285E-05 Eh
   gradient norm :     0.0024441 Eh/α   predicted    -0.6417692E-05 ( -20.18%)
   displ. norm   :     0.0384368 α      lambda       -0.1214146E-04
   maximum displ.:     0.0218284 α      in ANC's #3, #4, #6, ...

........................................................................
.............................. CYCLE   32 ..............................
........................................................................
   1    -21.7388469 -0.217388E+02  0.609E-02    3.71       0.0  T
   2    -21.7388476 -0.641740E-06  0.386E-02    3.71       1.0  T
   3    -21.7388480 -0.416967E-06  0.352E-03    3.71       8.2  T
   4    -21.7388480 -0.398194E-07  0.193E-03    3.71      14.9  T
   5    -21.7388480 -0.469390E-08  0.645E-04    3.71      44.8  T
   6    -21.7388481 -0.553669E-09  0.169E-04    3.71     170.3  T
     SCC iter.                  ...        0 min,  0.002 sec
     gradient                   ...        0 min,  0.001 sec
 * total energy  :   -21.5633561 Eh     change       -0.7480890E-05 Eh
   gradient norm :     0.0009047 Eh/α   predicted    -0.6079073E-05 ( -18.74%)
   displ. norm   :     0.0635826 α      lambda       -0.6319783E-05
   maximum displ.:     0.0369343 α      in ANC's #3, #4, #5, ...

........................................................................
.............................. CYCLE   33 ..............................
........................................................................
   1    -21.7388978 -0.217389E+02  0.799E-02    3.71       0.0  T
   2    -21.7388988 -0.100271E-05  0.502E-02    3.71       1.0  T
   3    -21.7388996 -0.714256E-06  0.438E-03    3.71       6.6  T
   4    -21.7388996 -0.304864E-07  0.262E-03    3.71      11.0  T
   5    -21.7388996 -0.707328E-08  0.634E-04    3.71      45.5  T
   6    -21.7388996 -0.120056E-08  0.242E-04    3.71     119.4  T
     SCC iter.                  ...        0 min,  0.092 sec
     gradient                   ...        0 min,  0.002 sec
 * total energy  :   -21.5633603 Eh     change       -0.4259895E-05 Eh
   gradient norm :     0.0013971 Eh/α   predicted    -0.3166441E-05 ( -25.67%)
   displ. norm   :     0.0438033 α      lambda       -0.4633538E-05
   maximum displ.:     0.0345684 α      in ANC's #2, #3, #4, ...

........................................................................
.............................. CYCLE   34 ..............................
........................................................................
   1    -21.7394278 -0.217394E+02  0.337E-02    3.72       0.0  T
   2    -21.7394280 -0.144402E-06  0.204E-02    3.72       1.4  T
   3    -21.7394280 -0.183095E-08  0.261E-03    3.72      11.1  T
   4    -21.7394280 -0.453750E-07  0.940E-04    3.72      30.7  T
   5    -21.7394280 -0.103254E-08  0.518E-04    3.72      55.7  T
     SCC iter.                  ...        0 min,  0.002 sec
     gradient                   ...        0 min,  0.001 sec
 * total energy  :   -21.5633614 Eh     change       -0.1113958E-05 Eh
   gradient norm :     0.0021589 Eh/α   predicted    -0.2320642E-05 ( 108.32%)
   displ. norm   :     0.0100780 α      lambda       -0.3339484E-05
   maximum displ.:     0.0065530 α      in ANC's #1, #3, #4, ...

........................................................................
.............................. CYCLE   35 ..............................
........................................................................
   1    -21.7391431 -0.217391E+02  0.106E-02    3.71       0.0  T
   2    -21.7391431 -0.270987E-07  0.662E-03    3.71       4.4  T
   3    -21.7391431  0.267612E-08  0.144E-03    3.71      20.0  T
   4    -21.7391431 -0.149949E-07  0.444E-04    3.71      65.1  T
   5    -21.7391431 -0.273737E-09  0.189E-04    3.71     152.5  T
     SCC iter.                  ...        0 min,  0.292 sec
     gradient                   ...        0 min,  0.001 sec
 * total energy  :   -21.5633638 Eh     change       -0.2369830E-05 Eh
   gradient norm :     0.0010636 Eh/α   predicted    -0.1670456E-05 ( -29.51%)
   displ. norm   :     0.0131584 α      lambda       -0.1621151E-05
   maximum displ.:     0.0072057 α      in ANC's #1, #4, #3, ...

........................................................................
.............................. CYCLE   36 ..............................
........................................................................
   1    -21.7388124 -0.217388E+02  0.156E-02    3.71       0.0  T
   2    -21.7388125 -0.462578E-07  0.981E-03    3.71       2.9  T
   3    -21.7388125 -0.216145E-08  0.166E-03    3.71      17.4  T
   4    -21.7388125 -0.196702E-07  0.520E-04    3.71      55.5  T
   5    -21.7388125 -0.200032E-09  0.246E-04    3.71     117.5  T
     SCC iter.                  ...        0 min,  0.003 sec
     gradient                   ...        0 min,  0.092 sec
 * total energy  :   -21.5633648 Eh     change       -0.9594765E-06 Eh
   gradient norm :     0.0004470 Eh/α   predicted    -0.8108141E-06 ( -15.49%)
   displ. norm   :     0.0077522 α      lambda       -0.3163105E-06
   maximum displ.:     0.0060211 α      in ANC's #2, #3, #6, ...

   *** GEOMETRY OPTIMIZATION CONVERGED AFTER 36 ITERATIONS ***

------------------------------------------------------------------------
 total energy gain   :        -0.0157969 Eh       -9.9127 kcal/mol
 total RMSD          :         0.9664157 a0        0.5114 Å
 total power (kW/mol):        -1.1520740 (step)  -20.7436 (real)
------------------------------------------------------------------------

 ANCopt (total)                0 d,  0 h,  0 min,  1.999 sec
 optimizer setup                ...        0 min,  0.000 sec (  0.017%)
 model hessian                  ...        0 min,  0.008 sec (  0.413%)
 ANC generation                 ...        0 min,  0.001 sec (  0.040%)
 coordinate transformation      ...        0 min,  0.001 sec (  0.066%)
 single point calculation       ...        0 min,  1.884 sec ( 94.218%)
 optimization log               ...        0 min,  0.003 sec (  0.153%)
 hessian update                 ...        0 min,  0.094 sec (  4.720%)
 rational function              ...        0 min,  0.002 sec (  0.121%)

================
 final structure:
================
12
 xtb: 6.2.3 (830e466)
C         2.14257554990298    1.13374177105445   -2.14520044619291
C         0.73002030763851    0.93007643964696   -1.58291778182229
C         0.67520760069163   -0.33878464401584   -0.75767428014909
O         0.31341872407089    1.99699134801616   -0.77053755072905
O         0.05215827176564    3.13451843631520   -1.59448929777814
O         0.30401124863161   -0.44219560567140    0.37124170232169
H        -0.32858737290648    3.75338225207810   -0.95827796977345
H         2.16427415883488    2.05776702596636   -2.71702350836948
H         2.41367300428119    0.30550135119698   -2.79292981292445
H         1.04309764375505   -1.20897454508326   -1.33870661880466
H         0.02120224214236    0.80939220540754   -2.41943352601485
H         2.85794862119176    1.20817396508876   -1.32985090976333
 
 Bond Distances (Angstroems)
 ---------------------------
C1-C2=1.5339         C1-H8=1.0869         C1-H9=1.0858         C1-H12=1.0872        C2-C1=1.5339         C2-C3=1.5146         
C2-O4=1.4042         C2-H11=1.1031        C3-C2=1.5146         C3-O6=1.1929         C3-H10=1.1091        O4-C2=1.4042         
O4-O5=1.4287         O5-O4=1.4287         O5-H7=0.9658         O6-C3=1.1929         H7-O5=0.9658         H8-C1=1.0869         
H9-C1=1.0858         H10-C3=1.1091        H11-C2=1.1031        H12-C1=1.0872        
 C  H  Rav=1.0944 sigma=0.0097  Rmin=1.0858  Rmax=1.1091     5
 C  C  Rav=1.5243 sigma=0.0097  Rmin=1.5146  Rmax=1.5339     2
 O  H  Rav=0.9658 sigma=0.0000  Rmin=0.9658  Rmax=0.9658     1
 O  C  Rav=1.2985 sigma=0.1057  Rmin=1.1929  Rmax=1.4042     2
 O  O  Rav=1.4287 sigma=0.0000  Rmin=1.4287  Rmax=1.4287     1
 
 selected bond angles (degree)
 --------------------
H8-C1-C2=108.91                H9-C1-C2=110.32                H9-C1-H8=109.25                H12-C1-C2=109.88               
H12-C1-H8=108.86               H12-C1-H9=109.59               C3-C2-C1=110.14                O4-C2-C1=112.61                
O4-C2-C3=108.09                H11-C2-C1=109.16               H11-C2-C3=107.35               H11-C2-O4=109.34               
O6-C3-C2=126.84                H10-C3-C2=111.09               H10-C3-O6=122.07               O5-O4-C2=109.00                
H7-O5-O4=101.68                
 
 selected dihedral angles (degree)
 ---------------------------------
C3-C2-C1-H8=181.07            C3-C2-C1-H9= 61.17            C3-C2-C1-H12=300.23           O4-C2-C1-H8=301.80            
O4-C2-C1-H9=181.90            O4-C2-C1-H12= 60.96           H11-C2-C1-H8= 63.44           H11-C2-C1-H9=303.54           
H11-C2-C1-H12=182.60          O6-C3-C2-C1=125.71            O6-C3-C2-O4=  2.30            O6-C3-C2-H11=244.45           
H10-C3-C2-C1=306.19           H10-C3-C2-O4=182.78           H10-C3-C2-H11= 64.93          O5-O4-C2-C1= 71.71            
O5-O4-C2-C3=193.61            O5-O4-C2-H11=310.18           H7-O5-O4-C2=173.00            
           -------------------------------------------------
          |                Final Singlepoint                |
           -------------------------------------------------

          ...................................................
          :                      SETUP                      :
          :.................................................:
          :  # basis functions                  30          :
          :  # atomic orbitals                  30          :
          :  # shells                           18          :
          :  # electrons                        36          :
          :  max. iterations                   100          :
          :  Hamiltonian                  GFN2-xTB          :
          :  restarted?                      false          :
          :  GBSA solvation                  false          :
          :  PC potential                    false          :
          :  electronic temp.          300.0000000     K    :
          :  accuracy                    1.0000000          :
          :  -> integral cutoff          0.2500000E+02      :
          :  -> integral neglect         0.1000000E-07      :
          :  -> SCF convergence          0.1000000E-05 Eh   :
          :  -> wf. convergence          0.1000000E-03 e    :
          :  Broyden damping             0.4000000          :
          ...................................................

 iter      E             dE          RMSdq      gap      omega  full diag
   1    -21.7388125 -0.217388E+02  0.558E-05    3.71       0.0  T
   2    -21.7388125 -0.751044E-11  0.234E-05    3.71    1232.2  T
   3    -21.7388125 -0.820677E-12  0.140E-05    3.71    2059.4  T

   *** convergence criteria satisfied after 3 iterations ***

         #    Occupation            Energy/Eh            Energy/eV
      -------------------------------------------------------------
         1        2.0000           -0.7351495             -20.0044
       ...           ...                  ...                  ...
        12        2.0000           -0.5375699             -14.6280
        13        2.0000           -0.5152028             -14.0194
        14        2.0000           -0.4925346             -13.4025
        15        2.0000           -0.4871216             -13.2553
        16        2.0000           -0.4738579             -12.8943
        17        2.0000           -0.4227325             -11.5031
        18        2.0000           -0.4142382             -11.2720 (HOMO)
        19                         -0.2778339              -7.5602 (LUMO)
        20                         -0.1633728              -4.4456
        21                          0.0550472               1.4979
        22                          0.0805638               2.1923
        23                          0.0916668               2.4944
       ...                                ...                  ...
        30                          0.6247059              16.9991
      -------------------------------------------------------------
                  HL-Gap            0.1364043 Eh            3.7117 eV
             Fermi-level           -0.3460361 Eh           -9.4161 eV

 SCC (total)                   0 d,  0 h,  0 min,  0.098 sec
 SCC setup                      ...        0 min,  0.000 sec (  0.222%)
 Dispersion                     ...        0 min,  0.000 sec (  0.043%)
 integral evaluation            ...        0 min,  0.001 sec (  0.633%)
 zeroth order Hamiltonian       ...        0 min,  0.000 sec (  0.074%)
 iterations                     ...        0 min,  0.004 sec (  4.347%)
 molecular gradient             ...        0 min,  0.092 sec ( 94.254%)
 printout                       ...        0 min,  0.000 sec (  0.214%)

         :::::::::::::::::::::::::::::::::::::::::::::::::::::
         ::                     SUMMARY                     ::
         :::::::::::::::::::::::::::::::::::::::::::::::::::::
         :: total energy             -21.563364760628 Eh    ::
         :: gradient norm              0.000447872067 Eh/a0 ::
         :: HOMO-LUMO gap              3.711749940683 eV    ::
         ::.................................................::
         :: SCC energy               -21.738812496852 Eh    ::
         :: -> isotropic ES            0.046124664600 Eh    ::
         :: -> anisotropic ES         -0.003495934332 Eh    ::
         :: -> anisotropic XC         -0.004472256565 Eh    ::
         :: -> dispersion             -0.005959690440 Eh    ::
         :: repulsion energy           0.175438903540 Eh    ::
         :: add. restraining           0.000000000000 Eh    ::
         :::::::::::::::::::::::::::::::::::::::::::::::::::::

           -------------------------------------------------
          |                Property Printout                |
           -------------------------------------------------

    * Orbital Energies and Occupations

         #    Occupation            Energy/Eh            Energy/eV
      -------------------------------------------------------------
         1        2.0000           -0.7351495             -20.0044
       ...           ...                  ...                  ...
         6        2.0000           -0.6213287             -16.9072
         7        2.0000           -0.6133146             -16.6891
         8        2.0000           -0.5874251             -15.9847
         9        2.0000           -0.5649125             -15.3721
        10        2.0000           -0.5606191             -15.2552
        11        2.0000           -0.5500779             -14.9684
        12        2.0000           -0.5375699             -14.6280
        13        2.0000           -0.5152028             -14.0194
        14        2.0000           -0.4925346             -13.4025
        15        2.0000           -0.4871216             -13.2553
        16        2.0000           -0.4738579             -12.8943
        17        2.0000           -0.4227325             -11.5031
        18        2.0000           -0.4142382             -11.2720 (HOMO)
        19                         -0.2778339              -7.5602 (LUMO)
        20                         -0.1633728              -4.4456
        21                          0.0550472               1.4979
        22                          0.0805638               2.1923
        23                          0.0916668               2.4944
        24                          0.1256338               3.4187
        25                          0.1452615               3.9528
        26                          0.1600563               4.3554
        27                          0.1946639               5.2971
        28                          0.2309795               6.2853
        29                          0.2497851               6.7970
        30                          0.6247059              16.9991
      -------------------------------------------------------------
                  HL-Gap            0.1364043 Eh            3.7117 eV
             Fermi-level           -0.3460361 Eh           -9.4161 eV

     #   Z        covCN         q      C6AA      α(0)
     1   6 C      3.753    -0.119    22.847     6.816
     2   6 C      3.727     0.105    18.944     6.214
     3   6 C      2.758     0.207    23.610     7.957
     4   8 O      1.777    -0.195    17.248     5.608
     5   8 O      1.733    -0.325    19.424     5.951
     6   8 O      0.856    -0.281    19.448     5.913
     7   1 H      0.805     0.325     0.649     1.266
     8   1 H      0.925     0.076     2.025     2.225
     9   1 H      0.925     0.048     2.341     2.393
    10   1 H      0.922     0.032     2.554     2.499
    11   1 H      0.923     0.067     2.114     2.274
    12   1 H      0.925     0.060     2.201     2.320

 Mol. C6AA /au·bohr⁶  :       1234.941392
 Mol. C8AA /au·bohr⁸  :      26199.575474
 Mol. α(0) /au        :         51.435776


Wiberg/Mayer (AO) data.
largest (>0.10) Wiberg bond orders for each atom
          total WBO             WBO to atom ...
     1  C   3.989        H   12 0.986    H    9 0.985    H    8 0.980    C    2 0.974
     2  C   3.949        O    4 0.988    C    1 0.974    C    3 0.970    H   11 0.929
     3  C   3.923        O    6 1.956    C    2 0.970    H   10 0.926
     4  O   2.026        C    2 0.988    O    5 0.973
     5  O   1.901        O    4 0.973    H    7 0.887
     6  O   2.129        C    3 1.956
     7  H   0.894        O    5 0.887
     8  H   0.994        C    1 0.980
     9  H   0.998        C    1 0.985
    10  H   0.999        C    3 0.926
    11  H   0.995        C    2 0.929
    12  H   0.996        C    1 0.986

molecular dipole:
                 x           y           z       tot (Debye)
 q only:        0.333       0.166      -0.834
   full:        0.314       0.204      -0.961       2.622
molecular quadrupole (traceless):
                xx          xy          yy          xz          yz          zz
 q only:       -0.297      -1.422       1.161      -3.107       1.868      -0.864
  q+dip:       -0.112      -2.135       1.814      -2.518       3.743      -1.702
   full:        0.134      -2.222       1.883      -2.383       3.469      -2.017

           -------------------------------------------------
          |                Geometry Summary                 |
           -------------------------------------------------

      molecular mass/u    :       90.0780670
   center of mass at/Å    :        0.6834210       1.1404041      -1.0815622
  moments of inertia/u·Å² :        0.8932144E+02   0.1897418E+03   0.2597615E+03
rotational constants/cm⁻¹ :        0.1887300E+00   0.8884510E-01   0.6489658E-01

 * 9 selected distances

     #   Z        #   Z                                     value/Å
     1   6 C      2   6 C                                 1.5339341 (max)
     2   6 C      4   8 O                                 1.4042172
     4   8 O      5   8 O                                 1.4286782
     3   6 C      6   8 O                                 1.1928671
     5   8 O      7   1 H                                 0.9657766 (min)
     1   6 C      8   1 H                                 1.0868648
     1   6 C      9   1 H                                 1.0858312
     2   6 C     11   1 H                                 1.1030622
     1   6 C     12   1 H                                 1.0872413

 * 5 distinct bonds (by element types)

   Z      Z             #   av. dist./Å        max./Å        min./Å
   1 H    6 C           4     1.0907499     1.1030622     1.0858312
   6 C    6 C           1     1.5339341     1.5339341     1.5339341
   1 H    8 O           1     0.9657766     0.9657766     0.9657766
   6 C    8 O           2     1.2985421     1.4042172     1.1928671
   8 O    8 O           1     1.4286782     1.4286782     1.4286782


optimized geometry written to: xtbopt.xyz


           -------------------------------------------------
          | TOTAL ENERGY              -21.563364760628 Eh   |
          | GRADIENT NORM               0.000447872067 Eh/α |
          | HOMO-LUMO GAP               3.711749940683 eV   |
           -------------------------------------------------

------------------------------------------------------------------------
 * finished run on 2020/12/23 at 21:43:50.067     
------------------------------------------------------------------------
 total:
 * wall-time:     0 d,  0 h,  0 min,  2.428 sec
 *  cpu-time:     0 d,  0 h,  0 min, 10.246 sec
 * ratio c/w:     4.220 speedup
 SCF:
 * wall-time:     0 d,  0 h,  0 min,  0.097 sec
 *  cpu-time:     0 d,  0 h,  0 min,  0.332 sec
 * ratio c/w:     3.418 speedup
 ANC optimizer:
 * wall-time:     0 d,  0 h,  0 min,  2.101 sec
 *  cpu-time:     0 d,  0 h,  0 min,  8.429 sec
 * ratio c/w:     4.012 speedup

