      -----------------------------------------------------------      
     |                   =====================                   |     
     |                           x T B                           |     
     |                   =====================                   |     
     |                         S. Grimme                         |     
     |          Mulliken Center for Theoretical Chemistry        |     
     |                    University of Bonn                     |     
      -----------------------------------------------------------      

   * xtb version 6.2.3 (830e466) compiled by 'ehlert@majestix' on 2020-03-16

   xtb is free software: you can redistribute it and/or modify it under
   the terms of the GNU Lesser General Public License as published by
   the Free Software Foundation, either version 3 of the License, or
   (at your option) any later version.
   
   xtb is distributed in the hope that it will be useful,
   but WITHOUT ANY WARRANTY; without even the implied warranty of
   MERCHANTABILITY or FITNESS FOR A PARTICULAR PURPOSE.  See the
   GNU Lesser General Public License for more details.
   
   Cite this work as:
   * S. Grimme, C. Bannwarth, P. Shushkov, J. Chem. Theory Comput., 2017,
     13, 1989-2009. DOI: 10.1021/acs.jctc.7b00118
   * C. Bannwarth, S. Ehlert and S. Grimme., J. Chem. Theory Comput., 2019,
     15, 1652-1671. DOI: 10.1021/acs.jctc.8b01176
   * P. Pracht, E. Caldeweyher, S. Ehlert, S. Grimme, ChemRxiv, 2019, preprint.
     DOI: 10.26434/chemrxiv.8326202.v1
   
   for DFT-D4:
   * E. Caldeweyher, C. Bannwarth and S. Grimme, J. Chem. Phys., 2017,
     147, 034112. DOI: 10.1063/1.4993215
   * E. Caldeweyher, S. Ehlert, A. Hansen, H. Neugebauer, S. Spicher,
     C. Bannwarth and S. Grimme, J. Chem. Phys., 2019, 150, 154122.
     DOI: 10.1063/1.5090222
   
   for sTDA-xTB:
   * S. Grimme and C. Bannwarth, J. Chem. Phys., 2016, 145, 054103.
     DOI: 10.1063/1.4959605
   
   in the mass-spec context:
   * V. Asgeirsson, C. Bauer and S. Grimme, Chem. Sci., 2017, 8, 4879.
     DOI: 10.1039/c7sc00601b
   
   for metadynamics refer to:
   * S. Grimme, J. Chem. Theory Comput., 2019, 155, 2847-2862
     DOI: 10.1021/acs.jctc.9b00143
   
   with help from (in alphabetical order)
   C. Bannwarth, F. Bohle, G. Brandenburg, E. Caldeweyher, M. Checinski,
   S. Dohm, S. Ehlert, S. Ehrlich, F. März, H. Neugebauer, J. Pisarek,
   P. Pracht, P. Shushkov, and S. Spicher.
   
 * started run on 2020/12/23 at 21:40:19.118     

           -------------------------------------------------
          |                Calculation Setup                |
           -------------------------------------------------

          program call               : xtb -c 0 -u 0 -a 1.0 --iterations 100 --opt normal --namespace product_3 /scratch/bell/zhao922/YARP/paper-example/potential_product/test/reaction_channel/pp_0/pp_12_1.xyz
          hostname                   : bell-fe05.rcac.purdue.edu
          calculation namespace      : product_3
          coordinate file            : /scratch/bell/zhao922/YARP/paper-example/potential_product/test/reaction_channel/pp_0/pp_12_1.xyz
          omp threads                :                    32
          number of atoms            :                    12
          number of electrons        :                    36
          charge                     :                     0
          spin                       :                   0.0
          first test random number   :      0.94411353499146


molecular fragmentation (1/2 indicates fragments):
112112112211
# atoms in fragment 1/2:     8     4
 fragment masses (1/2) :       60.05       30.03
CMA distance (Bohr)    :   8.547
constraining FC (au)   :  0.0500
           ------------------------------------------------- 
          |                 G F N 2 - x T B                 |
          | Geometry, Frequencies, Noncovalent interactions |
          |            JCTC 2019 parametrisation            |
           ------------------------------------------------- 
             k(s)              :                1.8500
             k(p)              :                2.2300
             k(d)              :                2.2300
             k(f)              :                2.0000
             kEN (H0ij)        :               -2.0000
             D4 a1             :                0.5200
             D4 a2             :                5.0000
             D4 s6             :                1.0000
             D4 s8             :                2.7000
             D4 s9             :                5.0000
             alphaj            :                2.0000

  Z AO/shell   Hii/eV     exponent
  1     Wed Apr 25 08:07:45 CEST 2018   EN: 2.200 GM2: 0.406  GM3: 0.0800  RAES: 1.40
     1s    -10.707211    1.230000
  6     Wed Apr 25 08:07:45 CEST 2018   EN: 2.550 GM2: 0.538  GM3: 0.1500  RAES: 3.00
     2s    -13.970922    2.096432
     2p    -10.063292    1.800000
  8     Wed Apr 25 08:07:45 CEST 2018   EN: 3.440 GM2: 0.452  GM3:-0.0517  RAES: 1.80
     2s    -20.229985    2.439742
     2p    -15.503117    2.137023

           ------------------------------------------------- 
          |        Self-Consistent Charge Iterations        |
           ------------------------------------------------- 

          ...................................................
          :                      SETUP                      :
          :.................................................:
          :  # basis functions                  30          :
          :  # atomic orbitals                  30          :
          :  # shells                           18          :
          :  # electrons                        36          :
          :  max. iterations                   100          :
          :  Hamiltonian                  GFN2-xTB          :
          :  restarted?                      false          :
          :  GBSA solvation                  false          :
          :  PC potential                    false          :
          :  electronic temp.          300.0000000     K    :
          :  accuracy                    1.0000000          :
          :  -> integral cutoff          0.2500000E+02      :
          :  -> integral neglect         0.1000000E-07      :
          :  -> SCF convergence          0.1000000E-05 Eh   :
          :  -> wf. convergence          0.1000000E-03 e    :
          :  Broyden damping             0.4000000          :
          ...................................................

 iter      E             dE          RMSdq      gap      omega  full diag
   1    -21.6363477 -0.216363E+02  0.551E+00    3.69       0.0  T
   2    -21.6719997 -0.356521E-01  0.323E+00    2.65       1.0  T
   3    -21.6737925 -0.179276E-02  0.207E+00    2.88       1.0  T
   4    -21.6873237 -0.135313E-01  0.540E-01    2.47       1.0  T
   5    -21.6893215 -0.199778E-02  0.140E-01    2.44       1.0  T
   6    -21.6893950 -0.734983E-04  0.541E-02    2.49       1.0  T
   7    -21.6894002 -0.518406E-05  0.223E-02    2.49       1.3  T
   8    -21.6894043 -0.410307E-05  0.660E-03    2.49       4.4  T
   9    -21.6894045 -0.248010E-06  0.207E-03    2.49      14.0  T
  10    -21.6894045 -0.190405E-07  0.458E-04    2.49      63.0  T
  11    -21.6894045 -0.553392E-09  0.177E-04    2.49     163.4  T

   *** convergence criteria satisfied after 11 iterations ***

         #    Occupation            Energy/Eh            Energy/eV
      -------------------------------------------------------------
         1        2.0000           -0.7597223             -20.6731
       ...           ...                  ...                  ...
        12        2.0000           -0.5408644             -14.7177
        13        2.0000           -0.5030215             -13.6879
        14        2.0000           -0.4888017             -13.3010
        15        2.0000           -0.4697180             -12.7817
        16        2.0000           -0.4456010             -12.1254
        17        2.0000           -0.4268903             -11.6163
        18        2.0000           -0.3916301             -10.6568 (HOMO)
        19                         -0.3001219              -8.1667 (LUMO)
        20                         -0.2069833              -5.6323
        21                         -0.0448309              -1.2199
        22                          0.0810720               2.2061
        23                          0.0940993               2.5606
       ...                                ...                  ...
        30                          0.5504343              14.9781
      -------------------------------------------------------------
                  HL-Gap            0.0915082 Eh            2.4901 eV
             Fermi-level           -0.3458760 Eh           -9.4118 eV

 SCC (total)                   0 d,  0 h,  0 min,  0.090 sec
 SCC setup                      ...        0 min,  0.000 sec (  0.299%)
 Dispersion                     ...        0 min,  0.000 sec (  0.062%)
 integral evaluation            ...        0 min,  0.002 sec (  1.747%)
 zeroth order Hamiltonian       ...        0 min,  0.000 sec (  0.080%)
 iterations                     ...        0 min,  0.085 sec ( 94.505%)
 molecular gradient             ...        0 min,  0.003 sec (  3.055%)
 printout                       ...        0 min,  0.000 sec (  0.079%)

         :::::::::::::::::::::::::::::::::::::::::::::::::::::
         ::                     SUMMARY                     ::
         :::::::::::::::::::::::::::::::::::::::::::::::::::::
         :: total energy             -21.492070176090 Eh    ::
         :: gradient norm              0.156837949878 Eh/a0 ::
         :: HOMO-LUMO gap              2.490064352396 eV    ::
         ::.................................................::
         :: SCC energy               -21.689404545896 Eh    ::
         :: -> isotropic ES            0.040064320076 Eh    ::
         :: -> anisotropic ES          0.002068251232 Eh    ::
         :: -> anisotropic XC         -0.006173701669 Eh    ::
         :: -> dispersion             -0.004914519897 Eh    ::
         :: repulsion energy           0.197320123789 Eh    ::
         :: add. restraining           0.000000000000 Eh    ::
         :::::::::::::::::::::::::::::::::::::::::::::::::::::

      ----------------------------------------------------------- 
     |                   =====================                   |
     |                        A N C O P T                        |
     |                   =====================                   |
     |               Approximate Normal Coordinate               |
     |                Rational Function Optimizer                |
      ----------------------------------------------------------- 

          ...................................................
          :                      SETUP                      :
          :.................................................:
          :   optimization level            normal          :
          :   max. optcycles                   200          :
          :   ANC micro-cycles                  20          :
          :   degrees of freedom                30          :
          :.................................................:
          :   RF solver                   davidson          :
          :   write xtbopt.log                true          :
          :   linear?                        false          :
          :   energy convergence         0.5000000E-05 Eh   :
          :   grad. convergence          0.1000000E-02 Eh/α :
          :   maximium RF displ.         1.0000000          :
          :   Hlow (freq-cutoff)         0.1000000E-01      :
          :   Hmax (freq-cutoff)         5.0000000          :
          :   S6 in model hess.         20.0000000          :
          ...................................................

generating ANC from model Hessian ...
Using Lindh-Hessian (1995)
 Shifting diagonal of input Hessian by   9.932872322994203E-003
 Lowest  eigenvalues of input Hessian
   -0.000000   -0.000000   -0.000000   -0.000000    0.000000    0.000000
    0.010000    0.010351    0.010397    0.010526    0.010610    0.011105
    0.011308    0.021587    0.024149    0.035199    0.057697    0.069564
 Highest eigenvalues
    1.221332    1.332619    1.630297    1.785020    2.111516    2.123016
 

........................................................................
.............................. CYCLE    1 ..............................
........................................................................
   1    -21.6894045 -0.216894E+02  0.728E-05    2.49       0.0  T
   2    -21.6894045 -0.134435E-10  0.526E-05    2.49     549.0  T
   3    -21.6894045 -0.137206E-10  0.327E-05    2.49     881.8  T
     SCC iter.                  ...        0 min,  0.002 sec
     gradient                   ...        0 min,  0.003 sec
 * total energy  :   -21.4920702 Eh     change       -0.2433627E-08 Eh
   gradient norm :     0.1568382 Eh/α   predicted     0.0000000E+00 (-100.00%)
   displ. norm   :     0.1707807 α      lambda       -0.1720501E-01
   maximum displ.:     0.0762547 α      in ANC's #11, #27, #20, ...

........................................................................
.............................. CYCLE    2 ..............................
........................................................................
   1    -21.7076552 -0.217077E+02  0.404E-01    2.86       0.0  T
   2    -21.7078583 -0.203142E-03  0.264E-01    2.83       1.0  T
   3    -21.7077846  0.737185E-04  0.164E-01    2.78       1.0  T
   4    -21.7079329 -0.148336E-03  0.443E-02    2.77       1.0  T
   5    -21.7079416 -0.864894E-05  0.108E-02    2.78       2.7  T
   6    -21.7079417 -0.168963E-06  0.438E-03    2.78       6.6  T
   7    -21.7079418 -0.432664E-07  0.248E-03    2.78      11.6  T
     SCC iter.                  ...        0 min,  0.003 sec
     gradient                   ...        0 min,  0.002 sec
 * total energy  :   -21.5035508 Eh     change       -0.1148065E-01 Eh
   gradient norm :     0.0584761 Eh/α   predicted    -0.8853403E-02 ( -22.88%)
   displ. norm   :     0.5905196 α      lambda       -0.1239009E-01
   maximum displ.:     0.3880784 α      in ANC's #2, #7, #6, ...

........................................................................
.............................. CYCLE    3 ..............................
........................................................................
   1    -21.6719576 -0.216720E+02  0.106E+00    2.14       0.0  T
   2    -21.6722629 -0.305230E-03  0.665E-01    2.14       1.0  T
   3    -21.6717991  0.463793E-03  0.261E-01    2.09       1.0  T
   4    -21.6724343 -0.635186E-03  0.613E-02    2.10       1.0  T
   5    -21.6724455 -0.112423E-04  0.260E-02    2.12       1.1  T
   6    -21.6724460 -0.523509E-06  0.100E-02    2.12       2.9  T
   7    -21.6724461 -0.124766E-06  0.454E-03    2.12       6.4  T
   8    -21.6724463 -0.137050E-06  0.117E-03    2.12      24.6  T
     SCC iter.                  ...        0 min,  0.094 sec
     gradient                   ...        0 min,  0.004 sec
 * total energy  :   -21.4804185 Eh     change        0.2313234E-01 Eh
   gradient norm :     0.1162430 Eh/α   predicted    -0.8355296E-02 (-136.12%)
   displ. norm   :     0.4367313 α      lambda       -0.4786659E-01
   maximum displ.:     0.2981941 α      in ANC's #7, #2, #6, ...

........................................................................
.............................. CYCLE    4 ..............................
........................................................................
   1    -21.7180437 -0.217180E+02  0.760E-01    3.10       0.0  T
   2    -21.7181325 -0.887362E-04  0.467E-01    3.07       1.0  T
   3    -21.7181625 -0.299810E-04  0.682E-02    3.01       1.0  T
   4    -21.7181861 -0.236030E-04  0.312E-02    3.04       1.0  T
   5    -21.7181879 -0.182762E-05  0.101E-02    3.04       2.8  T
   6    -21.7181879 -0.571402E-07  0.288E-03    3.04      10.0  T
   7    -21.7181880 -0.778692E-07  0.799E-04    3.04      36.1  T
     SCC iter.                  ...        0 min,  0.090 sec
     gradient                   ...        0 min,  0.002 sec
 * total energy  :   -21.5058823 Eh     change       -0.2546380E-01 Eh
   gradient norm :     0.0390314 Eh/α   predicted    -0.2849817E-01 (  11.92%)
   displ. norm   :     0.1375374 α      lambda       -0.2942657E-02
   maximum displ.:     0.0795073 α      in ANC's #7, #2, #6, ...

........................................................................
.............................. CYCLE    5 ..............................
........................................................................
   1    -21.7110442 -0.217110E+02  0.241E-01    2.76       0.0  T
   2    -21.7110927 -0.485294E-04  0.155E-01    2.80       1.0  T
   3    -21.7110575  0.351987E-04  0.977E-02    2.84       1.0  T
   4    -21.7111179 -0.603802E-04  0.213E-02    2.85       1.4  T
   5    -21.7111196 -0.166419E-05  0.514E-03    2.84       5.6  T
   6    -21.7111196 -0.451175E-07  0.256E-03    2.84      11.3  T
     SCC iter.                  ...        0 min,  0.003 sec
     gradient                   ...        0 min,  0.002 sec
 * total energy  :   -21.5069002 Eh     change       -0.1017887E-02 Eh
   gradient norm :     0.0179481 Eh/α   predicted    -0.1499164E-02 (  47.28%)
   displ. norm   :     0.0668637 α      lambda       -0.4683955E-03
   maximum displ.:     0.0391965 α      in ANC's #11, #13, #15, ...

........................................................................
.............................. CYCLE    6 ..............................
........................................................................
   1    -21.7134604 -0.217135E+02  0.139E-01    2.93       0.0  T
   2    -21.7134682 -0.772055E-05  0.886E-02    2.92       1.0  T
   3    -21.7134593  0.891535E-05  0.370E-02    2.90       1.0  T
   4    -21.7134710 -0.117322E-04  0.947E-03    2.90       3.0  T
   5    -21.7134715 -0.471118E-06  0.294E-03    2.91       9.8  T
   6    -21.7134715 -0.143156E-07  0.159E-03    2.91      18.2  T
     SCC iter.                  ...        0 min,  0.003 sec
     gradient                   ...        0 min,  0.002 sec
 * total energy  :   -21.5071848 Eh     change       -0.2846673E-03 Eh
   gradient norm :     0.0068218 Eh/α   predicted    -0.2352437E-03 ( -17.36%)
   displ. norm   :     0.0763594 α      lambda       -0.1631986E-03
   maximum displ.:     0.0322514 α      in ANC's #3, #11, #1, ...

........................................................................
.............................. CYCLE    7 ..............................
........................................................................
   1    -21.7148916 -0.217149E+02  0.107E-01    2.94       0.0  T
   2    -21.7148932 -0.158888E-05  0.667E-02    2.94       1.0  T
   3    -21.7148938 -0.571030E-06  0.847E-03    2.94       3.4  T
   4    -21.7148942 -0.420096E-06  0.405E-03    2.94       7.1  T
   5    -21.7148942 -0.480793E-07  0.159E-03    2.94      18.1  T
   6    -21.7148942 -0.317331E-08  0.615E-04    2.94      46.9  T
     SCC iter.                  ...        0 min,  0.003 sec
     gradient                   ...        0 min,  0.002 sec
 * total energy  :   -21.5073151 Eh     change       -0.1302765E-03 Eh
   gradient norm :     0.0065133 Eh/α   predicted    -0.8207556E-04 ( -37.00%)
   displ. norm   :     0.2089152 α      lambda       -0.3046151E-03
   maximum displ.:     0.0865701 α      in ANC's #3, #9, #1, ...

........................................................................
.............................. CYCLE    8 ..............................
........................................................................
   1    -21.7155071 -0.217155E+02  0.285E-01    2.96       0.0  T
   2    -21.7155157 -0.857873E-05  0.177E-01    2.96       1.0  T
   3    -21.7155192 -0.346617E-05  0.194E-02    2.96       1.5  T
   4    -21.7155214 -0.224290E-05  0.958E-03    2.96       3.0  T
   5    -21.7155217 -0.257737E-06  0.375E-03    2.96       7.7  T
   6    -21.7155217 -0.167894E-07  0.653E-04    2.96      44.2  T
   7    -21.7155217 -0.102495E-08  0.417E-04    2.96      69.2  T
     SCC iter.                  ...        0 min,  0.088 sec
     gradient                   ...        0 min,  0.003 sec
 * total energy  :   -21.5075293 Eh     change       -0.2142072E-03 Eh
   gradient norm :     0.0097933 Eh/α   predicted    -0.1589516E-03 ( -25.80%)
   displ. norm   :     0.2355356 α      lambda       -0.2331535E-03
   maximum displ.:     0.1010980 α      in ANC's #1, #3, #4, ...

........................................................................
.............................. CYCLE    9 ..............................
........................................................................
   1    -21.7149199 -0.217149E+02  0.304E-01    2.95       0.0  T
   2    -21.7149290 -0.911638E-05  0.189E-01    2.96       1.0  T
   3    -21.7149354 -0.642993E-05  0.134E-02    2.96       2.2  T
   4    -21.7149355 -0.326632E-07  0.751E-03    2.96       3.8  T
   5    -21.7149356 -0.121098E-06  0.395E-03    2.96       7.3  T
   6    -21.7149357 -0.924982E-07  0.120E-03    2.96      24.1  T
   7    -21.7149357 -0.511697E-08  0.762E-04    2.96      37.9  T
     SCC iter.                  ...        0 min,  0.003 sec
     gradient                   ...        0 min,  0.001 sec
 * total energy  :   -21.5076990 Eh     change       -0.1696524E-03 Eh
   gradient norm :     0.0095570 Eh/α   predicted    -0.1230447E-03 ( -27.47%)
   displ. norm   :     0.2605391 α      lambda       -0.2348620E-03
   maximum displ.:     0.1195493 α      in ANC's #1, #9, #4, ...

........................................................................
.............................. CYCLE   10 ..............................
........................................................................
   1    -21.7136151 -0.217136E+02  0.317E-01    2.93       0.0  T
   2    -21.7136234 -0.825312E-05  0.196E-01    2.94       1.0  T
   3    -21.7136145  0.891633E-05  0.394E-02    2.95       1.0  T
   4    -21.7136298 -0.152883E-04  0.998E-03    2.95       2.9  T
   5    -21.7136299 -0.130566E-06  0.359E-03    2.95       8.0  T
   6    -21.7136299 -0.191302E-07  0.111E-03    2.95      26.1  T
   7    -21.7136299 -0.381118E-08  0.645E-04    2.95      44.8  T
     SCC iter.                  ...        0 min,  0.088 sec
     gradient                   ...        0 min,  0.001 sec
 * total energy  :   -21.5078741 Eh     change       -0.1751181E-03 Eh
   gradient norm :     0.0114665 Eh/α   predicted    -0.1254015E-03 ( -28.39%)
   displ. norm   :     0.3063922 α      lambda       -0.3357833E-03
   maximum displ.:     0.1612723 α      in ANC's #1, #4, #9, ...

........................................................................
.............................. CYCLE   11 ..............................
........................................................................
   1    -21.7133679 -0.217134E+02  0.350E-01    2.89       0.0  T
   2    -21.7133810 -0.131756E-04  0.219E-01    2.91       1.0  T
   3    -21.7133366  0.444367E-04  0.744E-02    2.93       1.0  T
   4    -21.7133936 -0.570213E-04  0.128E-02    2.92       2.2  T
   5    -21.7133938 -0.207446E-06  0.476E-03    2.92       6.1  T
   6    -21.7133939 -0.334223E-07  0.204E-03    2.92      14.2  T
   7    -21.7133939 -0.213924E-07  0.895E-04    2.92      32.2  T
     SCC iter.                  ...        0 min,  0.003 sec
     gradient                   ...        0 min,  0.001 sec
 * total energy  :   -21.5080832 Eh     change       -0.2090504E-03 Eh
   gradient norm :     0.0145469 Eh/α   predicted    -0.1836538E-03 ( -12.15%)
   displ. norm   :     0.4187157 α      lambda       -0.4106195E-03
   maximum displ.:     0.2009917 α      in ANC's #1, #9, #7, ...

........................................................................
.............................. CYCLE   12 ..............................
........................................................................
   1    -21.7105825 -0.217106E+02  0.440E-01    2.88       0.0  T
   2    -21.7105998 -0.172844E-04  0.272E-01    2.91       1.0  T
   3    -21.7104553  0.144484E-03  0.130E-01    2.94       1.0  T
   4    -21.7106234 -0.168070E-03  0.115E-02    2.93       2.5  T
   5    -21.7106235 -0.146454E-06  0.474E-03    2.93       6.1  T
   6    -21.7106235 -0.175677E-07  0.231E-03    2.93      12.5  T
   7    -21.7106235 -0.179469E-07  0.628E-04    2.93      46.0  T
     SCC iter.                  ...        0 min,  0.002 sec
     gradient                   ...        0 min,  0.003 sec
 * total energy  :   -21.5082468 Eh     change       -0.1636514E-03 Eh
   gradient norm :     0.0231260 Eh/α   predicted    -0.2413101E-03 (  47.45%)
   displ. norm   :     0.1537555 α      lambda       -0.5720414E-03
   maximum displ.:     0.0804876 α      in ANC's #1, #7, #2, ...

........................................................................
.............................. CYCLE   13 ..............................
........................................................................
   1    -21.7166664 -0.217167E+02  0.135E-01    2.95       0.0  T
   2    -21.7166761 -0.971297E-05  0.859E-02    2.95       1.0  T
   3    -21.7166848 -0.872947E-05  0.595E-02    2.96       1.0  T
   4    -21.7166987 -0.138468E-04  0.546E-03    2.96       5.3  T
   5    -21.7166987 -0.656378E-07  0.223E-03    2.96      12.9  T
   6    -21.7166988 -0.103420E-07  0.117E-03    2.96      24.7  T
     SCC iter.                  ...        0 min,  0.002 sec
     gradient                   ...        0 min,  0.002 sec
 * total energy  :   -21.5085557 Eh     change       -0.3089112E-03 Eh
   gradient norm :     0.0119095 Eh/α   predicted    -0.2927817E-03 (  -5.22%)
   displ. norm   :     0.4674648 α      lambda       -0.6546989E-03
   maximum displ.:     0.2812251 α      in ANC's #1, #3, #7, ...

........................................................................
.............................. CYCLE   14 ..............................
........................................................................
   1    -21.7148807 -0.217149E+02  0.472E-01    3.04       0.0  T
   2    -21.7149202 -0.395017E-04  0.291E-01    3.07       1.0  T
   3    -21.7148201  0.100134E-03  0.117E-01    3.08       1.0  T
   4    -21.7149446 -0.124452E-03  0.188E-02    3.08       1.5  T
   5    -21.7149457 -0.109060E-05  0.994E-03    3.08       2.9  T
   6    -21.7149458 -0.117339E-06  0.299E-03    3.08       9.7  T
   7    -21.7149458 -0.308225E-07  0.159E-03    3.08      18.2  T
     SCC iter.                  ...        0 min,  0.003 sec
     gradient                   ...        0 min,  0.001 sec
 * total energy  :   -21.5088186 Eh     change       -0.2628678E-03 Eh
   gradient norm :     0.0118995 Eh/α   predicted    -0.3988842E-03 (  51.74%)
   displ. norm   :     0.2939692 α      lambda       -0.4276196E-03
   maximum displ.:     0.1810175 α      in ANC's #1, #2, #7, ...

........................................................................
.............................. CYCLE   15 ..............................
........................................................................
   1    -21.7139853 -0.217140E+02  0.227E-01    3.06       0.0  T
   2    -21.7139961 -0.108350E-04  0.139E-01    3.09       1.0  T
   3    -21.7139503  0.458493E-04  0.819E-02    3.12       1.0  T
   4    -21.7140078 -0.574927E-04  0.891E-03    3.12       3.2  T
   5    -21.7140079 -0.191067E-06  0.373E-03    3.12       7.7  T
   6    -21.7140080 -0.252126E-07  0.218E-03    3.12      13.2  T
   7    -21.7140080 -0.124123E-07  0.725E-04    3.12      39.8  T
     SCC iter.                  ...        0 min,  0.088 sec
     gradient                   ...        0 min,  0.003 sec
 * total energy  :   -21.5090899 Eh     change       -0.2712723E-03 Eh
   gradient norm :     0.0097256 Eh/α   predicted    -0.2322846E-03 ( -14.37%)
   displ. norm   :     0.2061899 α      lambda       -0.3224496E-03
   maximum displ.:     0.1580744 α      in ANC's #1, #2, #6, ...

........................................................................
.............................. CYCLE   16 ..............................
........................................................................
   1    -21.7157202 -0.217157E+02  0.147E-01    3.10       0.0  T
   2    -21.7157298 -0.963829E-05  0.915E-02    3.12       1.0  T
   3    -21.7157202  0.966570E-05  0.664E-02    3.13       1.0  T
   4    -21.7157443 -0.241448E-04  0.803E-03    3.14       3.6  T
   5    -21.7157445 -0.161658E-06  0.362E-03    3.14       8.0  T
   6    -21.7157445 -0.211415E-07  0.204E-03    3.14      14.1  T
   7    -21.7157445 -0.121146E-07  0.783E-04    3.14      36.9  T
     SCC iter.                  ...        0 min,  0.003 sec
     gradient                   ...        0 min,  0.001 sec
 * total energy  :   -21.5092286 Eh     change       -0.1387078E-03 Eh
   gradient norm :     0.0086946 Eh/α   predicted    -0.1680801E-03 (  21.18%)
   displ. norm   :     0.4305435 α      lambda       -0.2852204E-03
   maximum displ.:     0.3096499 α      in ANC's #1, #7, #2, ...

........................................................................
.............................. CYCLE   17 ..............................
........................................................................
   1    -21.7135670 -0.217136E+02  0.312E-01    3.17       0.0  T
   2    -21.7135895 -0.224238E-04  0.189E-01    3.22       1.0  T
   3    -21.7135751  0.144129E-04  0.496E-02    3.26       1.0  T
   4    -21.7135939 -0.188099E-04  0.144E-02    3.26       2.0  T
   5    -21.7135953 -0.146565E-05  0.526E-03    3.25       5.5  T
   6    -21.7135954 -0.427347E-07  0.264E-03    3.25      10.9  T
   7    -21.7135954 -0.160158E-07  0.107E-03    3.25      27.1  T
     SCC iter.                  ...        0 min,  0.088 sec
     gradient                   ...        0 min,  0.002 sec
 * total energy  :   -21.5093623 Eh     change       -0.1337229E-03 Eh
   gradient norm :     0.0094820 Eh/α   predicted    -0.1690498E-03 (  26.42%)
   displ. norm   :     0.0797183 α      lambda       -0.1798934E-03
   maximum displ.:     0.0303313 α      in ANC's #2, #4, #1, ...

........................................................................
.............................. CYCLE   18 ..............................
........................................................................
   1    -21.7166877 -0.217167E+02  0.863E-02    3.29       0.0  T
   2    -21.7166908 -0.310327E-05  0.517E-02    3.28       1.0  T
   3    -21.7166859  0.482208E-05  0.288E-02    3.27       1.0  T
   4    -21.7166925 -0.659062E-05  0.570E-03    3.27       5.1  T
   5    -21.7166926 -0.927615E-07  0.246E-03    3.27      11.7  T
   6    -21.7166926 -0.152553E-07  0.150E-03    3.27      19.3  T
     SCC iter.                  ...        0 min,  0.002 sec
     gradient                   ...        0 min,  0.001 sec
 * total energy  :   -21.5094341 Eh     change       -0.7178823E-04 Eh
   gradient norm :     0.0066440 Eh/α   predicted    -0.9051675E-04 (  26.09%)
   displ. norm   :     0.0778646 α      lambda       -0.8684619E-04
   maximum displ.:     0.0601501 α      in ANC's #1, #6, #9, ...

........................................................................
.............................. CYCLE   19 ..............................
........................................................................
   1    -21.7159937 -0.217160E+02  0.746E-02    3.25       0.0  T
   2    -21.7159953 -0.156315E-05  0.466E-02    3.26       1.0  T
   3    -21.7159913  0.397332E-05  0.241E-02    3.27       1.2  T
   4    -21.7159964 -0.511697E-05  0.381E-03    3.27       7.6  T
   5    -21.7159965 -0.379061E-07  0.163E-03    3.27      17.7  T
   6    -21.7159965 -0.135592E-08  0.774E-04    3.27      37.3  T
     SCC iter.                  ...        0 min,  0.003 sec
     gradient                   ...        0 min,  0.087 sec
 * total energy  :   -21.5094972 Eh     change       -0.6315196E-04 Eh
   gradient norm :     0.0042583 Eh/α   predicted    -0.4368497E-04 ( -30.83%)
   displ. norm   :     0.1968537 α      lambda       -0.1405560E-03
   maximum displ.:     0.1701632 α      in ANC's #1, #6, #4, ...

........................................................................
.............................. CYCLE   20 ..............................
........................................................................
   1    -21.7157042 -0.217157E+02  0.176E-01    3.27       0.0  T
   2    -21.7157082 -0.401414E-05  0.110E-01    3.28       1.0  T
   3    -21.7156922  0.160031E-04  0.451E-02    3.30       1.0  T
   4    -21.7157120 -0.197931E-04  0.677E-03    3.29       4.3  T
   5    -21.7157121 -0.501113E-07  0.261E-03    3.29      11.1  T
   6    -21.7157121 -0.714010E-08  0.732E-04    3.29      39.4  T
     SCC iter.                  ...        0 min,  0.003 sec
     gradient                   ...        0 min,  0.002 sec
 * total energy  :   -21.5095817 Eh     change       -0.8446493E-04 Eh
   gradient norm :     0.0042947 Eh/α   predicted    -0.7300307E-04 ( -13.57%)
   displ. norm   :     0.2043928 α      lambda       -0.9939206E-04
   maximum displ.:     0.1801502 α      in ANC's #1, #3, #6, ...
 * RMSD in coord.:     0.9410756 α      energy gain  -0.1751152E-01 Eh

generating ANC from model Hessian ...
Using Lindh-Hessian (1995)
 Shifting diagonal of input Hessian by   9.786844217875686E-003
 Lowest  eigenvalues of input Hessian
   -0.000000   -0.000000   -0.000000   -0.000000    0.000000    0.000000
    0.010000    0.010471    0.010604    0.010904    0.011746    0.011968
    0.012274    0.021308    0.029922    0.036140    0.040977    0.065794
 Highest eigenvalues
    1.250361    1.252069    1.366824    1.732313    2.065898    2.216356
 

........................................................................
.............................. CYCLE   21 ..............................
........................................................................
   1    -21.7146133 -0.217146E+02  0.172E-01    3.31       0.0  T
   2    -21.7146149 -0.168728E-05  0.105E-01    3.31       1.0  T
   3    -21.7146093  0.564685E-05  0.269E-02    3.32       1.1  T
   4    -21.7146164 -0.710691E-05  0.516E-03    3.32       5.6  T
   5    -21.7146164 -0.182297E-07  0.178E-03    3.31      16.2  T
   6    -21.7146164 -0.331670E-08  0.576E-04    3.32      50.1  T
   7    -21.7146164 -0.137257E-08  0.249E-04    3.32     116.0  T
     SCC iter.                  ...        0 min,  0.088 sec
     gradient                   ...        0 min,  0.003 sec
 * total energy  :   -21.5096343 Eh     change       -0.5262388E-04 Eh
   gradient norm :     0.0058172 Eh/α   predicted     0.0000000E+00 (-100.00%)
   displ. norm   :     0.1019990 α      lambda       -0.1889471E-03
   maximum displ.:     0.0513902 α      in ANC's #7, #3, #1, ...

........................................................................
.............................. CYCLE   22 ..............................
........................................................................
   1    -21.7148539 -0.217149E+02  0.193E-01    3.28       0.0  T
   2    -21.7148637 -0.984808E-05  0.121E-01    3.25       1.0  T
   3    -21.7148652 -0.150065E-05  0.201E-02    3.22       1.4  T
   4    -21.7148672 -0.200876E-05  0.832E-03    3.23       3.5  T
   5    -21.7148675 -0.236898E-06  0.460E-03    3.23       6.3  T
   6    -21.7148675 -0.502176E-07  0.245E-03    3.23      11.8  T
   7    -21.7148676 -0.244661E-07  0.700E-04    3.23      41.2  T
     SCC iter.                  ...        0 min,  0.002 sec
     gradient                   ...        0 min,  0.001 sec
 * total energy  :   -21.5092741 Eh     change        0.3601800E-03 Eh
   gradient norm :     0.0131195 Eh/α   predicted    -0.9545695E-04 (-126.50%)
   displ. norm   :     0.1121157 α      lambda       -0.1003215E-02
   maximum displ.:     0.0799310 α      in ANC's #7, #6, #9, ...

........................................................................
.............................. CYCLE   23 ..............................
........................................................................
   1    -21.7173880 -0.217174E+02  0.184E-01    3.27       0.0  T
   2    -21.7173927 -0.466160E-05  0.117E-01    3.28       1.0  T
   3    -21.7173950 -0.231546E-05  0.948E-03    3.28       3.0  T
   4    -21.7173952 -0.234018E-06  0.583E-03    3.28       5.0  T
   5    -21.7173953 -0.128191E-06  0.314E-03    3.28       9.2  T
   6    -21.7173954 -0.203584E-07  0.109E-03    3.28      26.4  T
   7    -21.7173954 -0.636079E-08  0.303E-04    3.28      95.3  T
     SCC iter.                  ...        0 min,  0.002 sec
     gradient                   ...        0 min,  0.002 sec
 * total energy  :   -21.5096828 Eh     change       -0.4086154E-03 Eh
   gradient norm :     0.0052980 Eh/α   predicted    -0.5079108E-03 (  24.30%)
   displ. norm   :     0.0716776 α      lambda       -0.2268377E-03
   maximum displ.:     0.0460093 α      in ANC's #12, #8, #11, ...

........................................................................
.............................. CYCLE   24 ..............................
........................................................................
   1    -21.7162025 -0.217162E+02  0.107E-01    3.28       0.0  T
   2    -21.7162040 -0.148434E-05  0.646E-02    3.29       1.0  T
   3    -21.7162011  0.289163E-05  0.191E-02    3.31       1.5  T
   4    -21.7162044 -0.335622E-05  0.371E-03    3.31       7.8  T
   5    -21.7162045 -0.784300E-07  0.148E-03    3.30      19.5  T
   6    -21.7162045 -0.145389E-07  0.508E-04    3.30      56.8  T
     SCC iter.                  ...        0 min,  0.003 sec
     gradient                   ...        0 min,  0.002 sec
 * total energy  :   -21.5097290 Eh     change       -0.4620912E-04 Eh
   gradient norm :     0.0026522 Eh/α   predicted    -0.1140035E-03 ( 146.71%)
   displ. norm   :     0.0569363 α      lambda       -0.8493183E-04
   maximum displ.:     0.0338021 α      in ANC's #1, #9, #8, ...

........................................................................
.............................. CYCLE   25 ..............................
........................................................................
   1    -21.7165265 -0.217165E+02  0.111E-01    3.30       0.0  T
   2    -21.7165283 -0.178235E-05  0.701E-02    3.29       1.0  T
   3    -21.7165288 -0.515499E-06  0.813E-03    3.28       3.5  T
   4    -21.7165292 -0.429140E-06  0.337E-03    3.28       8.6  T
   5    -21.7165293 -0.182399E-07  0.167E-03    3.28      17.2  T
   6    -21.7165293 -0.702225E-08  0.920E-04    3.28      31.4  T
   7    -21.7165293 -0.375141E-08  0.197E-04    3.28     146.8  T
     SCC iter.                  ...        0 min,  0.091 sec
     gradient                   ...        0 min,  0.002 sec
 * total energy  :   -21.5097816 Eh     change       -0.5264424E-04 Eh
   gradient norm :     0.0014291 Eh/α   predicted    -0.4260405E-04 ( -19.07%)
   displ. norm   :     0.0988825 α      lambda       -0.2897788E-04
   maximum displ.:     0.0715371 α      in ANC's #1, #9, #2, ...

........................................................................
.............................. CYCLE   26 ..............................
........................................................................
   1    -21.7164313 -0.217164E+02  0.187E-01    3.28       0.0  T
   2    -21.7164360 -0.463039E-05  0.120E-01    3.28       1.0  T
   3    -21.7164390 -0.302120E-05  0.766E-03    3.27       3.8  T
   4    -21.7164392 -0.197501E-06  0.421E-03    3.27       6.9  T
   5    -21.7164392 -0.241663E-07  0.147E-03    3.27      19.6  T
   6    -21.7164392 -0.863068E-09  0.666E-04    3.27      43.3  T
   7    -21.7164392 -0.348657E-08  0.245E-04    3.27     117.7  T
     SCC iter.                  ...        0 min,  0.003 sec
     gradient                   ...        0 min,  0.001 sec
 * total energy  :   -21.5098128 Eh     change       -0.3114707E-04 Eh
   gradient norm :     0.0027059 Eh/α   predicted    -0.1455191E-04 ( -53.28%)
   displ. norm   :     0.1165101 α      lambda       -0.4141434E-04
   maximum displ.:     0.0903302 α      in ANC's #1, #2, #9, ...

........................................................................
.............................. CYCLE   27 ..............................
........................................................................
   1    -21.7162962 -0.217163E+02  0.190E-01    3.28       0.0  T
   2    -21.7163007 -0.450844E-05  0.122E-01    3.27       1.0  T
   3    -21.7163039 -0.315509E-05  0.732E-03    3.27       3.9  T
   4    -21.7163039 -0.467471E-07  0.474E-03    3.27       6.1  T
   5    -21.7163040 -0.561504E-07  0.153E-03    3.27      18.9  T
   6    -21.7163040 -0.128400E-07  0.622E-04    3.27      46.4  T
   7    -21.7163040 -0.226643E-08  0.215E-04    3.27     134.6  T
     SCC iter.                  ...        0 min,  0.003 sec
     gradient                   ...        0 min,  0.001 sec
 * total energy  :   -21.5098463 Eh     change       -0.3357729E-04 Eh
   gradient norm :     0.0031915 Eh/α   predicted    -0.2098582E-04 ( -37.50%)
   displ. norm   :     0.2321232 α      lambda       -0.7024424E-04
   maximum displ.:     0.1854955 α      in ANC's #1, #2, #9, ...

........................................................................
.............................. CYCLE   28 ..............................
........................................................................
   1    -21.7158795 -0.217159E+02  0.328E-01    3.28       0.0  T
   2    -21.7158916 -0.120671E-04  0.209E-01    3.28       1.0  T
   3    -21.7158971 -0.558591E-05  0.211E-02    3.27       1.4  T
   4    -21.7159003 -0.316581E-05  0.103E-02    3.28       2.8  T
   5    -21.7159005 -0.159981E-06  0.217E-03    3.28      13.3  T
   6    -21.7159005 -0.225947E-07  0.831E-04    3.28      34.8  T
   7    -21.7159005 -0.261343E-08  0.329E-04    3.28      87.8  T
     SCC iter.                  ...        0 min,  0.004 sec
     gradient                   ...        0 min,  0.002 sec
 * total energy  :   -21.5098929 Eh     change       -0.4658655E-04 Eh
   gradient norm :     0.0041124 Eh/α   predicted    -0.3701191E-04 ( -20.55%)
   displ. norm   :     0.1717740 α      lambda       -0.5564377E-04
   maximum displ.:     0.1410597 α      in ANC's #1, #2, #4, ...

........................................................................
.............................. CYCLE   29 ..............................
........................................................................
   1    -21.7161275 -0.217161E+02  0.178E-01    3.28       0.0  T
   2    -21.7161302 -0.271889E-05  0.112E-01    3.28       1.0  T
   3    -21.7161296  0.622447E-06  0.173E-02    3.28       1.7  T
   4    -21.7161322 -0.264227E-05  0.612E-03    3.28       4.7  T
   5    -21.7161323 -0.340112E-07  0.868E-04    3.28      33.2  T
   6    -21.7161323 -0.499170E-09  0.302E-04    3.28      95.7  T
     SCC iter.                  ...        0 min,  0.002 sec
     gradient                   ...        0 min,  0.003 sec
 * total energy  :   -21.5099334 Eh     change       -0.4043492E-04 Eh
   gradient norm :     0.0018450 Eh/α   predicted    -0.2864099E-04 ( -29.17%)
   displ. norm   :     0.3940199 α      lambda       -0.5086462E-04
   maximum displ.:     0.3111034 α      in ANC's #1, #2, #4, ...

........................................................................
.............................. CYCLE   30 ..............................
........................................................................
   1    -21.7154382 -0.217154E+02  0.455E-01    3.31       0.0  T
   2    -21.7154598 -0.215435E-04  0.287E-01    3.31       1.0  T
   3    -21.7154339  0.258059E-04  0.663E-02    3.31       1.0  T
   4    -21.7154772 -0.432047E-04  0.160E-02    3.32       1.8  T
   5    -21.7154774 -0.200245E-06  0.316E-03    3.32       9.1  T
   6    -21.7154774 -0.449889E-08  0.784E-04    3.32      36.8  T
   7    -21.7154774 -0.361801E-09  0.336E-04    3.32      85.8  T
     SCC iter.                  ...        0 min,  0.002 sec
     gradient                   ...        0 min,  0.001 sec
 * total energy  :   -21.5099670 Eh     change       -0.3367850E-04 Eh
   gradient norm :     0.0046201 Eh/α   predicted    -0.2718859E-04 ( -19.27%)
   displ. norm   :     0.0932040 α      lambda       -0.6223130E-04
   maximum displ.:     0.0566860 α      in ANC's #1, #3, #6, ...

........................................................................
.............................. CYCLE   31 ..............................
........................................................................
   1    -21.7171082 -0.217171E+02  0.676E-02    3.33       0.0  T
   2    -21.7171091 -0.933909E-06  0.411E-02    3.33       1.0  T
   3    -21.7171090  0.106701E-06  0.803E-03    3.34       3.6  T
   4    -21.7171094 -0.384185E-06  0.350E-03    3.34       8.3  T
   5    -21.7171094 -0.647702E-07  0.174E-03    3.34      16.6  T
   6    -21.7171094 -0.721779E-08  0.934E-04    3.34      30.9  T
     SCC iter.                  ...        0 min,  0.002 sec
     gradient                   ...        0 min,  0.001 sec
 * total energy  :   -21.5099842 Eh     change       -0.1715715E-04 Eh
   gradient norm :     0.0031536 Eh/α   predicted    -0.3138468E-04 (  82.92%)
   displ. norm   :     0.0452366 α      lambda       -0.1982604E-04
   maximum displ.:     0.0257502 α      in ANC's #1, #4, #2, ...

........................................................................
.............................. CYCLE   32 ..............................
........................................................................
   1    -21.7165726 -0.217166E+02  0.695E-02    3.34       0.0  T
   2    -21.7165732 -0.627922E-06  0.443E-02    3.34       1.0  T
   3    -21.7165725  0.659200E-06  0.106E-02    3.34       2.7  T
   4    -21.7165736 -0.110259E-05  0.241E-03    3.34      12.0  T
   5    -21.7165736 -0.120686E-07  0.107E-03    3.34      27.1  T
   6    -21.7165736 -0.281577E-09  0.307E-04    3.34      94.0  T
   7    -21.7165736 -0.544283E-09  0.929E-05    3.34     310.8  T
     SCC iter.                  ...        0 min,  0.003 sec
     gradient                   ...        0 min,  0.001 sec
 * total energy  :   -21.5099970 Eh     change       -0.1282475E-04 Eh
   gradient norm :     0.0009153 Eh/α   predicted    -0.9934841E-05 ( -22.53%)
   displ. norm   :     0.0815170 α      lambda       -0.9152367E-05
   maximum displ.:     0.0586520 α      in ANC's #4, #2, #1, ...

........................................................................
.............................. CYCLE   33 ..............................
........................................................................
   1    -21.7161452 -0.217161E+02  0.100E-01    3.34       0.0  T
   2    -21.7161462 -0.102923E-05  0.629E-02    3.34       1.0  T
   3    -21.7161458  0.443184E-06  0.116E-02    3.35       2.5  T
   4    -21.7161470 -0.119736E-05  0.407E-03    3.35       7.1  T
   5    -21.7161470 -0.187507E-07  0.886E-04    3.35      32.6  T
   6    -21.7161470 -0.461792E-09  0.212E-04    3.35     136.0  T
     SCC iter.                  ...        0 min,  0.092 sec
     gradient                   ...        0 min,  0.002 sec
 * total energy  :   -21.5100055 Eh     change       -0.8447490E-05 Eh
   gradient norm :     0.0021257 Eh/α   predicted    -0.4589273E-05 ( -45.67%)
   displ. norm   :     0.0501595 α      lambda       -0.1007992E-04
   maximum displ.:     0.0414998 α      in ANC's #4, #2, #9, ...

........................................................................
.............................. CYCLE   34 ..............................
........................................................................
   1    -21.7161311 -0.217161E+02  0.529E-02    3.34       0.0  T
   2    -21.7161312 -0.153828E-06  0.321E-02    3.35       1.0  T
   3    -21.7161313 -0.533266E-07  0.258E-03    3.35      11.2  T
   4    -21.7161313 -0.118252E-07  0.177E-03    3.35      16.3  T
   5    -21.7161313 -0.140311E-07  0.601E-04    3.35      48.0  T
   6    -21.7161313 -0.285748E-09  0.192E-04    3.35     150.3  T
     SCC iter.                  ...        0 min,  0.002 sec
     gradient                   ...        0 min,  0.001 sec
 * total energy  :   -21.5100142 Eh     change       -0.8761869E-05 Eh
   gradient norm :     0.0020968 Eh/α   predicted    -0.5052189E-05 ( -42.34%)
   displ. norm   :     0.1720234 α      lambda       -0.3250754E-04
   maximum displ.:     0.1373795 α      in ANC's #4, #2, #1, ...

........................................................................
.............................. CYCLE   35 ..............................
........................................................................
   1    -21.7160005 -0.217160E+02  0.181E-01    3.35       0.0  T
   2    -21.7160018 -0.131722E-05  0.110E-01    3.35       1.0  T
   3    -21.7160022 -0.411606E-06  0.788E-03    3.36       3.7  T
   4    -21.7160024 -0.173292E-06  0.515E-03    3.36       5.6  T
   5    -21.7160025 -0.102159E-06  0.171E-03    3.36      16.9  T
   6    -21.7160025 -0.379752E-08  0.672E-04    3.36      43.0  T
   7    -21.7160025 -0.235820E-08  0.178E-04    3.36     162.4  T
     SCC iter.                  ...        0 min,  0.294 sec
     gradient                   ...        0 min,  0.001 sec
 * total energy  :   -21.5100338 Eh     change       -0.1956262E-04 Eh
   gradient norm :     0.0024291 Eh/α   predicted    -0.1673685E-04 ( -14.44%)
   displ. norm   :     0.0684035 α      lambda       -0.1056557E-04
   maximum displ.:     0.0478105 α      in ANC's #4, #2, #3, ...

........................................................................
.............................. CYCLE   36 ..............................
........................................................................
   1    -21.7160456 -0.217160E+02  0.818E-02    3.36       0.0  T
   2    -21.7160460 -0.352175E-06  0.502E-02    3.36       1.0  T
   3    -21.7160456  0.357444E-06  0.807E-03    3.36       3.6  T
   4    -21.7160462 -0.605603E-06  0.261E-03    3.36      11.1  T
   5    -21.7160462 -0.645289E-08  0.556E-04    3.36      51.9  T
   6    -21.7160462 -0.213312E-09  0.180E-04    3.36     160.8  T
     SCC iter.                  ...        0 min,  0.001 sec
     gradient                   ...        0 min,  0.001 sec
 * total energy  :   -21.5100420 Eh     change       -0.8170855E-05 Eh
   gradient norm :     0.0024069 Eh/α   predicted    -0.5309146E-05 ( -35.02%)
   displ. norm   :     0.1049937 α      lambda       -0.1968558E-04
   maximum displ.:     0.0663856 α      in ANC's #4, #2, #3, ...

........................................................................
.............................. CYCLE   37 ..............................
........................................................................
   1    -21.7168278 -0.217168E+02  0.129E-01    3.37       0.0  T
   2    -21.7168288 -0.957181E-06  0.793E-02    3.37       1.0  T
   3    -21.7168282  0.620967E-06  0.121E-02    3.36       2.4  T
   4    -21.7168295 -0.131724E-05  0.430E-03    3.36       6.7  T
   5    -21.7168295 -0.161520E-07  0.824E-04    3.36      35.0  T
   6    -21.7168295 -0.162310E-08  0.360E-04    3.36      80.1  T
     SCC iter.                  ...        0 min,  0.092 sec
     gradient                   ...        0 min,  0.001 sec
 * total energy  :   -21.5100542 Eh     change       -0.1225372E-04 Eh
   gradient norm :     0.0012851 Eh/α   predicted    -0.9951297E-05 ( -18.79%)
   displ. norm   :     0.2715171 α      lambda       -0.1736383E-04
   maximum displ.:     0.1869910 α      in ANC's #2, #4, #5, ...

........................................................................
.............................. CYCLE   38 ..............................
........................................................................
   1    -21.7137855 -0.217138E+02  0.356E-01    3.33       0.0  T
   2    -21.7137955 -0.996999E-05  0.221E-01    3.34       1.0  T
   3    -21.7137772  0.182702E-04  0.516E-02    3.34       1.0  T
   4    -21.7138036 -0.263162E-04  0.127E-02    3.35       2.3  T
   5    -21.7138037 -0.101894E-06  0.282E-03    3.34      10.2  T
   6    -21.7138037 -0.722438E-08  0.978E-04    3.34      29.5  T
   7    -21.7138037 -0.269510E-08  0.455E-04    3.34      63.4  T
     SCC iter.                  ...        0 min,  0.003 sec
     gradient                   ...        0 min,  0.001 sec
 * total energy  :   -21.5100231 Eh     change        0.3107823E-04 Eh
   gradient norm :     0.0090077 Eh/α   predicted    -0.8964503E-05 (-128.84%)
   displ. norm   :     0.1249789 α      lambda       -0.8040877E-04
   maximum displ.:     0.0916194 α      in ANC's #4, #2, #5, ...

........................................................................
.............................. CYCLE   39 ..............................
........................................................................
   1    -21.7161564 -0.217162E+02  0.150E-01    3.37       0.0  T
   2    -21.7161583 -0.192781E-05  0.922E-02    3.36       1.0  T
   3    -21.7161536  0.473003E-05  0.248E-02    3.36       1.2  T
   4    -21.7161597 -0.610379E-05  0.546E-03    3.36       5.3  T
   5    -21.7161597 -0.331606E-07  0.210E-03    3.36      13.7  T
   6    -21.7161597 -0.158200E-08  0.651E-04    3.36      44.3  T
     SCC iter.                  ...        0 min,  0.092 sec
     gradient                   ...        0 min,  0.001 sec
 * total energy  :   -21.5100677 Eh     change       -0.4456801E-04 Eh
   gradient norm :     0.0026889 Eh/α   predicted    -0.4083316E-04 (  -8.38%)
   displ. norm   :     0.0181816 α      lambda       -0.1307554E-04
   maximum displ.:     0.0107574 α      in ANC's #2, #3, #9, ...

........................................................................
.............................. CYCLE   40 ..............................
........................................................................
   1    -21.7167330 -0.217167E+02  0.344E-02    3.37       0.0  T
   2    -21.7167332 -0.218006E-06  0.220E-02    3.37       1.3  T
   3    -21.7167330  0.186569E-06  0.565E-03    3.36       5.1  T
   4    -21.7167333 -0.314881E-06  0.127E-03    3.36      22.8  T
   5    -21.7167333 -0.541201E-08  0.447E-04    3.36      64.5  T
   6    -21.7167333 -0.140261E-10  0.150E-04    3.36     191.8  T
     SCC iter.                  ...        0 min,  0.001 sec
     gradient                   ...        0 min,  0.001 sec
 * total energy  :   -21.5100775 Eh     change       -0.9807914E-05 Eh
   gradient norm :     0.0014749 Eh/α   predicted    -0.6539198E-05 ( -33.33%)
   displ. norm   :     0.0969066 α      lambda       -0.2125652E-04
   maximum displ.:     0.0788198 α      in ANC's #2, #3, #9, ...

........................................................................
.............................. CYCLE   41 ..............................
........................................................................
   1    -21.7178890 -0.217179E+02  0.153E-01    3.38       0.0  T
   2    -21.7178915 -0.251812E-05  0.965E-02    3.37       1.0  T
   3    -21.7178916 -0.137337E-06  0.129E-02    3.36       2.2  T
   4    -21.7178931 -0.142295E-05  0.511E-03    3.36       5.7  T
   5    -21.7178931 -0.629139E-07  0.173E-03    3.36      16.7  T
   6    -21.7178931 -0.894506E-09  0.479E-04    3.36      60.2  T
   7    -21.7178931 -0.286551E-09  0.179E-04    3.36     161.6  T
     SCC iter.                  ...        0 min,  0.002 sec
     gradient                   ...        0 min,  0.091 sec
 * total energy  :   -21.5100986 Eh     change       -0.2104802E-04 Eh
   gradient norm :     0.0031000 Eh/α   predicted    -0.1067155E-04 ( -49.30%)
   displ. norm   :     0.2114162 α      lambda       -0.4395763E-04
   maximum displ.:     0.1767874 α      in ANC's #2, #4, #3, ...

........................................................................
.............................. CYCLE   42 ..............................
........................................................................
   1    -21.7166621 -0.217167E+02  0.336E-01    3.36       0.0  T
   2    -21.7166737 -0.115347E-04  0.212E-01    3.36       1.0  T
   3    -21.7166589  0.147480E-04  0.488E-02    3.35       1.0  T
   4    -21.7166829 -0.239799E-04  0.110E-02    3.35       2.6  T
   5    -21.7166830 -0.773435E-07  0.196E-03    3.35      14.8  T
   6    -21.7166830 -0.313782E-08  0.809E-04    3.35      35.7  T
   7    -21.7166830 -0.127443E-08  0.339E-04    3.35      85.3  T
     SCC iter.                  ...        0 min,  0.002 sec
     gradient                   ...        0 min,  0.001 sec
 * total energy  :   -21.5101358 Eh     change       -0.3721712E-04 Eh
   gradient norm :     0.0031121 Eh/α   predicted    -0.2296330E-04 ( -38.30%)
   displ. norm   :     0.2428000 α      lambda       -0.4133180E-04
   maximum displ.:     0.2062400 α      in ANC's #2, #4, #3, ...
 * RMSD in coord.:     0.5742134 α      energy gain  -0.5540783E-03 Eh

generating ANC from model Hessian ...
Using Lindh-Hessian (1995)
 Shifting diagonal of input Hessian by   9.841708618439584E-003
 Lowest  eigenvalues of input Hessian
   -0.000000   -0.000000    0.000000    0.000000    0.000000    0.000000
    0.010000    0.010266    0.010489    0.010876    0.011705    0.011750
    0.011907    0.021114    0.030875    0.036396    0.038408    0.065773
 Highest eigenvalues
    1.236278    1.248667    1.361445    1.729378    2.059855    2.195175
 

........................................................................
.............................. CYCLE   43 ..............................
........................................................................
   1    -21.7130095 -0.217130E+02  0.359E-01    3.31       0.0  T
   2    -21.7130213 -0.118241E-04  0.225E-01    3.32       1.0  T
   3    -21.7130089  0.124152E-04  0.467E-02    3.32       1.0  T
   4    -21.7130305 -0.215544E-04  0.117E-02    3.32       2.5  T
   5    -21.7130306 -0.861246E-07  0.222E-03    3.32      13.0  T
   6    -21.7130306 -0.637035E-08  0.101E-03    3.32      28.5  T
   7    -21.7130306 -0.286489E-08  0.393E-04    3.32      73.5  T
   8    -21.7130306 -0.308010E-09  0.114E-04    3.32     253.6  T
     SCC iter.                  ...        0 min,  0.002 sec
     gradient                   ...        0 min,  0.091 sec
 * total energy  :   -21.5100991 Eh     change        0.3664183E-04 Eh
   gradient norm :     0.0120129 Eh/α   predicted     0.0000000E+00 (-100.00%)
   displ. norm   :     0.0440682 α      lambda       -0.1689970E-03
   maximum displ.:     0.0270533 α      in ANC's #2, #1, #22, ...

........................................................................
.............................. CYCLE   44 ..............................
........................................................................
   1    -21.7161436 -0.217161E+02  0.617E-02    3.37       0.0  T
   2    -21.7161451 -0.146532E-05  0.381E-02    3.38       1.0  T
   3    -21.7161446  0.463848E-06  0.125E-02    3.39       2.3  T
   4    -21.7161456 -0.951769E-06  0.318E-03    3.39       9.1  T
   5    -21.7161456 -0.212679E-07  0.198E-03    3.39      14.6  T
   6    -21.7161456 -0.164480E-07  0.101E-03    3.39      28.5  T
     SCC iter.                  ...        0 min,  0.003 sec
     gradient                   ...        0 min,  0.002 sec
 * total energy  :   -21.5101153 Eh     change       -0.1614313E-04 Eh
   gradient norm :     0.0056253 Eh/α   predicted    -0.8466133E-04 ( 424.44%)
   displ. norm   :     0.1752174 α      lambda       -0.7551404E-03
   maximum displ.:     0.1106562 α      in ANC's #5, #6, #3, ...

........................................................................
.............................. CYCLE   45 ..............................
........................................................................
   1    -21.7275828 -0.217276E+02  0.277E-01    3.53       0.0  T
   2    -21.7276063 -0.234046E-04  0.171E-01    3.47       1.0  T
   3    -21.7275887  0.175363E-04  0.562E-02    3.45       1.0  T
   4    -21.7276139 -0.251364E-04  0.156E-02    3.44       1.9  T
   5    -21.7276151 -0.127743E-05  0.681E-03    3.45       4.2  T
   6    -21.7276152 -0.702475E-07  0.346E-03    3.45       8.3  T
   7    -21.7276152 -0.254549E-07  0.122E-03    3.45      23.8  T
   8    -21.7276152 -0.327111E-08  0.268E-04    3.45     107.8  T
     SCC iter.                  ...        0 min,  0.095 sec
     gradient                   ...        0 min,  0.001 sec
 * total energy  :   -21.5083869 Eh     change        0.1728399E-02 Eh
   gradient norm :     0.0460563 Eh/α   predicted    -0.3891628E-03 (-122.52%)
   displ. norm   :     0.1251137 α      lambda       -0.3444471E-02
   maximum displ.:     0.0730468 α      in ANC's #5, #6, #22, ...

........................................................................
.............................. CYCLE   46 ..............................
........................................................................
   1    -21.7171834 -0.217172E+02  0.189E-01    3.31       0.0  T
   2    -21.7171998 -0.164097E-04  0.117E-01    3.36       1.0  T
   3    -21.7171905  0.934364E-05  0.441E-02    3.38       1.0  T
   4    -21.7172041 -0.136083E-04  0.125E-02    3.38       2.3  T
   5    -21.7172050 -0.899540E-06  0.538E-03    3.38       5.4  T
   6    -21.7172051 -0.699538E-07  0.304E-03    3.38       9.5  T
     SCC iter.                  ...        0 min,  0.003 sec
     gradient                   ...        0 min,  0.092 sec
 * total energy  :   -21.5102028 Eh     change       -0.1815926E-02 Eh
   gradient norm :     0.0016197 Eh/α   predicted    -0.1749195E-02 (  -3.67%)
   displ. norm   :     0.0275421 α      lambda       -0.1262882E-04
   maximum displ.:     0.0185685 α      in ANC's #3, #1, #7, ...

........................................................................
.............................. CYCLE   47 ..............................
........................................................................
   1    -21.7167296 -0.217167E+02  0.400E-02    3.38       0.0  T
   2    -21.7167300 -0.461244E-06  0.250E-02    3.38       1.2  T
   3    -21.7167301 -0.106624E-06  0.329E-03    3.39       8.8  T
   4    -21.7167302 -0.374443E-07  0.156E-03    3.39      18.5  T
   5    -21.7167302 -0.881070E-08  0.774E-04    3.39      37.3  T
   6    -21.7167302 -0.244949E-09  0.371E-04    3.39      77.8  T
     SCC iter.                  ...        0 min,  0.001 sec
     gradient                   ...        0 min,  0.001 sec
 * total energy  :   -21.5102116 Eh     change       -0.8771301E-05 Eh
   gradient norm :     0.0008239 Eh/α   predicted    -0.6316951E-05 ( -27.98%)
   displ. norm   :     0.0343148 α      lambda       -0.6212103E-05
   maximum displ.:     0.0266377 α      in ANC's #3, #9, #5, ...

........................................................................
.............................. CYCLE   48 ..............................
........................................................................
   1    -21.7166550 -0.217167E+02  0.501E-02    3.39       0.0  T
   2    -21.7166552 -0.242664E-06  0.313E-02    3.39       1.0  T
   3    -21.7166554 -0.133255E-06  0.233E-03    3.39      12.4  T
   4    -21.7166554 -0.529286E-08  0.140E-03    3.39      20.7  T
   5    -21.7166554 -0.486690E-08  0.596E-04    3.39      48.4  T
   6    -21.7166554 -0.682729E-09  0.270E-04    3.39     106.9  T
     SCC iter.                  ...        0 min,  0.001 sec
     gradient                   ...        0 min,  0.091 sec
 * total energy  :   -21.5102201 Eh     change       -0.8550528E-05 Eh
   gradient norm :     0.0006757 Eh/α   predicted    -0.3106336E-05 ( -63.67%)
   displ. norm   :     0.1049407 α      lambda       -0.1663213E-04
   maximum displ.:     0.0767340 α      in ANC's #3, #9, #8, ...

........................................................................
.............................. CYCLE   49 ..............................
........................................................................
   1    -21.7164294 -0.217164E+02  0.164E-01    3.40       0.0  T
   2    -21.7164323 -0.282425E-05  0.102E-01    3.41       1.0  T
   3    -21.7164335 -0.126070E-05  0.965E-03    3.42       3.0  T
   4    -21.7164339 -0.374852E-06  0.559E-03    3.42       5.2  T
   5    -21.7164340 -0.532741E-07  0.254E-03    3.42      11.4  T
   6    -21.7164340 -0.258349E-07  0.963E-04    3.42      30.0  T
   7    -21.7164340 -0.409123E-08  0.191E-04    3.42     151.0  T
     SCC iter.                  ...        0 min,  0.002 sec
     gradient                   ...        0 min,  0.002 sec
 * total energy  :   -21.5102381 Eh     change       -0.1793398E-04 Eh
   gradient norm :     0.0017871 Eh/α   predicted    -0.8354905E-05 ( -53.41%)
   displ. norm   :     0.0925139 α      lambda       -0.1135796E-04
   maximum displ.:     0.0743481 α      in ANC's #3, #9, #1, ...

........................................................................
.............................. CYCLE   50 ..............................
........................................................................
   1    -21.7162883 -0.217163E+02  0.144E-01    3.42       0.0  T
   2    -21.7162902 -0.187797E-05  0.899E-02    3.43       1.0  T
   3    -21.7162902 -0.324237E-07  0.120E-02    3.43       2.4  T
   4    -21.7162914 -0.118946E-05  0.480E-03    3.43       6.0  T
   5    -21.7162914 -0.318351E-07  0.169E-03    3.43      17.1  T
   6    -21.7162914 -0.651814E-08  0.601E-04    3.43      48.1  T
   7    -21.7162914 -0.144955E-08  0.173E-04    3.43     166.4  T
     SCC iter.                  ...        0 min,  0.002 sec
     gradient                   ...        0 min,  0.091 sec
 * total energy  :   -21.5102491 Eh     change       -0.1108817E-04 Eh
   gradient norm :     0.0022547 Eh/α   predicted    -0.5699390E-05 ( -48.60%)
   displ. norm   :     0.0416592 α      lambda       -0.1021944E-04
   maximum displ.:     0.0376081 α      in ANC's #3, #9, #8, ...

........................................................................
.............................. CYCLE   51 ..............................
........................................................................
   1    -21.7164404 -0.217164E+02  0.602E-02    3.43       0.0  T
   2    -21.7164407 -0.299502E-06  0.374E-02    3.44       1.0  T
   3    -21.7164402  0.433198E-06  0.809E-03    3.44       3.6  T
   4    -21.7164409 -0.638808E-06  0.193E-03    3.44      14.9  T
   5    -21.7164409 -0.387541E-08  0.855E-04    3.44      33.7  T
   6    -21.7164409 -0.148573E-08  0.330E-04    3.44      87.4  T
     SCC iter.                  ...        0 min,  0.001 sec
     gradient                   ...        0 min,  0.001 sec
 * total energy  :   -21.5102575 Eh     change       -0.8360287E-05 Eh
   gradient norm :     0.0012711 Eh/α   predicted    -0.5117574E-05 ( -38.79%)
   displ. norm   :     0.1257084 α      lambda       -0.1511987E-04
   maximum displ.:     0.1105430 α      in ANC's #3, #9, #8, ...

........................................................................
.............................. CYCLE   52 ..............................
........................................................................
   1    -21.7162850 -0.217163E+02  0.194E-01    3.44       0.0  T
   2    -21.7162883 -0.331966E-05  0.121E-01    3.44       1.0  T
   3    -21.7162823  0.597931E-05  0.296E-02    3.44       1.0  T
   4    -21.7162910 -0.869747E-05  0.646E-03    3.44       4.5  T
   5    -21.7162910 -0.108428E-07  0.191E-03    3.44      15.1  T
   6    -21.7162910 -0.165953E-07  0.623E-04    3.44      46.3  T
   7    -21.7162910 -0.802302E-09  0.270E-04    3.44     107.0  T
     SCC iter.                  ...        0 min,  0.002 sec
     gradient                   ...        0 min,  0.091 sec
 * total energy  :   -21.5102751 Eh     change       -0.1763679E-04 Eh
   gradient norm :     0.0016016 Eh/α   predicted    -0.7614113E-05 ( -56.83%)
   displ. norm   :     0.2092242 α      lambda       -0.2198417E-04
   maximum displ.:     0.1847089 α      in ANC's #3, #9, #8, ...

........................................................................
.............................. CYCLE   53 ..............................
........................................................................
   1    -21.7156416 -0.217156E+02  0.317E-01    3.45       0.0  T
   2    -21.7156507 -0.914484E-05  0.198E-01    3.44       1.0  T
   3    -21.7156281  0.226524E-04  0.551E-02    3.44       1.0  T
   4    -21.7156586 -0.305431E-04  0.103E-02    3.44       2.8  T
   5    -21.7156587 -0.529066E-07  0.213E-03    3.44      13.6  T
   6    -21.7156587 -0.466206E-08  0.856E-04    3.44      33.7  T
   7    -21.7156587 -0.244269E-08  0.412E-04    3.44      70.1  T
     SCC iter.                  ...        0 min,  0.002 sec
     gradient                   ...        0 min,  0.001 sec
 * total energy  :   -21.5102897 Eh     change       -0.1454065E-04 Eh
   gradient norm :     0.0039586 Eh/α   predicted    -0.1120537E-04 ( -22.94%)
   displ. norm   :     0.0441871 α      lambda       -0.2864681E-04
   maximum displ.:     0.0257491 α      in ANC's #3, #1, #5, ...

........................................................................
.............................. CYCLE   54 ..............................
........................................................................
   1    -21.7171023 -0.217171E+02  0.425E-02    3.45       0.0  T
   2    -21.7171031 -0.771755E-06  0.256E-02    3.44       1.1  T
   3    -21.7171025  0.622445E-06  0.102E-02    3.43       2.8  T
   4    -21.7171033 -0.831264E-06  0.276E-03    3.44      10.5  T
   5    -21.7171034 -0.377024E-07  0.905E-04    3.44      31.9  T
   6    -21.7171034 -0.136240E-08  0.507E-04    3.44      56.9  T
     SCC iter.                  ...        0 min,  0.001 sec
     gradient                   ...        0 min,  0.001 sec
 * total energy  :   -21.5102978 Eh     change       -0.8148794E-05 Eh
   gradient norm :     0.0024288 Eh/α   predicted    -0.1435245E-04 (  76.13%)
   displ. norm   :     0.0392270 α      lambda       -0.1018818E-04
   maximum displ.:     0.0306099 α      in ANC's #3, #4, #9, ...

........................................................................
.............................. CYCLE   55 ..............................
........................................................................
   1    -21.7167620 -0.217168E+02  0.638E-02    3.44       0.0  T
   2    -21.7167625 -0.473707E-06  0.399E-02    3.44       1.0  T
   3    -21.7167624  0.958879E-07  0.686E-03    3.44       4.2  T
   4    -21.7167628 -0.402912E-06  0.247E-03    3.44      11.7  T
   5    -21.7167628 -0.101675E-07  0.816E-04    3.44      35.4  T
   6    -21.7167628 -0.501782E-09  0.308E-04    3.44      93.8  T
     SCC iter.                  ...        0 min,  0.092 sec
     gradient                   ...        0 min,  0.003 sec
 * total energy  :   -21.5103046 Eh     change       -0.6764975E-05 Eh
   gradient norm :     0.0005461 Eh/α   predicted    -0.5102633E-05 ( -24.57%)
   displ. norm   :     0.1179036 α      lambda       -0.6202193E-05
   maximum displ.:     0.1019270 α      in ANC's #3, #4, #9, ...

........................................................................
.............................. CYCLE   56 ..............................
........................................................................
   1    -21.7158676 -0.217159E+02  0.168E-01    3.43       0.0  T
   2    -21.7158700 -0.242070E-05  0.105E-01    3.43       1.0  T
   3    -21.7158665  0.351169E-05  0.235E-02    3.43       1.2  T
   4    -21.7158719 -0.540704E-05  0.561E-03    3.43       5.1  T
   5    -21.7158719 -0.191965E-07  0.106E-03    3.43      27.2  T
   6    -21.7158720 -0.991921E-09  0.452E-04    3.43      63.9  T
   7    -21.7158720 -0.503199E-09  0.215E-04    3.43     134.3  T
     SCC iter.                  ...        0 min,  0.094 sec
     gradient                   ...        0 min,  0.001 sec
 * total energy  :   -21.5103054 Eh     change       -0.7720192E-06 Eh
   gradient norm :     0.0034141 Eh/α   predicted    -0.3122323E-05 ( 304.44%)
   displ. norm   :     0.0217207 α      lambda       -0.8285332E-05
   maximum displ.:     0.0185184 α      in ANC's #3, #9, #1, ...

........................................................................
.............................. CYCLE   57 ..............................
........................................................................
   1    -21.7164635 -0.217165E+02  0.308E-02    3.43       0.0  T
   2    -21.7164636 -0.101973E-06  0.190E-02    3.43       1.5  T
   3    -21.7164633  0.391987E-06  0.702E-03    3.43       4.1  T
   4    -21.7164637 -0.480000E-06  0.986E-04    3.43      29.3  T
   5    -21.7164637 -0.988706E-09  0.453E-04    3.43      63.8  T
     SCC iter.                  ...        0 min,  0.094 sec
     gradient                   ...        0 min,  0.002 sec
 * total energy  :   -21.5103109 Eh     change       -0.5536115E-05 Eh
   gradient norm :     0.0013844 Eh/α   predicted    -0.4143081E-05 ( -25.16%)
   displ. norm   :     0.0423054 α      lambda       -0.4934192E-05
   maximum displ.:     0.0261706 α      in ANC's #3, #4, #1, ...

........................................................................
.............................. CYCLE   58 ..............................
........................................................................
   1    -21.7169970 -0.217170E+02  0.466E-02    3.44       0.0  T
   2    -21.7169972 -0.209944E-06  0.288E-02    3.44       1.0  T
   3    -21.7169973 -0.671725E-07  0.310E-03    3.44       9.3  T
   4    -21.7169973 -0.371463E-07  0.192E-03    3.44      15.0  T
   5    -21.7169974 -0.152854E-07  0.719E-04    3.44      40.1  T
   6    -21.7169974 -0.605869E-09  0.260E-04    3.44     110.8  T
     SCC iter.                  ...        0 min,  0.003 sec
     gradient                   ...        0 min,  0.001 sec
 * total energy  :   -21.5103154 Eh     change       -0.4484324E-05 Eh
   gradient norm :     0.0007372 Eh/α   predicted    -0.2467892E-05 ( -44.97%)
   displ. norm   :     0.0825964 α      lambda       -0.3448179E-05
   maximum displ.:     0.0644619 α      in ANC's #3, #4, #1, ...

   *** GEOMETRY OPTIMIZATION CONVERGED AFTER 58 ITERATIONS ***

------------------------------------------------------------------------
 total energy gain   :        -0.0182452 Eh      -11.4490 kcal/mol
 total RMSD          :         1.2993838 a0        0.6876 Å
 total power (kW/mol):        -0.8259103 (step)  -14.9766 (real)
------------------------------------------------------------------------

 ANCopt (total)                0 d,  0 h,  0 min,  3.199 sec
 optimizer setup                ...        0 min,  0.001 sec (  0.030%)
 model hessian                  ...        0 min,  0.010 sec (  0.313%)
 ANC generation                 ...        0 min,  0.001 sec (  0.043%)
 coordinate transformation      ...        0 min,  0.002 sec (  0.072%)
 single point calculation       ...        0 min,  2.981 sec ( 93.185%)
 optimization log               ...        0 min,  0.004 sec (  0.137%)
 hessian update                 ...        0 min,  0.186 sec (  5.814%)
 rational function              ...        0 min,  0.004 sec (  0.127%)

================
 final structure:
================
12
 xtb: 6.2.3 (830e466)
C         0.74016298192143    1.87646291949443   -1.02885680013662
C        -0.09441123053594    0.94079757075707   -0.60576631343652
C         1.90849871044862   -0.66946289322056   -1.79765575507210
O         0.52419304118788    2.52543562018364   -2.20397159021104
O         1.61633322902475    3.37649607032663   -2.52290770397703
O         2.57488299790358   -0.94073982372851   -0.84352833941329
H         1.22237916334454    4.01259631509401   -3.13480961929405
H         1.62441029378341    2.18895655078073   -0.49089256189405
H         2.21050735897277    0.08439361034919   -2.54175126835876
H         0.96144767393383   -1.18323822520202   -2.02880432520589
H        -0.96690182015866    0.67185077758834   -1.17330234497401
H         0.06749760017384    0.45605150757839    0.33646662196852
 
 Bond Distances (Angstroems)
 ---------------------------
C1-C2=1.3232         C1-O4=1.3597         C1-H8=1.0812         C2-C1=1.3232         C2-H11=1.0750        C2-H12=1.0719        
C3-O6=1.1950         C3-H9=1.1014         C3-H10=1.1020        O4-C1=1.3597         O4-O5=1.4208         O5-O4=1.4208         
O5-H7=0.9666         O6-C3=1.1950         H7-O5=0.9666         H8-C1=1.0812         H9-C3=1.1014         H10-C3=1.1020        
H11-C2=1.0750        H12-C2=1.0719        
 C  H  Rav=1.0863 sigma=0.0129  Rmin=1.0719  Rmax=1.1020     5
 C  C  Rav=1.3232 sigma=0.0000  Rmin=1.3232  Rmax=1.3232     1
 O  H  Rav=0.9666 sigma=0.0000  Rmin=0.9666  Rmax=0.9666     1
 O  C  Rav=1.2773 sigma=0.0823  Rmin=1.1950  Rmax=1.3597     2
 O  O  Rav=1.4208 sigma=0.0000  Rmin=1.4208  Rmax=1.4208     1
 
 selected bond angles (degree)
 --------------------
O4-C1-C2=120.91                H8-C1-C2=124.13                H8-C1-O4=114.96                H11-C2-C1=121.33               
H12-C2-C1=120.37               H12-C2-H11=118.26              H9-C3-O6=122.81                H10-C3-O6=122.74               
H10-C3-H9=114.40               O5-O4-C1=110.97                H7-O5-O4=102.89                
 
 selected dihedral angles (degree)
 ---------------------------------
H11-C2-C1-O4=359.62           H11-C2-C1-H8=179.39           H12-C2-C1-O4=181.91           H12-C2-C1-H8=  1.67           
O5-O4-C1-C2=186.33            O5-O4-C1-H8=  6.54            H7-O5-O4-C1=201.63            
 
 CMA Distance (Angstroems)
 ---------------------------
R(CMA):  3.4334
           -------------------------------------------------
          |                Final Singlepoint                |
           -------------------------------------------------

          ...................................................
          :                      SETUP                      :
          :.................................................:
          :  # basis functions                  30          :
          :  # atomic orbitals                  30          :
          :  # shells                           18          :
          :  # electrons                        36          :
          :  max. iterations                   100          :
          :  Hamiltonian                  GFN2-xTB          :
          :  restarted?                      false          :
          :  GBSA solvation                  false          :
          :  PC potential                    false          :
          :  electronic temp.          300.0000000     K    :
          :  accuracy                    1.0000000          :
          :  -> integral cutoff          0.2500000E+02      :
          :  -> integral neglect         0.1000000E-07      :
          :  -> SCF convergence          0.1000000E-05 Eh   :
          :  -> wf. convergence          0.1000000E-03 e    :
          :  Broyden damping             0.4000000          :
          ...................................................

 iter      E             dE          RMSdq      gap      omega  full diag
   1    -21.7169974 -0.217170E+02  0.902E-05    3.44       0.0  T
   2    -21.7169974 -0.229790E-10  0.515E-05    3.44     560.5  T
   3    -21.7169974 -0.646594E-11  0.375E-05    3.44     769.0  T

   *** convergence criteria satisfied after 3 iterations ***

         #    Occupation            Energy/Eh            Energy/eV
      -------------------------------------------------------------
         1        2.0000           -0.7501257             -20.4120
       ...           ...                  ...                  ...
        12        2.0000           -0.5313586             -14.4590
        13        2.0000           -0.5231910             -14.2368
        14        2.0000           -0.4968315             -13.5195
        15        2.0000           -0.4790075             -13.0345
        16        2.0000           -0.4644796             -12.6391
        17        2.0000           -0.4113316             -11.1929
        18        2.0000           -0.4013683             -10.9218 (HOMO)
        19                         -0.2750693              -7.4850 (LUMO)
        20                         -0.2140854              -5.8256
        21                         -0.1725940              -4.6965
        22                          0.0968018               2.6341
        23                          0.1083493               2.9483
       ...                                ...                  ...
        30                          0.5854252              15.9302
      -------------------------------------------------------------
                  HL-Gap            0.1262990 Eh            3.4368 eV
             Fermi-level           -0.3382188 Eh           -9.2034 eV

 SCC (total)                   0 d,  0 h,  0 min,  0.005 sec
 SCC setup                      ...        0 min,  0.000 sec (  2.149%)
 Dispersion                     ...        0 min,  0.000 sec (  0.868%)
 integral evaluation            ...        0 min,  0.001 sec ( 18.588%)
 zeroth order Hamiltonian       ...        0 min,  0.000 sec (  1.276%)
 iterations                     ...        0 min,  0.002 sec ( 46.066%)
 molecular gradient             ...        0 min,  0.001 sec ( 25.071%)
 printout                       ...        0 min,  0.000 sec (  1.710%)

         :::::::::::::::::::::::::::::::::::::::::::::::::::::
         ::                     SUMMARY                     ::
         :::::::::::::::::::::::::::::::::::::::::::::::::::::
         :: total energy             -21.510315397935 Eh    ::
         :: gradient norm              0.000736596314 Eh/a0 ::
         :: HOMO-LUMO gap              3.436770810992 eV    ::
         ::.................................................::
         :: SCC energy               -21.716997351949 Eh    ::
         :: -> isotropic ES            0.040310494874 Eh    ::
         :: -> anisotropic ES         -0.001529256767 Eh    ::
         :: -> anisotropic XC         -0.001042210095 Eh    ::
         :: -> dispersion             -0.005911122576 Eh    ::
         :: repulsion energy           0.206668608452 Eh    ::
         :: add. restraining           0.000000000000 Eh    ::
         :::::::::::::::::::::::::::::::::::::::::::::::::::::

           -------------------------------------------------
          |                Property Printout                |
           -------------------------------------------------

    * Orbital Energies and Occupations

         #    Occupation            Energy/Eh            Energy/eV
      -------------------------------------------------------------
         1        2.0000           -0.7501257             -20.4120
       ...           ...                  ...                  ...
         6        2.0000           -0.6219578             -16.9243
         7        2.0000           -0.6047707             -16.4566
         8        2.0000           -0.5902979             -16.0628
         9        2.0000           -0.5721518             -15.5690
        10        2.0000           -0.5566871             -15.1482
        11        2.0000           -0.5434441             -14.7879
        12        2.0000           -0.5313586             -14.4590
        13        2.0000           -0.5231910             -14.2368
        14        2.0000           -0.4968315             -13.5195
        15        2.0000           -0.4790075             -13.0345
        16        2.0000           -0.4644796             -12.6391
        17        2.0000           -0.4113316             -11.1929
        18        2.0000           -0.4013683             -10.9218 (HOMO)
        19                         -0.2750693              -7.4850 (LUMO)
        20                         -0.2140854              -5.8256
        21                         -0.1725940              -4.6965
        22                          0.0968018               2.6341
        23                          0.1083493               2.9483
        24                          0.1130882               3.0773
        25                          0.1388167               3.7774
        26                          0.1947191               5.2986
        27                          0.2321601               6.3174
        28                          0.4160969              11.3226
        29                          0.5771551              15.7052
        30                          0.5854252              15.9302
      -------------------------------------------------------------
                  HL-Gap            0.1262990 Eh            3.4368 eV
             Fermi-level           -0.3382188 Eh           -9.2034 eV

     #   Z        covCN         q      C6AA      α(0)
     1   6 C      2.763     0.108    25.594     8.285
     2   6 C      2.835    -0.129    31.272     9.164
     3   6 C      2.701     0.181    24.114     8.037
     4   8 O      1.786    -0.157    16.662     5.512
     5   8 O      1.740    -0.312    19.188     5.915
     6   8 O      0.856    -0.291    19.624     5.939
     7   1 H      0.805     0.326     0.648     1.265
     8   1 H      0.926     0.069     2.098     2.265
     9   1 H      0.923     0.041     2.432     2.439
    10   1 H      0.923     0.038     2.481     2.463
    11   1 H      0.926     0.061     2.184     2.311
    12   1 H      0.926     0.065     2.137     2.286

 Mol. C6AA /au·bohr⁶  :       1342.827865
 Mol. C8AA /au·bohr⁸  :      28882.310857
 Mol. α(0) /au        :         55.881663


Wiberg/Mayer (AO) data.
largest (>0.10) Wiberg bond orders for each atom
          total WBO             WBO to atom ...
     1  C   3.921        C    2 1.852    O    4 1.062    H    8 0.955
     2  C   3.980        C    1 1.852    H   12 0.973    H   11 0.973    O    4 0.114
     3  C   3.908        O    6 1.979    H    9 0.942    H   10 0.942
     4  O   2.178        C    1 1.062    O    5 0.972    C    2 0.114
     5  O   1.911        O    4 0.972    H    7 0.887
     6  O   2.104        C    3 1.979
     7  H   0.894        O    5 0.887
     8  H   0.995        C    1 0.955
     9  H   0.998        C    3 0.942
    10  H   0.999        C    3 0.942
    11  H   0.996        C    2 0.973
    12  H   0.996        C    2 0.973

molecular dipole:
                 x           y           z       tot (Debye)
 q only:       -0.598       0.516      -0.502
   full:       -0.760       0.720      -0.754       3.279
molecular quadrupole (traceless):
                xx          xy          yy          xz          yz          zz
 q only:       -8.659       2.664       3.731      -0.868      -4.005       4.928
  q+dip:      -11.556       3.802       5.077      -0.765      -5.673       6.479
   full:      -11.706       3.070       5.402      -1.436      -5.219       6.304

           -------------------------------------------------
          |                Geometry Summary                 |
           -------------------------------------------------

      molecular mass/u    :       90.0780670
   center of mass at/Å    :        1.2353969       1.2372916      -1.5481263
  moments of inertia/u·Å² :        0.9218614E+02   0.2970137E+03   0.3540879E+03
rotational constants/cm⁻¹ :        0.1828651E+00   0.5675708E-01   0.4760861E-01

 * 10 selected distances

     #   Z        #   Z                                     value/Å
     1   6 C      2   6 C                                 1.3232495
     1   6 C      4   8 O                                 1.3596703
     4   8 O      5   8 O                                 1.4208428 (max)
     3   6 C      6   8 O                                 1.1949972
     5   8 O      7   1 H                                 0.9665647 (min)
     1   6 C      8   1 H                                 1.0811804
     3   6 C      9   1 H                                 1.1014477
     3   6 C     10   1 H                                 1.1019530
     2   6 C     11   1 H                                 1.0750206
     2   6 C     12   1 H                                 1.0719124

 * 5 distinct bonds (by element types)

   Z      Z             #   av. dist./Å        max./Å        min./Å
   1 H    6 C           5     1.0863028     1.1019530     1.0719124
   6 C    6 C           1     1.3232495     1.3232495     1.3232495
   1 H    8 O           1     0.9665647     0.9665647     0.9665647
   6 C    8 O           2     1.2773338     1.3596703     1.1949972
   8 O    8 O           1     1.4208428     1.4208428     1.4208428


optimized geometry written to: xtbopt.xyz


           -------------------------------------------------
          | TOTAL ENERGY              -21.510315397935 Eh   |
          | GRADIENT NORM               0.000736596314 Eh/α |
          | HOMO-LUMO GAP               3.436770810992 eV   |
           -------------------------------------------------

------------------------------------------------------------------------
 * finished run on 2020/12/23 at 21:40:22.659     
------------------------------------------------------------------------
 total:
 * wall-time:     0 d,  0 h,  0 min,  3.541 sec
 *  cpu-time:     0 d,  0 h,  0 min, 14.456 sec
 * ratio c/w:     4.083 speedup
 SCF:
 * wall-time:     0 d,  0 h,  0 min,  0.090 sec
 *  cpu-time:     0 d,  0 h,  0 min,  0.254 sec
 * ratio c/w:     2.812 speedup
 ANC optimizer:
 * wall-time:     0 d,  0 h,  0 min,  3.296 sec
 *  cpu-time:     0 d,  0 h,  0 min, 13.194 sec
 * ratio c/w:     4.003 speedup

