12
 energy: -21.563364760628 gnorm: 0.000447872067 xtb: 6.2.3 (830e466)
C         2.14257554990298    1.13374177105445   -2.14520044619291
C         0.73002030763851    0.93007643964696   -1.58291778182229
C         0.67520760069163   -0.33878464401584   -0.75767428014909
O         0.31341872407089    1.99699134801616   -0.77053755072905
O         0.05215827176564    3.13451843631520   -1.59448929777814
O         0.30401124863161   -0.44219560567140    0.37124170232169
H        -0.32858737290648    3.75338225207810   -0.95827796977345
H         2.16427415883488    2.05776702596636   -2.71702350836948
H         2.41367300428119    0.30550135119698   -2.79292981292445
H         1.04309764375505   -1.20897454508326   -1.33870661880466
H         0.02120224214236    0.80939220540754   -2.41943352601485
H         2.85794862119176    1.20817396508876   -1.32985090976333
