      -----------------------------------------------------------      
     |                   =====================                   |     
     |                           x T B                           |     
     |                   =====================                   |     
     |                         S. Grimme                         |     
     |          Mulliken Center for Theoretical Chemistry        |     
     |                    University of Bonn                     |     
      -----------------------------------------------------------      

   * xtb version 6.2.3 (830e466) compiled by 'ehlert@majestix' on 2020-03-16

   xtb is free software: you can redistribute it and/or modify it under
   the terms of the GNU Lesser General Public License as published by
   the Free Software Foundation, either version 3 of the License, or
   (at your option) any later version.
   
   xtb is distributed in the hope that it will be useful,
   but WITHOUT ANY WARRANTY; without even the implied warranty of
   MERCHANTABILITY or FITNESS FOR A PARTICULAR PURPOSE.  See the
   GNU Lesser General Public License for more details.
   
   Cite this work as:
   * S. Grimme, C. Bannwarth, P. Shushkov, J. Chem. Theory Comput., 2017,
     13, 1989-2009. DOI: 10.1021/acs.jctc.7b00118
   * C. Bannwarth, S. Ehlert and S. Grimme., J. Chem. Theory Comput., 2019,
     15, 1652-1671. DOI: 10.1021/acs.jctc.8b01176
   * P. Pracht, E. Caldeweyher, S. Ehlert, S. Grimme, ChemRxiv, 2019, preprint.
     DOI: 10.26434/chemrxiv.8326202.v1
   
   for DFT-D4:
   * E. Caldeweyher, C. Bannwarth and S. Grimme, J. Chem. Phys., 2017,
     147, 034112. DOI: 10.1063/1.4993215
   * E. Caldeweyher, S. Ehlert, A. Hansen, H. Neugebauer, S. Spicher,
     C. Bannwarth and S. Grimme, J. Chem. Phys., 2019, 150, 154122.
     DOI: 10.1063/1.5090222
   
   for sTDA-xTB:
   * S. Grimme and C. Bannwarth, J. Chem. Phys., 2016, 145, 054103.
     DOI: 10.1063/1.4959605
   
   in the mass-spec context:
   * V. Asgeirsson, C. Bauer and S. Grimme, Chem. Sci., 2017, 8, 4879.
     DOI: 10.1039/c7sc00601b
   
   for metadynamics refer to:
   * S. Grimme, J. Chem. Theory Comput., 2019, 155, 2847-2862
     DOI: 10.1021/acs.jctc.9b00143
   
   with help from (in alphabetical order)
   C. Bannwarth, F. Bohle, G. Brandenburg, E. Caldeweyher, M. Checinski,
   S. Dohm, S. Ehlert, S. Ehrlich, F. März, H. Neugebauer, J. Pisarek,
   P. Pracht, P. Shushkov, and S. Spicher.
   
 * started run on 2020/12/23 at 21:39:55.887     

           -------------------------------------------------
          |                Calculation Setup                |
           -------------------------------------------------

          program call               : xtb -c 0 -u 0 -a 1.0 --iterations 100 --opt normal --namespace product_1 /scratch/bell/zhao922/YARP/paper-example/potential_product/test/reaction_channel/pp_0/pp_11_0.xyz
          hostname                   : bell-fe05.rcac.purdue.edu
          calculation namespace      : product_1
          coordinate file            : /scratch/bell/zhao922/YARP/paper-example/potential_product/test/reaction_channel/pp_0/pp_11_0.xyz
          omp threads                :                    32
          number of atoms            :                    12
          number of electrons        :                    36
          charge                     :                     0
          spin                       :                   0.0
          first test random number   :      0.19732295571475


molecular fragmentation (1/2 indicates fragments):
111221111111
# atoms in fragment 1/2:    10     2
 fragment masses (1/2) :       58.08       32.00
CMA distance (Bohr)    :   8.366
constraining FC (au)   :  0.0500
           ------------------------------------------------- 
          |                 G F N 2 - x T B                 |
          | Geometry, Frequencies, Noncovalent interactions |
          |            JCTC 2019 parametrisation            |
           ------------------------------------------------- 
             k(s)              :                1.8500
             k(p)              :                2.2300
             k(d)              :                2.2300
             k(f)              :                2.0000
             kEN (H0ij)        :               -2.0000
             D4 a1             :                0.5200
             D4 a2             :                5.0000
             D4 s6             :                1.0000
             D4 s8             :                2.7000
             D4 s9             :                5.0000
             alphaj            :                2.0000

  Z AO/shell   Hii/eV     exponent
  1     Wed Apr 25 08:07:45 CEST 2018   EN: 2.200 GM2: 0.406  GM3: 0.0800  RAES: 1.40
     1s    -10.707211    1.230000
  6     Wed Apr 25 08:07:45 CEST 2018   EN: 2.550 GM2: 0.538  GM3: 0.1500  RAES: 3.00
     2s    -13.970922    2.096432
     2p    -10.063292    1.800000
  8     Wed Apr 25 08:07:45 CEST 2018   EN: 3.440 GM2: 0.452  GM3:-0.0517  RAES: 1.80
     2s    -20.229985    2.439742
     2p    -15.503117    2.137023

           ------------------------------------------------- 
          |        Self-Consistent Charge Iterations        |
           ------------------------------------------------- 

          ...................................................
          :                      SETUP                      :
          :.................................................:
          :  # basis functions                  30          :
          :  # atomic orbitals                  30          :
          :  # shells                           18          :
          :  # electrons                        36          :
          :  max. iterations                   100          :
          :  Hamiltonian                  GFN2-xTB          :
          :  restarted?                      false          :
          :  GBSA solvation                  false          :
          :  PC potential                    false          :
          :  electronic temp.          300.0000000     K    :
          :  accuracy                    1.0000000          :
          :  -> integral cutoff          0.2500000E+02      :
          :  -> integral neglect         0.1000000E-07      :
          :  -> SCF convergence          0.1000000E-05 Eh   :
          :  -> wf. convergence          0.1000000E-03 e    :
          :  Broyden damping             0.4000000          :
          ...................................................

 iter      E             dE          RMSdq      gap      omega  full diag
   1    -21.5507311 -0.215507E+02  0.450E+00    0.02       0.0  T
   2    -21.5767643 -0.260332E-01  0.229E+00    0.03       1.0  T
   3    -21.5783426 -0.157822E-02  0.156E+00    0.03       1.0  T
   4    -20.5270238  0.105132E+01  0.705E+00    0.60       1.0  T
   5    -20.5325595 -0.553575E-02  0.701E+00    0.51       1.0  T
   6    -20.5308247  0.173481E-02  0.703E+00    0.60       1.0  T
   7    -20.6693434 -0.138519E+00  0.645E+00    0.15       1.0  T
   8    -21.5821529 -0.912809E+00  0.948E-01    0.06       1.0  T
   9    -21.5817446  0.408222E-03  0.997E-01    0.06       1.0  T
  10    -21.5822563 -0.511642E-03  0.839E-01    0.07       1.0  T
  11    -21.5846394 -0.238308E-02  0.323E-01    0.08       1.0  T
  12    -20.5628377  0.102180E+01  0.689E+00    0.29       1.0  T
  13    -21.5830190 -0.102018E+01  0.650E-01    0.08       1.0  T
  14    -21.5834481 -0.429150E-03  0.537E-01    0.09       1.0  T
  15    -21.5837657 -0.317569E-03  0.433E-01    0.09       1.0  T
  16    -20.8641554  0.719610E+00  0.580E+00    0.09       1.0  T
  17    -21.5827348 -0.718579E+00  0.730E-01    0.09       1.0  T
  18    -21.5838500 -0.111516E-02  0.417E-01    0.10       1.0  T
  19    -21.5840594 -0.209449E-03  0.338E-01    0.10       1.0  T
  20    -21.5840713 -0.118374E-04  0.333E-01    0.10       1.0  T
  21    -21.5840170  0.542962E-04  0.357E-01    0.10       1.0  T
  22    -21.5840365 -0.195783E-04  0.349E-01    0.10       1.0  T
  23    -21.5841081 -0.715960E-04  0.318E-01    0.10       1.0  T
  24    -20.6084677  0.975640E+00  0.678E+00    0.18       1.0  T
  25    -21.5841911 -0.975723E+00  0.313E-01    0.10       1.0  T
  26    -21.5850320 -0.840827E-03  0.135E-01    0.09       1.0  T
  27    -21.5852164 -0.184454E-03  0.959E-02    0.09       1.0  T
  28    -20.5204468  0.106477E+01  0.721E+00    0.66       1.0  T
  29    -20.6393404 -0.118894E+00  0.740E+00    0.16       1.0  T
  30    -21.5715851 -0.932245E+00  0.129E+00    0.07       1.0  T
  31    -21.5818784 -0.102933E-01  0.100E+00    0.14       1.0  T
  32    -21.5819571 -0.787533E-04  0.823E-01    0.11       1.0  T
  33    -21.5831588 -0.120170E-02  0.592E-01    0.09       1.0  T
  34    -21.5837870 -0.628123E-03  0.425E-01    0.09       1.0  T
  35    -21.5841414 -0.354424E-03  0.302E-01    0.09       1.0  T
  36    -21.5851291 -0.987687E-03  0.111E-01    0.09       1.0  T
  37    -21.5852072 -0.781703E-04  0.865E-02    0.09       1.0  T
  38    -20.7045673  0.880640E+00  0.643E+00    0.13       1.0  T
  39    -19.9229100  0.781657E+00  0.993E+00    4.15       1.0  T
  40    -19.8946926  0.282174E-01  0.115E+01    5.67       1.0  T
  41    -19.8910546  0.363806E-02  0.114E+01    5.67       1.0  T
  42    -19.9001717 -0.911716E-02  0.112E+01    5.68       1.0  T
  43    -19.9459547 -0.457830E-01  0.119E+01    3.07       1.0  T
  44    -19.9585209 -0.125662E-01  0.126E+01    2.19       1.0  T
  45    -19.9575582  0.962696E-03  0.124E+01    2.27       1.0  T
  46    -19.9633625 -0.580429E-02  0.117E+01    2.10       1.0  T
  47    -20.1191606 -0.155798E+00  0.982E+00    0.16       1.0  T
  48    -20.5059680 -0.386807E+00  0.754E+00    0.38       1.0  T
  49    -20.3821548  0.123813E+00  0.840E+00    2.22       1.0  T
  50    -20.4123020 -0.301472E-01  0.867E+00    2.05       1.0  T
  51    -19.9653412  0.446961E+00  0.928E+00    2.46       1.0  T
  52    -21.5562186 -0.159088E+01  0.302E+00    0.06       1.0  T
  53    -21.5613885 -0.516985E-02  0.252E+00    0.03       1.0  T
  54    -21.5692563 -0.786781E-02  0.220E+00    0.16       1.0  T
  55    -21.5733258 -0.406953E-02  0.237E+00    0.22       1.0  T
  56    -21.5780731 -0.474730E-02  0.155E+00    0.16       1.0  T
  57    -20.6326069  0.945466E+00  0.672E+00    0.17       1.0  T
  58    -19.9615158  0.671091E+00  0.944E+00    2.46       1.0  T
  59    -21.5574849 -0.159597E+01  0.213E+00    0.09       1.0  T
  60    -21.5766127 -0.191279E-01  0.167E+00    0.08       1.0  T
  61    -20.5173632  0.105925E+01  0.718E+00    0.83       1.0  T
  62    -19.9938283  0.523535E+00  0.869E+00    0.52       1.0  T
  63    -21.5647644 -0.157094E+01  0.250E+00    0.08       1.0  T
  64    -21.5780367 -0.132724E-01  0.145E+00    0.07       1.0  T
  65    -20.4899008  0.108814E+01  0.726E+00    1.50       1.0  T
  66    -21.5704131 -0.108051E+01  0.215E+00    0.04       1.0  T
  67    -21.5772634 -0.685026E-02  0.157E+00    0.03       1.0  T
  68    -20.5340682  0.104320E+01  0.678E+00    0.46       1.0  T
  69    -19.9585773  0.575491E+00  0.924E+00    2.87       1.0  T
  70    -21.5645999 -0.160602E+01  0.258E+00    0.05       1.0  T
  71    -21.5789968 -0.143968E-01  0.133E+00    0.10       1.0  T
  72    -20.5241554  0.105484E+01  0.710E+00    0.66       1.0  T
  73    -19.9713017  0.552854E+00  0.900E+00    2.14       1.0  T
  74    -21.5644495 -0.159315E+01  0.255E+00    0.04       1.0  T
  75    -20.6390739  0.925376E+00  0.639E+00    0.17       1.0  T
  76    -19.9945240  0.644550E+00  0.874E+00    0.89       1.0  T
  77    -21.5628842 -0.156836E+01  0.255E+00    0.07       1.0  T
  78    -20.5148546  0.104803E+01  0.686E+00    0.95       1.0  T
  79    -21.5675537 -0.105270E+01  0.239E+00    0.07       1.0  T
  80    -20.5659868  0.100157E+01  0.654E+00    0.25       1.0  T
  81    -19.9970933  0.568894E+00  0.862E+00    0.74       1.0  T
  82    -21.5650431 -0.156795E+01  0.248E+00    0.05       1.0  T
  83    -20.5606502  0.100439E+01  0.658E+00    0.25       1.0  T
  84    -21.5686491 -0.100800E+01  0.239E+00    0.07       1.0  T
  85    -20.6230016  0.945648E+00  0.637E+00    0.18       1.0  T
  86    -20.0115598  0.611442E+00  0.842E+00    0.33       1.0  T
  87    -21.5674846 -0.155592E+01  0.238E+00    0.04       1.0  T
  88    -21.5769799 -0.949536E-02  0.158E+00    0.08       1.0  T
  89    -20.5129464  0.106403E+01  0.704E+00    0.88       1.0  T
  90    -21.5699794 -0.105703E+01  0.223E+00    0.02       1.0  T
  91    -21.5791668 -0.918746E-02  0.137E+00    0.04       1.0  T
  92    -20.5402054  0.103896E+01  0.673E+00    0.34       1.0  T
  93    -19.9768899  0.563316E+00  0.883E+00    1.70       1.0  T
  94    -21.5716313 -0.159474E+01  0.214E+00    0.02       1.0  T
  95    -21.5794266 -0.779529E-02  0.132E+00    0.11       1.0  T
  96    -20.5685219  0.101090E+01  0.680E+00    0.23       1.0  T
  97    -19.9834730  0.585049E+00  0.876E+00    1.31       1.0  T
  98    -21.5716679 -0.158819E+01  0.210E+00    0.01       1.0  T
  99    -21.5792889 -0.762097E-02  0.131E+00    0.09       1.0  T
 100    -20.5247443  0.105454E+01  0.690E+00    0.64       1.0  T

   *** convergence criteria cannot be satisfied within 100 iterations ***

         #    Occupation            Energy/Eh            Energy/eV
      -------------------------------------------------------------
         1        2.0000           -0.8451935             -22.9989
       ...           ...                  ...                  ...
        12        2.0000           -0.5193747             -14.1329
        13        2.0000           -0.5022596             -13.6672
        14        2.0000           -0.4825084             -13.1297
        15        2.0000           -0.4684605             -12.7475
        16        2.0000           -0.4509968             -12.2722
        17        2.0000           -0.4314547             -11.7405
        18        2.0000           -0.4278168             -11.6415 (HOMO)
        19        0.0000           -0.4043190             -11.0021 (LUMO)
        20                         -0.2633853              -7.1671
        21                          0.0745352               2.0282
        22                          0.1062624               2.8915
        23                          0.1189577               3.2370
       ...                                ...                  ...
        30                          0.5417800              14.7426
      -------------------------------------------------------------
                  HL-Gap            0.0234978 Eh            0.6394 eV
             Fermi-level           -0.4160577 Eh          -11.3215 eV

 SCC (total)                   0 d,  0 h,  0 min,  1.703 sec
 SCC setup                      ...        0 min,  0.000 sec (  0.010%)
 Dispersion                     ...        0 min,  0.000 sec (  0.004%)
 integral evaluation            ...        0 min,  0.002 sec (  0.142%)
 zeroth order Hamiltonian       ...        0 min,  0.000 sec (  0.004%)
 iterations                     ...        0 min,  1.698 sec ( 99.760%)
 molecular gradient             ...        0 min,  0.001 sec (  0.056%)
 printout                       ...        0 min,  0.000 sec (  0.013%)

         :::::::::::::::::::::::::::::::::::::::::::::::::::::
         ::                     SUMMARY                     ::
         :::::::::::::::::::::::::::::::::::::::::::::::::::::
         :: total energy             -20.356777347554 Eh    ::
         :: gradient norm              0.867615755317 Eh/a0 ::
         :: HOMO-LUMO gap              0.639408704294 eV    ::
         ::.................................................::
         :: SCC energy               -20.524744326663 Eh    ::
         :: -> isotropic ES            1.127525855040 Eh    ::
         :: -> anisotropic ES         -0.103487702192 Eh    ::
         :: -> anisotropic XC         -0.031517850521 Eh    ::
         :: -> dispersion             -0.005044725179 Eh    ::
         :: repulsion energy           0.167796056981 Eh    ::
         :: add. restraining           0.000000000000 Eh    ::
         :::::::::::::::::::::::::::::::::::::::::::::::::::::

      ----------------------------------------------------------- 
     |                   =====================                   |
     |                        A N C O P T                        |
     |                   =====================                   |
     |               Approximate Normal Coordinate               |
     |                Rational Function Optimizer                |
      ----------------------------------------------------------- 

          ...................................................
          :                      SETUP                      :
          :.................................................:
          :   optimization level            normal          :
          :   max. optcycles                   200          :
          :   ANC micro-cycles                  20          :
          :   degrees of freedom                30          :
          :.................................................:
          :   RF solver                   davidson          :
          :   write xtbopt.log                true          :
          :   linear?                        false          :
          :   energy convergence         0.5000000E-05 Eh   :
          :   grad. convergence          0.1000000E-02 Eh/α :
          :   maximium RF displ.         1.0000000          :
          :   Hlow (freq-cutoff)         0.1000000E-01      :
          :   Hmax (freq-cutoff)         5.0000000          :
          :   S6 in model hess.         20.0000000          :
          ...................................................

generating ANC from model Hessian ...
Using Lindh-Hessian (1995)
 Shifting diagonal of input Hessian by   9.998857021241616E-003
 Lowest  eigenvalues of input Hessian
   -0.000000   -0.000000   -0.000000   -0.000000    0.000000    0.000000
    0.010000    0.010318    0.010423    0.010978    0.011186    0.019074
    0.020419    0.024344    0.048203    0.053757    0.060701    0.070006
 Highest eigenvalues
    1.053646    1.110430    1.165607    1.392019    2.100905    2.147311
 

........................................................................
.............................. CYCLE    1 ..............................
........................................................................
   1    -20.0074503 -0.200075E+02  0.845E+00    0.33       0.0  T
   2    -20.0258298 -0.183796E-01  0.975E+00    1.86       1.0  T
   3    -20.4452662 -0.419436E+00  0.702E+00    1.56       1.0  T
   4    -21.5580975 -0.111283E+01  0.275E+00    0.01       1.0  T
   5    -21.5699433 -0.118458E-01  0.232E+00    0.02       1.0  T
   6    -20.5927948  0.977149E+00  0.634E+00    0.20       1.0  T
   7    -21.5721385 -0.979344E+00  0.203E+00    0.01       1.0  T
   8    -21.5774012 -0.526270E-02  0.155E+00    0.01       1.0  T
   9    -21.5815757 -0.417454E-02  0.843E-01    0.02       1.0  T
  10    -21.5806053  0.970365E-03  0.905E-01    0.03       1.0  T
  11    -21.5806529 -0.475273E-04  0.902E-01    0.03       1.0  T
  12    -21.5805101  0.142787E-03  0.916E-01    0.03       1.0  T
  13    -19.8960817  0.168443E+01  0.103E+01    4.94       1.0  T
  14    -21.5815141 -0.168543E+01  0.804E-01    0.03       1.0  T
  15    -21.5822392 -0.725087E-03  0.715E-01    0.05       1.0  T
  16    -21.5824710 -0.231812E-03  0.690E-01    0.06       1.0  T
  17    -21.5825054 -0.343190E-04  0.685E-01    0.06       1.0  T
  18    -21.5834942 -0.988836E-03  0.494E-01    0.14       1.0  T
  19    -21.5829850  0.509245E-03  0.581E-01    0.08       1.0  T
  20    -21.5834492 -0.464232E-03  0.468E-01    0.10       1.0  T
  21    -21.5837969 -0.347744E-03  0.375E-01    0.11       1.0  T
  22    -21.5780125  0.578442E-02  0.698E-01    0.08       1.0  T
  23    -21.5838277 -0.581516E-02  0.398E-01    0.08       1.0  T
  24    -20.7023420  0.881486E+00  0.658E+00    0.13       1.0  T
  25    -19.9678640  0.734478E+00  0.931E+00    1.98       1.0  T
  26    -20.4372036 -0.469340E+00  0.836E+00    1.88       1.0  T
  27    -21.5352298 -0.109803E+01  0.442E+00    0.23       1.0  T
  28    -20.4572829  0.107795E+01  0.796E+00    1.64       1.0  T
  29    -21.4878516 -0.103057E+01  0.293E+00    0.03       1.0  T
  30    -21.5771713 -0.893197E-01  0.152E+00    0.04       1.0  T
  31    -21.5825262 -0.535483E-02  0.753E-01    0.09       1.0  T
  32    -21.5828938 -0.367651E-03  0.613E-01    0.11       1.0  T
  33    -21.5824677  0.426082E-03  0.685E-01    0.09       1.0  T
  34    -21.5828190 -0.351267E-03  0.622E-01    0.09       1.0  T
  35    -21.5835082 -0.689220E-03  0.449E-01    0.11       1.0  T
  36    -21.5838260 -0.317804E-03  0.361E-01    0.11       1.0  T
  37    -21.5841795 -0.353507E-03  0.249E-01    0.11       1.0  T
  38    -21.2817566  0.302423E+00  0.379E+00    0.02       1.0  T
  39    -21.5787194 -0.296963E+00  0.130E+00    0.01       1.0  T
  40    -21.5835821 -0.486271E-02  0.520E-01    0.07       1.0  T
  41    -21.5840706 -0.488488E-03  0.312E-01    0.09       1.0  T
  42    -20.5669392  0.101713E+01  0.696E+00    0.23       1.0  T
  43    -19.9467684  0.620171E+00  0.941E+00    3.35       1.0  T
  44    -20.3604906 -0.413722E+00  0.840E+00    2.24       1.0  T
  45    -21.5327891 -0.117230E+01  0.427E+00    0.05       1.0  T
  46    -21.5780577 -0.452686E-01  0.131E+00    0.15       1.0  T
  47    -21.5808990 -0.284133E-02  0.928E-01    0.10       1.0  T
  48    -21.5824265 -0.152751E-02  0.669E-01    0.13       1.0  T
  49    -21.5830931 -0.666501E-03  0.547E-01    0.11       1.0  T
  50    -21.5841349 -0.104188E-02  0.259E-01    0.11       1.0  T
  51    -20.7704999  0.813635E+00  0.621E+00    0.11       1.0  T
  52    -19.9534323  0.817068E+00  0.922E+00    2.68       1.0  T
  53    -20.3970877 -0.443655E+00  0.791E+00    2.00       1.0  T
  54    -19.9757955  0.421292E+00  0.919E+00    2.80       1.0  T
  55    -20.3999844 -0.424189E+00  0.801E+00    1.96       1.0  T
  56    -20.0040993  0.395885E+00  0.864E+00    1.30       1.0  T
  57    -20.4100237 -0.405924E+00  0.814E+00    1.81       1.0  T
  58    -21.5502165 -0.114019E+01  0.310E+00    0.17       1.0  T
  59    -20.4790159  0.107120E+01  0.746E+00    1.54       1.0  T
  60    -19.9917221  0.487294E+00  0.870E+00    1.04       1.0  T
  61    -20.9726071 -0.980885E+00  0.535E+00    0.07       1.0  T
  62    -21.5759042 -0.603297E+00  0.166E+00    0.06       1.0  T
  63    -20.6517692  0.924135E+00  0.651E+00    0.16       1.0  T
  64    -19.9833549  0.668414E+00  0.870E+00    1.13       1.0  T
  65    -20.4820464 -0.498692E+00  0.704E+00    0.83       1.0  T
  66    -21.5677179 -0.108567E+01  0.231E+00    0.12       1.0  T
  67    -21.5827966 -0.150786E-01  0.760E-01    0.12       1.0  T
  68    -21.5849364 -0.213979E-02  0.380E-01    0.14       1.0  T
  69    -21.5839684  0.967964E-03  0.368E-01    0.12       1.0  T
  70    -21.5840472 -0.788003E-04  0.315E-01    0.12       1.0  T
  71    -21.5841052 -0.579564E-04  0.283E-01    0.11       1.0  T
  72    -21.5844044 -0.299288E-03  0.200E-01    0.11       1.0  T
  73    -21.5796594  0.474504E-02  0.530E-01    0.09       1.0  T
  74    -21.5840248 -0.436538E-02  0.335E-01    0.10       1.0  T
  75    -21.5821384  0.188636E-02  0.398E-01    0.09       1.0  T
  76    -21.5841522 -0.201380E-02  0.278E-01    0.11       1.0  T
  77    -21.5525864  0.315658E-01  0.124E+00    0.06       1.0  T
  78    -21.5836833 -0.310969E-01  0.492E-01    0.09       1.0  T
  79    -21.5849473 -0.126401E-02  0.116E-01    0.11       1.0  T
  80    -21.5697146  0.152327E-01  0.859E-01    0.07       1.0  T
  81    -21.5839779 -0.142633E-01  0.371E-01    0.10       1.0  T
  82    -21.5771242  0.685370E-02  0.619E-01    0.08       1.0  T
  83    -21.5841425 -0.701831E-02  0.294E-01    0.10       1.0  T
  84    -21.5396698  0.444726E-01  0.145E+00    0.05       1.0  T
  85    -21.5836735 -0.440036E-01  0.503E-01    0.09       1.0  T
  86    -21.5850626 -0.138909E-02  0.937E-02    0.10       1.0  T
  87    -21.5638134  0.212492E-01  0.100E+00    0.07       1.0  T
  88    -21.5839714 -0.201580E-01  0.379E-01    0.10       1.0  T
  89    -21.5815307  0.244072E-02  0.416E-01    0.09       1.0  T
  90    -21.5843474 -0.281669E-02  0.227E-01    0.11       1.0  T
  91    -21.5479583  0.363890E-01  0.131E+00    0.06       1.0  T
  92    -21.5838575 -0.358991E-01  0.434E-01    0.10       1.0  T
  93    -21.5830763  0.781205E-03  0.317E-01    0.09       1.0  T
  94    -21.5847469 -0.167065E-02  0.159E-01    0.11       1.0  T
  95    -21.5707999  0.139470E-01  0.820E-01    0.07       1.0  T
  96    -21.5841265 -0.133266E-01  0.309E-01    0.10       1.0  T
  97    -21.5501316  0.339948E-01  0.127E+00    0.06       1.0  T
  98    -21.5839441 -0.338125E-01  0.398E-01    0.10       1.0  T
  99    -21.5758384  0.810574E-02  0.656E-01    0.08       1.0  T
 100    -21.5842539 -0.841552E-02  0.257E-01    0.11       1.0  T
     SCC iter.                  ...        0 min,  0.310 sec
     gradient                   ...        0 min,  0.091 sec
 * total energy  :   -21.4164426 Eh     change       -0.1059665E+01 Eh
   gradient norm :     0.1669715 Eh/α   predicted     0.0000000E+00 (-100.00%)
   displ. norm   :     0.1318156 α      lambda       -0.1538499E-01
   maximum displ.:     0.0714384 α      in ANC's #30, #19, #18, ...

........................................................................
.............................. CYCLE    2 ..............................
........................................................................
   1    -20.6161381 -0.206161E+02  0.682E+00    0.52       0.0  T
   2    -19.7651931  0.850945E+00  0.104E+01    5.38       1.0  T
   3    -21.5461872 -0.178099E+01  0.305E+00    0.07       1.0  T
   4    -21.5887227 -0.425355E-01  0.172E+00    0.08       1.0  T
   5    -21.5929078 -0.418512E-02  0.134E+00    0.09       1.0  T
   6    -21.5957013 -0.279348E-02  0.920E-01    0.10       1.0  T
   7    -21.5966787 -0.977420E-03  0.702E-01    0.11       1.0  T
   8    -20.9933191  0.603360E+00  0.533E+00    0.08       1.0  T
   9    -21.5972335 -0.603914E+00  0.558E-01    0.11       1.0  T
  10    -21.5973823 -0.148833E-03  0.522E-01    0.11       1.0  T
  11    -21.5973945 -0.121788E-04  0.524E-01    0.11       1.0  T
  12    -21.5974187 -0.242541E-04  0.520E-01    0.11       1.0  T
  13    -21.5975507 -0.132002E-03  0.491E-01    0.11       1.0  T
  14    -21.5982047 -0.653961E-03  0.373E-01    0.11       1.0  T
  15    -20.6673874  0.930817E+00  0.656E+00    0.22       1.0  T
  16    -21.5940791 -0.926692E+00  0.110E+00    0.12       1.0  T
  17    -21.5954053 -0.132617E-02  0.921E-01    0.11       1.0  T
  18    -21.5958155 -0.410254E-03  0.858E-01    0.11       1.0  T
  19    -21.5965325 -0.716927E-03  0.731E-01    0.11       1.0  T
  20    -21.5968108 -0.278353E-03  0.674E-01    0.11       1.0  T
  21    -21.5972683 -0.457506E-03  0.567E-01    0.11       1.0  T
  22    -21.5976537 -0.385395E-03  0.464E-01    0.11       1.0  T
  23    -20.9909498  0.606704E+00  0.528E+00    0.08       1.0  T
  24    -19.8966110  0.109434E+01  0.959E+00    3.13       1.0  T
  25    -21.5963578 -0.169975E+01  0.997E-01    0.08       1.0  T
  26    -20.5032415  0.109312E+01  0.815E+00    1.96       1.0  T
  27    -20.5772807 -0.740391E-01  0.719E+00    1.44       1.0  T
  28    -21.5945708 -0.101729E+01  0.126E+00    0.07       1.0  T
  29    -20.6198956  0.974675E+00  0.664E+00    0.63       1.0  T
  30    -19.9060333  0.713862E+00  0.943E+00    3.39       1.0  T
  31    -19.8969780  0.905527E-02  0.962E+00    4.74       1.0  T
  32    -19.8922528  0.472528E-02  0.969E+00    5.04       1.0  T
  33    -19.8848844  0.736840E-02  0.981E+00    5.33       1.0  T
  34    -19.9370657 -0.521813E-01  0.891E+00    1.38       1.0  T
  35    -19.9297758  0.728985E-02  0.902E+00    1.90       1.0  T
  36    -21.5877332 -0.165796E+01  0.193E+00    0.06       1.0  T
  37    -20.5064462  0.108129E+01  0.771E+00    1.98       1.0  T
  38    -21.5906092 -0.108416E+01  0.178E+00    0.05       1.0  T
  39    -21.5959059 -0.529669E-02  0.109E+00    0.05       1.0  T
  40    -21.5962472 -0.341308E-03  0.995E-01    0.06       1.0  T
  41    -21.5955189  0.728279E-03  0.109E+00    0.07       1.0  T
  42    -21.5960273 -0.508376E-03  0.988E-01    0.07       1.0  T
  43    -21.5964684 -0.441124E-03  0.862E-01    0.08       1.0  T
  44    -21.5964347  0.337007E-04  0.858E-01    0.08       1.0  T
  45    -21.5964590 -0.242535E-04  0.854E-01    0.08       1.0  T
  46    -21.5964580  0.941725E-06  0.854E-01    0.08       1.0  T
  47    -21.5964824 -0.243945E-04  0.849E-01    0.08       1.0  T
  48    -21.5964888 -0.638727E-05  0.848E-01    0.08       1.0  T
  49    -21.5964164  0.724168E-04  0.863E-01    0.08       1.0  T
  50    -21.5963979  0.184609E-04  0.859E-01    0.09       1.0  T
  51    -21.5971397 -0.741793E-03  0.652E-01    0.10       1.0  T
  52    -21.5976315 -0.491823E-03  0.499E-01    0.10       1.0  T
  53    -21.5285919  0.690396E-01  0.179E+00    0.03       1.0  T
  54    -19.9164682  0.161212E+01  0.977E+00    1.62       1.0  T
  55    -19.8979179  0.185503E-01  0.103E+01    5.26       1.0  T
  56    -19.9033205 -0.540256E-02  0.111E+01    5.17       1.0  T
  57    -21.5731938 -0.166987E+01  0.298E+00    0.02       1.0  T
  58    -21.2230272  0.350167E+00  0.537E+00    0.04       1.0  T
  59    -19.8547136  0.136831E+01  0.116E+01    5.17       1.0  T
  60    -21.5907214 -0.173601E+01  0.189E+00    0.05       1.0  T
  61    -20.5882107  0.100251E+01  0.687E+00    1.07       1.0  T
  62    -19.9261517  0.662059E+00  0.911E+00    2.49       1.0  T
  63    -20.5090387 -0.582887E+00  0.109E+01    1.83       1.0  T
  64    -20.4412923  0.677464E-01  0.131E+01    2.01       1.0  T
  65    -20.4656714 -0.243791E-01  0.117E+01    1.67       1.0  T
  66    -20.4668859 -0.121444E-02  0.115E+01    1.63       1.0  T
  67    -21.5159185 -0.104903E+01  0.530E+00    0.06       1.0  T
  68    -20.5857007  0.930218E+00  0.718E+00    1.38       1.0  T
  69    -19.9525478  0.633153E+00  0.916E+00    2.09       1.0  T
  70    -20.5099084 -0.557361E+00  0.102E+01    1.82       1.0  T
  71    -21.5548485 -0.104494E+01  0.380E+00    0.06       1.0  T
  72    -21.5916575 -0.368089E-01  0.238E+00    0.24       1.0  T
  73    -21.5976967 -0.603926E-02  0.147E+00    0.21       1.0  T
  74    -21.5965095  0.118721E-02  0.172E+00    0.23       1.0  T
  75    -21.5961288  0.380704E-03  0.152E+00    0.22       1.0  T
  76    -21.5968996 -0.770809E-03  0.763E-01    0.16       1.0  T
  77    -21.5973628 -0.463195E-03  0.489E-01    0.12       1.0  T
  78    -21.5978425 -0.479710E-03  0.398E-01    0.10       1.0  T
  79    -21.5898201  0.802248E-02  0.760E-01    0.06       1.0  T
  80    -21.5961784 -0.635831E-02  0.746E-01    0.12       1.0  T
  81    -21.3978340  0.198344E+00  0.302E+00    0.02       1.0  T
  82    -19.9175888  0.148025E+01  0.958E+00    1.45       1.0  T
  83    -20.5909389 -0.673350E+00  0.774E+00    0.92       1.0  T
  84    -19.9615782  0.629361E+00  0.939E+00    1.44       1.0  T
  85    -20.4939216 -0.532343E+00  0.949E+00    1.92       1.0  T
  86    -21.5599982 -0.106608E+01  0.370E+00    0.13       1.0  T
  87    -21.5965518 -0.365536E-01  0.152E+00    0.21       1.0  T
  88    -20.6718981  0.924654E+00  0.667E+00    0.21       1.0  T
  89    -19.8778903  0.794008E+00  0.102E+01    5.21       1.0  T
  90    -20.6084493 -0.730559E+00  0.706E+00    0.45       1.0  T
  91    -19.9258641  0.682585E+00  0.109E+01    3.69       1.0  T
  92    -20.5410567 -0.615193E+00  0.824E+00    1.54       1.0  T
  93    -21.5678270 -0.102677E+01  0.339E+00    0.09       1.0  T
  94    -21.5969486 -0.291216E-01  0.824E-01    0.13       1.0  T
  95    -21.5997534 -0.280488E-02  0.267E-01    0.09       1.0  T
  96    -20.9704888  0.629265E+00  0.536E+00    0.09       1.0  T
  97    -19.8870398  0.108345E+01  0.102E+01    4.23       1.0  T
  98    -21.5669860 -0.167995E+01  0.331E+00    0.15       1.0  T
  99    -21.5965801 -0.295941E-01  0.889E-01    0.04       1.0  T
 100    -20.6016057  0.994974E+00  0.687E+00    1.08       1.0  T
     SCC iter.                  ...        0 min,  0.402 sec
     gradient                   ...        0 min,  0.001 sec
 * total energy  :   -20.4282647 Eh     change        0.9881779E+00 Eh
   gradient norm :     0.6356941 Eh/α   predicted    -0.7826166E-02 (-100.79%)
   displ. norm   :     0.2880954 α      lambda       -0.1771413E+00
   maximum displ.:     0.2500116 α      in ANC's #30, #29, #21, ...

........................................................................
.............................. CYCLE    3 ..............................
........................................................................
   1    -21.5731655 -0.215732E+02  0.460E+00    0.02       0.0  T
   2    -20.8279095  0.745256E+00  0.449E+00    0.29       1.0  T
   3    -19.7072669  0.112064E+01  0.102E+01    0.71       1.0  T
   4    -21.5676829 -0.186042E+01  0.324E+00    0.03       1.0  T
   5    -21.3571768  0.210506E+00  0.346E+00    0.05       1.0  T
   6    -21.5739964 -0.216820E+00  0.188E+00    0.06       1.0  T
   7    -21.5770128 -0.301636E-02  0.149E+00    0.07       1.0  T
   8    -21.5784169 -0.140406E-02  0.128E+00    0.08       1.0  T
   9    -20.7917422  0.786675E+00  0.652E+00    1.28       1.0  T
  10    -21.5782374 -0.786495E+00  0.128E+00    0.08       1.0  T
  11    -21.5788066 -0.569208E-03  0.116E+00    0.09       1.0  T
  12    -21.5795235 -0.716932E-03  0.100E+00    0.10       1.0  T
  13    -21.5800928 -0.569242E-03  0.892E-01    0.10       1.0  T
  14    -21.5774470  0.264574E-02  0.894E-01    0.04       1.0  T
  15    -21.5840251 -0.657809E-02  0.714E-01    0.05       1.0  T
  16    -21.0497375  0.534288E+00  0.489E+00    0.11       1.0  T
  17    -21.5796189 -0.529881E+00  0.997E-01    0.10       1.0  T
  18    -21.5807155 -0.109660E-02  0.824E-01    0.11       1.0  T
  19    -21.5832344 -0.251899E-02  0.719E-01    0.10       1.0  T
  20    -21.5830764  0.158036E-03  0.724E-01    0.10       1.0  T
  21    -21.5828860  0.190382E-03  0.730E-01    0.10       1.0  T
  22    -21.5848537 -0.196765E-02  0.665E-01    0.10       1.0  T
  23    -21.5880453 -0.319163E-02  0.551E-01    0.10       1.0  T
  24    -21.5945322 -0.648690E-02  0.180E-01    0.08       1.0  T
  25    -21.5935987  0.933456E-03  0.263E-01    0.09       1.0  T
  26    -21.5834757  0.101231E-01  0.709E-01    0.10       1.0  T
  27    -21.5920870 -0.861131E-02  0.363E-01    0.09       1.0  T
  28    -21.5951129 -0.302594E-02  0.963E-02    0.08       1.0  T
  29    -21.5889051  0.620786E-02  0.513E-01    0.10       1.0  T
  30    -21.5925573 -0.365220E-02  0.333E-01    0.09       1.0  T
  31    -21.5945352 -0.197799E-02  0.189E-01    0.07       1.0  T
  32    -21.5880673  0.646799E-02  0.546E-01    0.10       1.0  T
  33    -21.5950822 -0.701497E-02  0.882E-02    0.08       1.0  T
  34    -21.5949001  0.182104E-03  0.118E-01    0.08       1.0  T
  35    -21.5909742  0.392593E-02  0.418E-01    0.09       1.0  T
  36    -21.5944024 -0.342818E-02  0.198E-01    0.07       1.0  T
  37    -21.5907966  0.360581E-02  0.426E-01    0.10       1.0  T
  38    -21.5887361  0.206048E-02  0.535E-01    0.06       1.0  T
  39    -21.5838124  0.492364E-02  0.697E-01    0.11       1.0  T
  40    -21.5613406  0.224719E-01  0.121E+00    0.03       1.0  T
  41    -21.5806560 -0.193154E-01  0.831E-01    0.11       1.0  T
  42    -21.5888811 -0.822506E-02  0.526E-01    0.06       1.0  T
  43    -21.5838239  0.505717E-02  0.699E-01    0.11       1.0  T
  44    -21.5689636  0.148603E-01  0.107E+00    0.04       1.0  T
  45    -21.5810895 -0.121259E-01  0.804E-01    0.11       1.0  T
  46    -21.5693110  0.117785E-01  0.106E+00    0.04       1.0  T
  47    -21.5810480 -0.117370E-01  0.807E-01    0.11       1.0  T
  48    -21.5869492 -0.590120E-02  0.597E-01    0.05       1.0  T
  49    -21.5843300  0.261924E-02  0.684E-01    0.11       1.0  T
  50    -21.5808555  0.347447E-02  0.785E-01    0.05       1.0  T
  51    -21.5836973 -0.284176E-02  0.706E-01    0.11       1.0  T
  52    -21.5739176  0.977969E-02  0.956E-01    0.04       1.0  T
  53    -21.5823093 -0.839170E-02  0.755E-01    0.11       1.0  T
  54    -21.5804239  0.188543E-02  0.796E-01    0.05       1.0  T
  55    -21.5836935 -0.326960E-02  0.707E-01    0.11       1.0  T
  56    -21.5883881 -0.469463E-02  0.539E-01    0.06       1.0  T
  57    -21.5897079 -0.131976E-02  0.483E-01    0.10       1.0  T
  58    -21.5921095 -0.240162E-02  0.363E-01    0.06       1.0  T
  59    -21.5938446 -0.173514E-02  0.237E-01    0.09       1.0  T
  60    -21.5941010 -0.256401E-03  0.216E-01    0.07       1.0  T
  61    -21.5944242 -0.323222E-03  0.177E-01    0.09       1.0  T
  62    -21.5948402 -0.416010E-03  0.121E-01    0.07       1.0  T
  63    -21.5949256 -0.853966E-04  0.101E-01    0.08       1.0  T
  64    -21.5951178 -0.192114E-03  0.487E-02    0.08       1.0  T
  65    -21.5950733  0.444984E-04  0.616E-02    0.08       1.0  T
  66    -21.5951389 -0.656693E-04  0.337E-02    0.08       1.0  T
  67    -21.5951075  0.314241E-04  0.466E-02    0.08       1.0  T
  68    -21.5951369 -0.294327E-04  0.302E-02    0.08       1.0  T
  69    -21.5951410 -0.405222E-05  0.187E-02    0.08       1.5  T
  70    -21.5950454  0.955580E-04  0.683E-02    0.08       1.0  T
  71    -21.5951355 -0.900652E-04  0.222E-02    0.08       1.3  T
  72    -21.5950694  0.661186E-04  0.588E-02    0.08       1.0  T
  73    -21.5951368 -0.673938E-04  0.187E-02    0.08       1.5  T
  74    -21.5951150  0.217511E-04  0.359E-02    0.08       1.0  T
  75    -21.5951422 -0.272214E-04  0.531E-03    0.08       5.4  T
  76    -21.5951426 -0.315011E-06  0.404E-03    0.08       7.1  T
  77    -21.5951425  0.464826E-07  0.544E-03    0.08       5.3  T
     SCC iter.                  ...        0 min,  0.297 sec
     gradient                   ...        0 min,  0.001 sec
 * total energy  :   -21.3943430 Eh     change       -0.9660783E+00 Eh
   gradient norm :     0.2801051 Eh/α   predicted    -0.9592195E-01 ( -90.07%)
   displ. norm   :     0.1335047 α      lambda       -0.2575828E-01
   maximum displ.:     0.0611064 α      in ANC's #29, #30, #13, ...

........................................................................
.............................. CYCLE    4 ..............................
........................................................................
   1    -21.5762430 -0.215762E+02  0.809E-01    0.12       0.0  T
   2    -20.7624472  0.813796E+00  0.620E+00    0.80       1.0  T
   3    -21.5778095 -0.815362E+00  0.707E-01    0.11       1.0  T
   4    -21.5185335  0.592760E-01  0.177E+00    0.02       1.0  T
   5    -21.5829432 -0.644098E-01  0.506E-01    0.10       1.0  T
   6    -21.5890458 -0.610253E-02  0.688E-02    0.08       1.0  T
   7    -21.5890378  0.797705E-05  0.672E-02    0.08       1.0  T
   8    -21.5880054  0.103238E-02  0.217E-01    0.07       1.0  T
   9    -21.5888075 -0.802108E-03  0.116E-01    0.08       1.0  T
  10    -21.5886707  0.136795E-03  0.139E-01    0.08       1.0  T
  11    -21.5889051 -0.234407E-03  0.971E-02    0.08       1.0  T
  12    -21.5890822 -0.177096E-03  0.430E-02    0.08       1.0  T
  13    -21.5891137 -0.315029E-04  0.222E-02    0.08       1.3  T
  14    -21.5891227 -0.896527E-05  0.104E-02    0.08       2.8  T
  15    -21.5891244 -0.171577E-05  0.588E-03    0.08       4.9  T
  16    -21.5891250 -0.575821E-06  0.315E-03    0.08       9.2  T
     SCC iter.                  ...        0 min,  0.093 sec
     gradient                   ...        0 min,  0.001 sec
 * total energy  :   -21.4122985 Eh     change       -0.1795544E-01 Eh
   gradient norm :     0.1678033 Eh/α   predicted    -0.1310868E-01 ( -26.99%)
   displ. norm   :     0.1524369 α      lambda       -0.2325327E-01
   maximum displ.:     0.1305621 α      in ANC's #30, #29, #4, ...

........................................................................
.............................. CYCLE    5 ..............................
........................................................................
   1    -21.5926116 -0.215926E+02  0.741E-01    0.11       0.0  T
   2    -20.7264172  0.866194E+00  0.639E+00    0.22       1.0  T
   3    -21.5934705 -0.867053E+00  0.614E-01    0.11       1.0  T
   4    -21.5949411 -0.147067E-02  0.469E-01    0.11       1.0  T
   5    -21.5708866  0.240545E-01  0.112E+00    0.05       1.0  T
   6    -21.5997942 -0.289076E-01  0.346E-02    0.09       1.0  T
   7    -21.5996287  0.165502E-03  0.835E-02    0.09       1.0  T
   8    -21.5990060  0.622690E-03  0.185E-01    0.08       1.0  T
   9    -21.5990836 -0.775782E-04  0.176E-01    0.08       1.0  T
  10    -21.5995153 -0.431699E-03  0.112E-01    0.09       1.0  T
  11    -21.5997393 -0.223969E-03  0.500E-02    0.09       1.0  T
  12    -21.5997547 -0.154461E-04  0.429E-02    0.09       1.0  T
  13    -21.5997208  0.339062E-04  0.578E-02    0.09       1.0  T
  14    -21.5997709 -0.500298E-04  0.347E-02    0.09       1.0  T
  15    -21.5997727 -0.181757E-05  0.326E-02    0.09       1.0  T
  16    -21.5997962 -0.235544E-04  0.468E-03    0.09       6.2  T
  17    -21.5997958  0.439420E-06  0.639E-03    0.09       4.5  T
  18    -21.5997967 -0.909353E-06  0.569E-04    0.09      50.8  T
  19    -21.5997967 -0.576367E-08  0.290E-04    0.09      99.5  T
     SCC iter.                  ...        0 min,  0.004 sec
     gradient                   ...        0 min,  0.001 sec
 * total energy  :   -21.4275333 Eh     change       -0.1523480E-01 Eh
   gradient norm :     0.0601558 Eh/α   predicted    -0.1189680E-01 ( -21.91%)
   displ. norm   :     0.1022394 α      lambda       -0.3230788E-02
   maximum displ.:     0.0544631 α      in ANC's #30, #3, #5, ...

........................................................................
.............................. CYCLE    6 ..............................
........................................................................
   1    -21.5999081 -0.215999E+02  0.511E-01    0.11       0.0  T
   2    -20.6576216  0.942287E+00  0.664E+00    0.32       1.0  T
   3    -21.6001519 -0.942530E+00  0.453E-01    0.11       1.0  T
   4    -21.6014930 -0.134114E-02  0.336E-01    0.10       1.0  T
   5    -21.5975283  0.396470E-02  0.528E-01    0.07       1.0  T
   6    -21.6029094 -0.538110E-02  0.209E-01    0.08       1.0  T
   7    -21.6036722 -0.762717E-03  0.101E-01    0.09       1.0  T
   8    -21.6038942 -0.222074E-03  0.277E-02    0.09       1.0  T
   9    -21.6038959 -0.170653E-05  0.263E-02    0.09       1.1  T
  10    -21.6038914  0.454743E-05  0.300E-02    0.09       1.0  T
  11    -21.6039021 -0.107041E-04  0.220E-02    0.09       1.3  T
  12    -21.6038883  0.137805E-04  0.323E-02    0.10       1.0  T
  13    -21.6038685  0.197777E-04  0.436E-02    0.10       1.0  T
  14    -21.6037179  0.150604E-03  0.927E-02    0.10       1.0  T
  15    -21.6037151  0.282732E-05  0.938E-02    0.10       1.0  T
  16    -21.6038992 -0.184135E-03  0.237E-02    0.09       1.2  T
  17    -21.6039111 -0.118729E-04  0.346E-03    0.09       8.3  T
  18    -21.6039112 -0.974302E-07  0.203E-03    0.09      14.2  T
  19    -21.6039113 -0.817108E-07  0.729E-04    0.09      39.6  T
     SCC iter.                  ...        0 min,  0.004 sec
     gradient                   ...        0 min,  0.001 sec
 * total energy  :   -21.4287920 Eh     change       -0.1258711E-02 Eh
   gradient norm :     0.0283725 Eh/α   predicted    -0.1632278E-02 (  29.68%)
   displ. norm   :     0.0552428 α      lambda       -0.4795416E-03
   maximum displ.:     0.0302355 α      in ANC's #2, #1, #5, ...

........................................................................
.............................. CYCLE    7 ..............................
........................................................................
   1    -21.4231819 -0.214232E+02  0.285E+00    0.00       0.0  T
   2    -19.8801403  0.154304E+01  0.920E+00    1.15       1.0  T
   3    -21.5886161 -0.170848E+01  0.160E+00    0.09       1.0  T
   4    -21.5991595 -0.105434E-01  0.925E-01    0.10       1.0  T
   5    -21.5995836 -0.424101E-03  0.792E-01    0.10       1.0  T
   6    -21.6002469 -0.663304E-03  0.577E-01    0.11       1.0  T
   7    -21.6006586 -0.411754E-03  0.474E-01    0.11       1.0  T
   8    -20.7103485  0.890310E+00  0.645E+00    0.24       1.0  T
   9    -21.6002853 -0.889937E+00  0.549E-01    0.11       1.0  T
  10    -21.6011658 -0.880588E-03  0.413E-01    0.11       1.0  T
  11    -21.6011515  0.143476E-04  0.414E-01    0.11       1.0  T
  12    -21.6012603 -0.108772E-03  0.408E-01    0.11       1.0  T
  13    -21.6026395 -0.137923E-02  0.320E-01    0.10       1.0  T
  14    -21.6019435  0.696003E-03  0.376E-01    0.10       1.0  T
  15    -21.6020761 -0.132647E-03  0.368E-01    0.10       1.0  T
  16    -21.6038526 -0.177644E-02  0.221E-01    0.09       1.0  T
  17    -21.6035996  0.252962E-03  0.245E-01    0.10       1.0  T
  18    -21.6038302 -0.230629E-03  0.222E-01    0.09       1.0  T
  19    -21.6036815  0.148735E-03  0.236E-01    0.10       1.0  T
  20    -21.6036204  0.611404E-04  0.241E-01    0.10       1.0  T
  21    -21.6036227 -0.231695E-05  0.241E-01    0.10       1.0  T
  22    -21.6036573 -0.346017E-04  0.237E-01    0.10       1.0  T
  23    -21.6038750 -0.217688E-03  0.213E-01    0.10       1.0  T
  24    -21.6047397 -0.864709E-03  0.765E-02    0.09       1.0  T
  25    -21.6041886  0.551065E-03  0.177E-01    0.08       1.0  T
  26    -21.6046112 -0.422618E-03  0.109E-01    0.09       1.0  T
  27    -21.6046215 -0.102727E-04  0.106E-01    0.09       1.0  T
  28    -21.6048506 -0.229089E-03  0.332E-02    0.09       1.0  T
  29    -21.6048727 -0.221133E-04  0.964E-03    0.09       3.0  T
  30    -21.6048740 -0.127970E-05  0.688E-03    0.09       4.2  T
  31    -21.6048749 -0.946039E-06  0.140E-03    0.09      20.6  T
  32    -21.6048749 -0.693457E-08  0.979E-04    0.09      29.5  T
     SCC iter.                  ...        0 min,  0.097 sec
     gradient                   ...        0 min,  0.001 sec
 * total energy  :   -21.4290688 Eh     change       -0.2768726E-03 Eh
   gradient norm :     0.0091073 Eh/α   predicted    -0.2405000E-03 ( -13.14%)
   displ. norm   :     0.0800381 α      lambda       -0.1201881E-03
   maximum displ.:     0.0563887 α      in ANC's #2, #1, #3, ...

........................................................................
.............................. CYCLE    8 ..............................
........................................................................
   1    -21.5991230 -0.215991E+02  0.557E-01    0.07       0.0  T
   2    -21.6000783 -0.955326E-03  0.693E-01    0.11       1.0  T
   3    -21.6011909 -0.111254E-02  0.532E-01    0.11       1.0  T
   4    -21.6026244 -0.143359E-02  0.395E-01    0.10       1.0  T
   5    -21.5979023  0.472210E-02  0.600E-01    0.06       1.0  T
   6    -21.6025513 -0.464897E-02  0.398E-01    0.10       1.0  T
   7    -21.6031891 -0.637755E-03  0.354E-01    0.10       1.0  T
   8    -21.6046382 -0.144914E-02  0.237E-01    0.10       1.0  T
   9    -21.6058643 -0.122608E-02  0.142E-02    0.09       2.0  T
  10    -21.6049700  0.894324E-03  0.201E-01    0.08       1.0  T
  11    -21.6056987 -0.728767E-03  0.873E-02    0.08       1.0  T
  12    -21.6051853  0.513431E-03  0.175E-01    0.08       1.0  T
  13    -21.6056293 -0.443954E-03  0.104E-01    0.08       1.0  T
  14    -21.6053618  0.267427E-03  0.151E-01    0.08       1.0  T
  15    -21.6057164 -0.354591E-03  0.830E-02    0.08       1.0  T
  16    -21.6056496  0.668465E-04  0.997E-02    0.08       1.0  T
  17    -21.6058026 -0.153065E-03  0.548E-02    0.08       1.0  T
  18    -21.6058428 -0.401629E-04  0.343E-02    0.08       1.0  T
  19    -21.6058643 -0.215507E-04  0.137E-02    0.09       2.1  T
  20    -21.6058681 -0.378018E-05  0.406E-03    0.09       7.1  T
  21    -21.6058682 -0.802116E-07  0.360E-03    0.09       8.0  T
  22    -21.6058683 -0.801685E-07  0.306E-03    0.09       9.4  T
  23    -21.6058685 -0.201848E-06  0.516E-04    0.09      56.0  T
  24    -21.6058685 -0.515064E-08  0.190E-04    0.09     151.8  T
     SCC iter.                  ...        0 min,  0.198 sec
     gradient                   ...        0 min,  0.001 sec
 * total energy  :   -21.4291306 Eh     change       -0.6174624E-04 Eh
   gradient norm :     0.0052503 Eh/α   predicted    -0.6048027E-04 (  -2.05%)
   displ. norm   :     0.1016359 α      lambda       -0.9323231E-04
   maximum displ.:     0.0716728 α      in ANC's #2, #1, #4, ...

........................................................................
.............................. CYCLE    9 ..............................
........................................................................
   1    -21.6057977 -0.216058E+02  0.231E-01    0.08       0.0  T
   2    -21.6019993  0.379844E-02  0.518E-01    0.11       1.0  T
   3    -21.6045004 -0.250110E-02  0.321E-01    0.10       1.0  T
   4    -21.4445834  0.159917E+00  0.272E+00    0.01       1.0  T
   5    -21.6029404 -0.158357E+00  0.431E-01    0.10       1.0  T
   6    -21.6032486 -0.308173E-03  0.409E-01    0.10       1.0  T
   7    -21.6034611 -0.212487E-03  0.395E-01    0.10       1.0  T
   8    -21.6037307 -0.269580E-03  0.376E-01    0.10       1.0  T
   9    -21.6039422 -0.211509E-03  0.362E-01    0.09       1.0  T
  10    -21.6028498  0.109237E-02  0.439E-01    0.10       1.0  T
  11    -21.6024896  0.360148E-03  0.468E-01    0.10       1.0  T
  12    -21.6024071  0.825802E-04  0.476E-01    0.10       1.0  T
  13    -21.6021385  0.268566E-03  0.507E-01    0.11       1.0  T
  14    -21.6028835 -0.745025E-03  0.435E-01    0.10       1.0  T
  15    -21.6020301  0.853390E-03  0.523E-01    0.11       1.0  T
  16    -21.6019665  0.635949E-04  0.534E-01    0.11       1.0  T
  17    -21.6031902 -0.122370E-02  0.409E-01    0.10       1.0  T
  18    -21.5889676  0.142226E-01  0.906E-01    0.05       1.0  T
  19    -21.6020610 -0.130934E-01  0.531E-01    0.10       1.0  T
  20    -20.7359030  0.866158E+00  0.635E+00    0.22       1.0  T
  21    -20.6253261  0.110577E+00  0.734E+00    1.52       1.0  T
  22    -20.6950948 -0.697687E-01  0.643E+00    0.37       1.0  T
  23    -19.8948876  0.800207E+00  0.107E+01    1.44       1.0  T
  24    -19.8954181 -0.530481E-03  0.107E+01    1.41       1.0  T
  25    -19.9030177 -0.759959E-02  0.105E+01    0.99       1.0  T
  26    -19.9024673  0.550343E-03  0.105E+01    1.02       1.0  T
  27    -19.9041767 -0.170938E-02  0.105E+01    0.91       1.0  T
  28    -19.9099085 -0.573178E-02  0.103E+01    0.70       1.0  T
  29    -21.5892890 -0.167938E+01  0.225E+00    0.18       1.0  T
  30    -21.5939596 -0.467057E-02  0.235E+00    0.22       1.0  T
  31    -21.0998824  0.494077E+00  0.473E+00    0.08       1.0  T
  32    -21.5967063 -0.496824E+00  0.248E+00    0.25       1.0  T
  33    -21.5988201 -0.211372E-02  0.217E+00    0.23       1.0  T
  34    -20.6418501  0.956970E+00  0.670E+00    0.75       1.0  T
  35    -21.5979347 -0.956085E+00  0.256E+00    0.27       1.0  T
  36    -20.6487552  0.949179E+00  0.682E+00    0.33       1.0  T
  37    -21.6010551 -0.952300E+00  0.128E+00    0.18       1.0  T
  38    -21.6014869 -0.431835E-03  0.137E+00    0.19       1.0  T
  39    -20.6175783  0.983909E+00  0.699E+00    0.63       1.0  T
  40    -20.6616189 -0.440406E-01  0.692E+00    0.23       1.0  T
  41    -21.0973482 -0.435729E+00  0.511E+00    0.07       1.0  T
  42    -21.6019986 -0.504650E+00  0.111E+00    0.17       1.0  T
  43    -20.6365746  0.965424E+00  0.678E+00    1.03       1.0  T
  44    -21.6012526 -0.964678E+00  0.118E+00    0.18       1.0  T
  45    -20.6306453  0.970607E+00  0.683E+00    1.47       1.0  T
  46    -21.6011949 -0.970550E+00  0.116E+00    0.18       1.0  T
  47    -20.6323290  0.968866E+00  0.685E+00    1.47       1.0  T
  48    -21.6008135 -0.968484E+00  0.131E+00    0.19       1.0  T
  49    -20.6386204  0.962193E+00  0.682E+00    1.42       1.0  T
  50    -21.6004077 -0.961787E+00  0.145E+00    0.20       1.0  T
  51    -20.6487955  0.951612E+00  0.676E+00    1.23       1.0  T
  52    -21.6000777 -0.951282E+00  0.155E+00    0.21       1.0  T
  53    -20.6615550  0.938523E+00  0.668E+00    0.94       1.0  T
  54    -21.5998448 -0.938290E+00  0.163E+00    0.22       1.0  T
  55    -20.6751580  0.924687E+00  0.661E+00    0.66       1.0  T
  56    -21.5997107 -0.924553E+00  0.168E+00    0.22       1.0  T
  57    -20.6883862  0.911325E+00  0.655E+00    0.46       1.0  T
  58    -21.5997034 -0.911317E+00  0.171E+00    0.22       1.0  T
  59    -20.7032257  0.896478E+00  0.650E+00    0.34       1.0  T
  60    -21.5998184 -0.896593E+00  0.168E+00    0.22       1.0  T
  61    -20.7231355  0.876683E+00  0.643E+00    0.26       1.0  T
  62    -21.6000043 -0.876869E+00  0.162E+00    0.22       1.0  T
  63    -20.7451438  0.854860E+00  0.636E+00    0.22       1.0  T
  64    -21.6002143 -0.855070E+00  0.153E+00    0.21       1.0  T
  65    -20.7649521  0.835262E+00  0.630E+00    0.20       1.0  T
  66    -21.6004290 -0.835477E+00  0.144E+00    0.20       1.0  T
  67    -20.7784419  0.821987E+00  0.626E+00    0.19       1.0  T
  68    -21.6006418 -0.822200E+00  0.134E+00    0.20       1.0  T
  69    -20.7862817  0.814360E+00  0.625E+00    0.18       1.0  T
  70    -21.6008560 -0.814574E+00  0.125E+00    0.19       1.0  T
  71    -20.7869674  0.813889E+00  0.627E+00    0.18       1.0  T
  72    -21.6010758 -0.814108E+00  0.117E+00    0.19       1.0  T
  73    -20.7850072  0.816069E+00  0.631E+00    0.19       1.0  T
  74    -21.6013303 -0.816323E+00  0.108E+00    0.18       1.0  T
  75    -20.7805821  0.820748E+00  0.635E+00    0.19       1.0  T
  76    -21.6017350 -0.821153E+00  0.100E+00    0.17       1.0  T
  77    -20.7853936  0.816341E+00  0.637E+00    0.19       1.0  T
  78    -21.6044364 -0.819043E+00  0.876E-01    0.15       1.0  T
  79    -20.8779447  0.726492E+00  0.607E+00    0.14       1.0  T
  80    -21.1802251 -0.302280E+00  0.470E+00    0.06       1.0  T
  81    -21.6055817 -0.425357E+00  0.103E+00    0.12       1.0  T
  82    -20.7220476  0.883534E+00  0.671E+00    0.30       1.0  T
  83    -20.7280502 -0.600260E-02  0.662E+00    0.28       1.0  T
  84    -21.0284126 -0.300362E+00  0.549E+00    0.09       1.0  T
  85    -20.7645961  0.263816E+00  0.660E+00    0.21       1.0  T
  86    -20.7238911  0.407050E-01  0.673E+00    0.29       1.0  T
  87    -20.7211916  0.269952E-02  0.673E+00    0.30       1.0  T
  88    -20.8277720 -0.106580E+00  0.630E+00    0.16       1.0  T
  89    -21.5225920 -0.694820E+00  0.222E+00    0.04       1.0  T
  90    -20.7128998  0.809692E+00  0.657E+00    0.30       1.0  T
  91    -21.6036365 -0.890737E+00  0.620E-01    0.14       1.0  T
  92    -20.6683148  0.935322E+00  0.666E+00    0.92       1.0  T
  93    -21.6014168 -0.933102E+00  0.922E-01    0.17       1.0  T
  94    -20.6721384  0.929278E+00  0.663E+00    0.83       1.0  T
  95    -21.6010263 -0.928888E+00  0.105E+00    0.18       1.0  T
  96    -20.6815226  0.919504E+00  0.657E+00    0.63       1.0  T
  97    -21.6008317 -0.919309E+00  0.107E+00    0.18       1.0  T
  98    -20.6899272  0.910905E+00  0.651E+00    0.48       1.0  T
  99    -21.6006403 -0.910713E+00  0.109E+00    0.18       1.0  T
 100    -20.7003953  0.900245E+00  0.644E+00    0.36       1.0  T
     SCC iter.                  ...        0 min,  1.202 sec
     gradient                   ...        0 min,  0.091 sec
 * total energy  :   -20.5229827 Eh     change        0.9061479E+00 Eh
   gradient norm :     0.5397114 Eh/α   predicted    -0.4709660E-04 (-100.01%)
   displ. norm   :     0.3856489 α      lambda       -0.1649656E+00
   maximum displ.:     0.2720442 α      in ANC's #30, #1, #29, ...

........................................................................
.............................. CYCLE   10 ..............................
........................................................................
   1    -20.8338430 -0.208338E+02  0.426E+00    1.32       0.0  T
   2    -19.5608387  0.127300E+01  0.115E+01    2.76       1.0  T
   3    -19.7222498 -0.161411E+00  0.103E+01    0.42       1.0  T
   4    -21.5280825 -0.180583E+01  0.371E+00    0.02       1.0  T
   5    -21.5533276 -0.252451E-01  0.300E+00    0.02       1.0  T
   6    -21.5437326  0.959498E-02  0.274E+00    0.03       1.0  T
   7    -20.8381905  0.705542E+00  0.568E+00    1.34       1.0  T
   8    -21.3310282 -0.492838E+00  0.311E+00    0.07       1.0  T
   9    -21.3743869 -0.433586E-01  0.282E+00    0.06       1.0  T
  10    -21.1170818  0.257305E+00  0.428E+00    0.13       1.0  T
  11    -21.5745802 -0.457498E+00  0.500E-01    0.02       1.0  T
  12    -21.5658388  0.874137E-02  0.812E-01    0.03       1.0  T
  13    -21.5762293 -0.103904E-01  0.301E-01    0.02       1.0  T
  14    -21.5765985 -0.369204E-03  0.226E-01    0.02       1.0  T
  15    -21.5758631  0.735396E-03  0.321E-01    0.02       1.0  T
  16    -21.5342241  0.416390E-01  0.131E+00    0.02       1.0  T
  17    -21.5292053  0.501875E-02  0.139E+00    0.02       1.0  T
  18    -21.4791905  0.500148E-01  0.197E+00    0.05       1.0  T
  19    -21.4823486 -0.315814E-02  0.192E+00    0.07       1.0  T
  20    -21.4722894  0.100593E-01  0.202E+00    0.07       1.0  T
  21    -21.5650044 -0.927150E-01  0.677E-01    0.04       1.0  T
  22    -21.5677186 -0.271421E-02  0.599E-01    0.04       1.0  T
  23    -21.5474189  0.202997E-01  0.106E+00    0.06       1.0  T
  24    -21.4898094  0.576095E-01  0.185E+00    0.09       1.0  T
  25    -21.4998620 -0.100527E-01  0.177E+00    0.06       1.0  T
  26    -21.5695739 -0.697119E-01  0.645E-01    0.04       1.0  T
  27    -21.5667692  0.280479E-02  0.770E-01    0.05       1.0  T
  28    -21.5629337  0.383545E-02  0.743E-01    0.01       1.0  T
  29    -21.5732420 -0.103083E-01  0.385E-01    0.03       1.0  T
  30    -21.5748733 -0.163129E-02  0.326E-01    0.04       1.0  T
  31    -21.5745688  0.304432E-03  0.363E-01    0.05       1.0  T
  32    -21.5763256 -0.175674E-02  0.174E-01    0.05       1.0  T
  33    -21.5762422  0.833415E-04  0.171E-01    0.04       1.0  T
  34    -21.5767664 -0.524228E-03  0.598E-02    0.05       1.0  T
  35    -21.5767745 -0.800432E-05  0.603E-02    0.05       1.0  T
  36    -21.5766961  0.783247E-04  0.859E-02    0.06       1.0  T
  37    -21.5766849  0.112557E-04  0.872E-02    0.06       1.0  T
  38    -21.5766728  0.121028E-04  0.901E-02    0.06       1.0  T
  39    -21.5767613 -0.885029E-04  0.653E-02    0.07       1.0  T
  40    -21.5768189 -0.576509E-04  0.429E-02    0.07       1.0  T
  41    -21.5768402 -0.212918E-04  0.376E-02    0.07       1.0  T
  42    -21.5768170  0.232160E-04  0.440E-02    0.08       1.0  T
  43    -21.5768449 -0.279230E-04  0.344E-02    0.07       1.0  T
  44    -21.5768347  0.101841E-04  0.317E-02    0.08       1.0  T
  45    -21.5768480 -0.132823E-04  0.263E-02    0.07       1.1  T
  46    -21.5768448  0.324469E-05  0.236E-02    0.08       1.2  T
  47    -21.5768499 -0.514268E-05  0.213E-02    0.07       1.4  T
  48    -21.5768493  0.581911E-06  0.185E-02    0.08       1.6  T
  49    -21.5768530 -0.361873E-05  0.148E-02    0.08       1.9  T
  50    -21.5768529  0.730272E-07  0.108E-02    0.08       2.7  T
  51    -21.5768552 -0.234433E-05  0.627E-03    0.08       4.6  T
  52    -21.5768553 -0.643956E-07  0.267E-03    0.08      10.8  T
  53    -21.5768550  0.271441E-06  0.613E-03    0.08       4.7  T
  54    -21.5768554 -0.341537E-06  0.642E-04    0.08      45.0  T
     SCC iter.                  ...        0 min,  0.103 sec
     gradient                   ...        0 min,  0.001 sec
 * total energy  :   -21.3807392 Eh     change       -0.8577565E+00 Eh
   gradient norm :     0.2787159 Eh/α   predicted    -0.9475004E-01 ( -88.95%)
   displ. norm   :     0.3386776 α      lambda       -0.3156799E-01
   maximum displ.:     0.3219780 α      in ANC's #1, #30, #29, ...

........................................................................
.............................. CYCLE   11 ..............................
........................................................................
   1    -21.5687378 -0.215687E+02  0.117E+00    0.09       0.0  T
   2    -20.8003565  0.768381E+00  0.607E+00    0.84       1.0  T
   3    -21.5700526 -0.769696E+00  0.959E-01    0.09       1.0  T
   4    -21.5455222  0.245304E-01  0.129E+00    0.05       1.0  T
   5    -21.5738579 -0.283358E-01  0.697E-01    0.09       1.0  T
   6    -21.5790517 -0.519378E-02  0.491E-01    0.09       1.0  T
   7    -21.5836181 -0.456646E-02  0.170E-01    0.08       1.0  T
   8    -21.5827919  0.826294E-03  0.243E-01    0.07       1.0  T
   9    -21.5830179 -0.226054E-03  0.230E-01    0.08       1.0  T
  10    -21.5815009  0.151704E-02  0.344E-01    0.08       1.0  T
  11    -21.5812410  0.259818E-03  0.358E-01    0.09       1.0  T
  12    -21.5817733 -0.532223E-03  0.320E-01    0.09       1.0  T
  13    -21.5821909 -0.417598E-03  0.292E-01    0.08       1.0  T
  14    -21.5820586  0.132267E-03  0.302E-01    0.08       1.0  T
  15    -21.5825323 -0.473740E-03  0.268E-01    0.08       1.0  T
  16    -21.5756566  0.687572E-02  0.120E+00    0.16       1.0  T
  17    -21.5841337 -0.847706E-02  0.546E-02    0.07       1.0  T
  18    -21.5841025  0.311761E-04  0.684E-02    0.07       1.0  T
  19    -21.5841433 -0.407581E-04  0.477E-02    0.07       1.0  T
  20    -21.5841463 -0.299071E-05  0.461E-02    0.07       1.0  T
  21    -21.5841483 -0.200088E-05  0.449E-02    0.07       1.0  T
  22    -21.5841532 -0.497046E-05  0.424E-02    0.07       1.0  T
  23    -21.5841675 -0.142791E-04  0.237E-02    0.07       1.2  T
  24    -21.5841675  0.358711E-07  0.242E-02    0.07       1.2  T
  25    -21.5841649  0.254675E-05  0.258E-02    0.07       1.1  T
  26    -21.5841670 -0.211458E-05  0.234E-02    0.07       1.2  T
  27    -21.5841645  0.251599E-05  0.265E-02    0.07       1.1  T
  28    -21.5841739 -0.938869E-05  0.118E-02    0.07       2.4  T
  29    -21.5841748 -0.857279E-06  0.716E-03    0.07       4.0  T
  30    -21.5841754 -0.632448E-06  0.132E-03    0.07      21.8  T
  31    -21.5841754  0.408015E-07  0.166E-03    0.07      17.4  T
     SCC iter.                  ...        0 min,  0.096 sec
     gradient                   ...        0 min,  0.001 sec
 * total energy  :   -21.4030874 Eh     change       -0.2234821E-01 Eh
   gradient norm :     0.1990692 Eh/α   predicted    -0.1759445E-01 ( -21.27%)
   displ. norm   :     0.5722157 α      lambda       -0.9273329E-01
   maximum displ.:     0.4285714 α      in ANC's #30, #1, #29, ...

........................................................................
.............................. CYCLE   12 ..............................
........................................................................
   1    -20.0936463 -0.200936E+02  0.836E+00    0.30       0.0  T
   2    -19.9346260  0.159020E+00  0.105E+01    1.49       1.0  T
   3    -20.3414235 -0.406797E+00  0.772E+00    1.65       1.0  T
   4    -21.5521341 -0.121071E+01  0.220E+00    0.05       1.0  T
   5    -21.5656309 -0.134968E-01  0.150E+00    0.05       1.0  T
   6    -20.4000668  0.116556E+01  0.745E+00    0.45       1.0  T
   7    -21.5645154 -0.116445E+01  0.123E+00    0.05       1.0  T
   8    -21.5676648 -0.314936E-02  0.659E-01    0.07       1.0  T
   9    -21.5683532 -0.688438E-03  0.520E-01    0.07       1.0  T
  10    -21.5685550 -0.201804E-03  0.477E-01    0.08       1.0  T
  11    -21.5687390 -0.183942E-03  0.397E-01    0.11       1.0  T
  12    -21.5688385 -0.995345E-04  0.355E-01    0.11       1.0  T
  13    -21.5688865 -0.479879E-04  0.335E-01    0.11       1.0  T
  14    -21.5689530 -0.664498E-04  0.308E-01    0.11       1.0  T
  15    -21.5689440  0.899411E-05  0.312E-01    0.11       1.0  T
  16    -21.5689317  0.122826E-04  0.317E-01    0.11       1.0  T
  17    -21.5686210  0.310676E-03  0.419E-01    0.11       1.0  T
  18    -21.5683056  0.315400E-03  0.500E-01    0.11       1.0  T
  19    -21.5687088 -0.403169E-03  0.391E-01    0.11       1.0  T
  20    -21.5690868 -0.378063E-03  0.251E-01    0.11       1.0  T
  21    -21.5689566  0.130253E-03  0.305E-01    0.11       1.0  T
  22    -21.5688877  0.688405E-04  0.328E-01    0.11       1.0  T
  23    -21.5691406 -0.252860E-03  0.222E-01    0.11       1.0  T
  24    -21.5691950 -0.543757E-04  0.195E-01    0.11       1.0  T
  25    -21.5692129 -0.178958E-04  0.187E-01    0.10       1.0  T
  26    -21.5694060 -0.193139E-03  0.530E-02    0.10       1.0  T
  27    -21.5694393 -0.332600E-04  0.344E-02    0.10       1.0  T
  28    -21.5694403 -0.102857E-05  0.407E-02    0.10       1.0  T
  29    -21.5694405 -0.246712E-06  0.401E-02    0.10       1.0  T
  30    -21.5691719  0.268605E-03  0.132E-01    0.09       1.0  T
  31    -21.5694370 -0.265026E-03  0.269E-02    0.10       1.1  T
  32    -21.5694453 -0.832029E-05  0.260E-02    0.10       1.1  T
  33    -21.5694430  0.225201E-05  0.254E-02    0.10       1.1  T
  34    -21.5694483 -0.524558E-05  0.160E-02    0.10       1.8  T
  35    -21.5694489 -0.640774E-06  0.689E-03    0.10       4.2  T
  36    -21.5694486  0.361955E-06  0.915E-03    0.10       3.2  T
  37    -21.5694499 -0.131537E-05  0.310E-03    0.10       9.3  T
  38    -21.5694499  0.218607E-07  0.276E-03    0.10      10.5  T
     SCC iter.                  ...        0 min,  0.097 sec
     gradient                   ...        0 min,  0.001 sec
 * total energy  :   -21.3896876 Eh     change        0.1339982E-01 Eh
   gradient norm :     0.4024091 Eh/α   predicted    -0.6154855E-01 (-559.32%)
   displ. norm   :     0.2804819 α      lambda       -0.1050618E+00
   maximum displ.:     0.2212805 α      in ANC's #30, #1, #29, ...

........................................................................
.............................. CYCLE   13 ..............................
........................................................................
   1    -20.6177201 -0.206177E+02  0.707E+00    1.46       0.0  T
   2    -19.7426653  0.875055E+00  0.105E+01    4.44       1.0  T
   3    -21.5181504 -0.177549E+01  0.336E+00    0.07       1.0  T
   4    -21.5715527 -0.534023E-01  0.188E+00    0.08       1.0  T
   5    -21.5764175 -0.486476E-02  0.143E+00    0.09       1.0  T
   6    -21.5801608 -0.374327E-02  0.854E-01    0.10       1.0  T
   7    -21.5845137 -0.435296E-02  0.468E-01    0.10       1.0  T
   8    -21.0619544  0.522559E+00  0.508E+00    0.10       1.0  T
   9    -21.5824023 -0.520448E+00  0.564E-01    0.10       1.0  T
  10    -21.5872902 -0.488790E-02  0.243E-01    0.09       1.0  T
  11    -21.5876169 -0.326690E-03  0.289E-01    0.08       1.0  T
  12    -21.5788872  0.872972E-02  0.735E-01    0.07       1.0  T
  13    -21.5831460 -0.425890E-02  0.530E-01    0.10       1.0  T
  14    -21.5836144 -0.468392E-03  0.508E-01    0.09       1.0  T
  15    -21.5835479  0.665876E-04  0.515E-01    0.09       1.0  T
  16    -21.5836693 -0.121449E-03  0.510E-01    0.09       1.0  T
  17    -21.5838940 -0.224735E-03  0.499E-01    0.09       1.0  T
  18    -21.5839975 -0.103455E-03  0.493E-01    0.09       1.0  T
  19    -21.5840139 -0.163608E-04  0.492E-01    0.09       1.0  T
  20    -21.5839188  0.950239E-04  0.498E-01    0.09       1.0  T
  21    -21.5833812  0.537676E-03  0.528E-01    0.10       1.0  T
  22    -21.5830555  0.325671E-03  0.542E-01    0.10       1.0  T
  23    -21.5831582 -0.102721E-03  0.535E-01    0.10       1.0  T
  24    -21.5831507  0.754105E-05  0.536E-01    0.10       1.0  T
  25    -21.5832985 -0.147863E-03  0.527E-01    0.10       1.0  T
  26    -21.5833990 -0.100474E-03  0.523E-01    0.10       1.0  T
  27    -21.5833795  0.194585E-04  0.524E-01    0.10       1.0  T
  28    -21.5838181 -0.438549E-03  0.495E-01    0.11       1.0  T
  29    -21.5845952 -0.777112E-03  0.457E-01    0.12       1.0  T
  30    -21.5846919 -0.967156E-04  0.455E-01    0.12       1.0  T
  31    -21.5848847 -0.192815E-03  0.435E-01    0.12       1.0  T
  32    -21.5863528 -0.146807E-02  0.328E-01    0.10       1.0  T
  33    -21.5869662 -0.613428E-03  0.277E-01    0.11       1.0  T
  34    -21.5874552 -0.488973E-03  0.234E-01    0.09       1.0  T
  35    -21.5853512  0.210404E-02  0.395E-01    0.11       1.0  T
  36    -21.5219147  0.634365E-01  0.174E+00    0.05       1.0  T
  37    -21.5817578 -0.598431E-01  0.611E-01    0.12       1.0  T
  38    -21.5829458 -0.118806E-02  0.548E-01    0.10       1.0  T
  39    -21.5864555 -0.350969E-02  0.339E-01    0.09       1.0  T
  40    -21.5885068 -0.205132E-02  0.107E-01    0.08       1.0  T
  41    -21.5877237  0.783148E-03  0.215E-01    0.09       1.0  T
  42    -21.5859732  0.175054E-02  0.348E-01    0.08       1.0  T
  43    -21.5865702 -0.597067E-03  0.312E-01    0.10       1.0  T
  44    -21.5857028  0.867428E-03  0.364E-01    0.08       1.0  T
  45    -21.5865538 -0.850951E-03  0.313E-01    0.11       1.0  T
  46    -21.5870837 -0.529950E-03  0.266E-01    0.08       1.0  T
  47    -21.5874389 -0.355209E-03  0.235E-01    0.10       1.0  T
  48    -21.5873673  0.716492E-04  0.240E-01    0.09       1.0  T
  49    -21.5880076 -0.640367E-03  0.169E-01    0.10       1.0  T
  50    -21.5881020 -0.943889E-04  0.156E-01    0.09       1.0  T
  51    -21.5884615 -0.359461E-03  0.882E-02    0.10       1.0  T
  52    -21.5884408  0.206898E-04  0.938E-02    0.09       1.0  T
  53    -21.5886072 -0.166416E-03  0.341E-02    0.10       1.0  T
  54    -21.5885920  0.152529E-04  0.437E-02    0.09       1.0  T
  55    -21.5886313 -0.393339E-04  0.912E-03    0.10       3.2  T
  56    -21.5886257  0.560469E-05  0.186E-02    0.10       1.5  T
  57    -21.5886313 -0.562750E-05  0.854E-03    0.10       3.4  T
  58    -21.5886303  0.102917E-05  0.104E-02    0.10       2.8  T
  59    -21.5886319 -0.163638E-05  0.439E-03    0.10       6.6  T
  60    -21.5886321 -0.139616E-06  0.321E-03    0.10       9.0  T
     SCC iter.                  ...        0 min,  0.298 sec
     gradient                   ...        0 min,  0.001 sec
 * total energy  :   -21.4241747 Eh     change       -0.3448712E-01 Eh
   gradient norm :     0.1136943 Eh/α   predicted    -0.5666355E-01 (  64.30%)
   displ. norm   :     0.3484216 α      lambda       -0.1121674E-01
   maximum displ.:     0.2767099 α      in ANC's #1, #2, #13, ...

........................................................................
.............................. CYCLE   14 ..............................
........................................................................
   1    -21.6056345 -0.216056E+02  0.811E-01    0.09       0.0  T
   2    -20.8685643  0.737070E+00  0.590E+00    0.18       1.0  T
   3    -21.6045433 -0.735979E+00  0.607E-01    0.09       1.0  T
   4    -21.6033753  0.116800E-02  0.460E-01    0.09       1.0  T
   5    -21.6035706 -0.195356E-03  0.437E-01    0.09       1.0  T
   6    -21.6040648 -0.494123E-03  0.401E-01    0.09       1.0  T
   7    -21.6049533 -0.888558E-03  0.331E-01    0.09       1.0  T
   8    -21.6060117 -0.105840E-02  0.233E-01    0.09       1.0  T
   9    -21.6060990 -0.872873E-04  0.223E-01    0.09       1.0  T
  10    -21.6061599 -0.609302E-04  0.216E-01    0.09       1.0  T
  11    -21.6063145 -0.154564E-03  0.197E-01    0.09       1.0  T
  12    -21.6063632 -0.486790E-04  0.190E-01    0.09       1.0  T
  13    -21.6063606  0.258143E-05  0.190E-01    0.09       1.0  T
  14    -21.6064416 -0.809552E-04  0.180E-01    0.09       1.0  T
  15    -21.6063964  0.451772E-04  0.186E-01    0.09       1.0  T
  16    -21.6069629 -0.566488E-03  0.127E-01    0.11       1.0  T
  17    -21.6065091  0.453734E-03  0.167E-01    0.09       1.0  T
  18    -21.6060103  0.498812E-03  0.226E-01    0.09       1.0  T
  19    -21.6069078 -0.897429E-03  0.978E-02    0.09       1.0  T
  20    -21.6070863 -0.178545E-03  0.193E-02    0.10       1.5  T
  21    -21.6070136  0.726927E-04  0.600E-02    0.10       1.0  T
  22    -21.6069905  0.231146E-04  0.689E-02    0.10       1.0  T
  23    -21.6070124 -0.218736E-04  0.611E-02    0.10       1.0  T
  24    -21.6070482 -0.358246E-04  0.451E-02    0.10       1.0  T
  25    -21.6070791 -0.308857E-04  0.252E-02    0.10       1.1  T
  26    -21.6070910 -0.118982E-04  0.100E-02    0.10       2.9  T
  27    -21.6070931 -0.213585E-05  0.738E-04    0.10      39.1  T
  28    -21.6070931 -0.616991E-08  0.498E-04    0.10      58.0  T
     SCC iter.                  ...        0 min,  0.098 sec
     gradient                   ...        0 min,  0.001 sec
 * total energy  :   -21.4281200 Eh     change       -0.3945282E-02 Eh
   gradient norm :     0.0563644 Eh/α   predicted    -0.6289212E-02 (  59.41%)
   displ. norm   :     0.2050217 α      lambda       -0.3334486E-02
   maximum displ.:     0.1139717 α      in ANC's #5, #1, #2, ...

........................................................................
.............................. CYCLE   15 ..............................
........................................................................
   1    -21.6028391 -0.216028E+02  0.499E-01    0.09       0.0  T
   2    -20.7639533  0.838886E+00  0.639E+00    0.28       1.0  T
   3    -21.6041541 -0.840201E+00  0.367E-01    0.10       1.0  T
   4    -21.6062354 -0.208128E-02  0.989E-02    0.10       1.0  T
   5    -21.6062084  0.269976E-04  0.919E-02    0.10       1.0  T
   6    -21.6062696 -0.612702E-04  0.573E-02    0.10       1.0  T
   7    -21.6062865 -0.168179E-04  0.507E-02    0.10       1.0  T
   8    -21.6063018 -0.153585E-04  0.420E-02    0.10       1.0  T
   9    -21.6063192 -0.173941E-04  0.319E-02    0.11       1.0  T
  10    -21.6063169  0.226943E-05  0.349E-02    0.11       1.0  T
  11    -21.6062444  0.725657E-04  0.712E-02    0.11       1.0  T
  12    -21.6059626  0.281814E-03  0.139E-01    0.11       1.0  T
  13    -21.6062675 -0.304925E-03  0.547E-02    0.11       1.0  T
  14    -21.6062702 -0.273017E-05  0.733E-02    0.11       1.0  T
  15    -21.6062579  0.122658E-04  0.802E-02    0.11       1.0  T
  16    -21.6063135 -0.555337E-04  0.499E-02    0.11       1.0  T
  17    -21.6063220 -0.847053E-05  0.220E-02    0.11       1.3  T
  18    -21.6063220 -0.955125E-08  0.136E-02    0.11       2.1  T
  19    -21.6063234 -0.140999E-05  0.930E-03    0.11       3.1  T
  20    -21.6063249 -0.152416E-05  0.269E-03    0.11      10.7  T
  21    -21.6063250 -0.912247E-07  0.166E-03    0.11      17.3  T
     SCC iter.                  ...        0 min,  0.094 sec
     gradient                   ...        0 min,  0.001 sec
 * total energy  :   -21.4299970 Eh     change       -0.1877042E-02 Eh
   gradient norm :     0.0042204 Eh/α   predicted    -0.1737323E-02 (  -7.44%)
   displ. norm   :     0.2784136 α      lambda       -0.6345285E-03
   maximum displ.:     0.1735351 α      in ANC's #5, #2, #4, ...

........................................................................
.............................. CYCLE   16 ..............................
........................................................................
   1    -21.6051268 -0.216051E+02  0.295E-01    0.12       0.0  T
   2    -21.6029389  0.218790E-02  0.461E-01    0.10       1.0  T
   3    -21.6057691 -0.283021E-02  0.191E-01    0.11       1.0  T
   4    -21.5590300  0.467391E-01  0.150E+00    0.13       1.0  T
   5    -21.6060732 -0.470432E-01  0.100E-01    0.12       1.0  T
   6    -21.6057129  0.360285E-03  0.168E-01    0.11       1.0  T
   7    -21.6059490 -0.236072E-03  0.125E-01    0.12       1.0  T
   8    -21.6060042 -0.551681E-04  0.111E-01    0.12       1.0  T
   9    -21.6060154 -0.112115E-04  0.109E-01    0.12       1.0  T
  10    -21.6060516 -0.361851E-04  0.995E-02    0.12       1.0  T
  11    -21.6058820  0.169585E-03  0.137E-01    0.12       1.0  T
  12    -21.6057977  0.843417E-04  0.153E-01    0.12       1.0  T
  13    -21.6057544  0.432349E-04  0.160E-01    0.12       1.0  T
  14    -21.6059714 -0.217015E-03  0.119E-01    0.12       1.0  T
  15    -21.6062375 -0.266055E-03  0.169E-02    0.12       1.7  T
  16    -21.6062155  0.220127E-04  0.374E-02    0.12       1.0  T
  17    -21.6062390 -0.235097E-04  0.145E-02    0.12       2.0  T
  18    -21.6062425 -0.355331E-05  0.551E-03    0.12       5.2  T
  19    -21.6062429 -0.394081E-06  0.322E-03    0.12       9.0  T
  20    -21.6062431 -0.192640E-06  0.612E-04    0.12      47.2  T
  21    -21.6062431 -0.637570E-08  0.206E-04    0.12     140.3  T
     SCC iter.                  ...        0 min,  0.004 sec
     gradient                   ...        0 min,  0.001 sec
 * total energy  :   -21.4306286 Eh     change       -0.6316253E-03 Eh
   gradient norm :     0.0076450 Eh/α   predicted    -0.3418576E-03 ( -45.88%)
   displ. norm   :     0.9813619 α      lambda       -0.2320061E-02
   maximum displ.:     0.6309760 α      in ANC's #5, #2, #4, ...

........................................................................
.............................. CYCLE   17 ..............................
........................................................................
   1    -21.4563499 -0.214563E+02  0.270E+00    0.26       0.0  T
   2    -19.9882751  0.146807E+01  0.903E+00    0.52       1.0  T
   3    -21.5852866 -0.159701E+01  0.156E+00    0.11       1.0  T
   4    -21.5953617 -0.100751E-01  0.959E-01    0.13       1.0  T
   5    -21.5970403 -0.167855E-02  0.761E-01    0.14       1.0  T
   6    -21.5981671 -0.112677E-02  0.434E-01    0.20       1.0  T
   7    -21.6009936 -0.282654E-02  0.675E-02    0.19       1.0  T
   8    -21.6008928  0.100829E-03  0.882E-02    0.18       1.0  T
   9    -21.6009717 -0.789460E-04  0.475E-02    0.19       1.0  T
  10    -21.6010046 -0.328878E-04  0.131E-02    0.19       2.2  T
  11    -21.6010039  0.740737E-06  0.110E-02    0.19       2.6  T
  12    -21.6010048 -0.932048E-06  0.332E-03    0.19       8.7  T
  13    -21.6010037  0.107019E-05  0.897E-03    0.19       3.2  T
  14    -21.6010048 -0.108929E-05  0.770E-04    0.19      37.5  T
  15    -21.6010048  0.326909E-08  0.680E-04    0.19      42.5  T
     SCC iter.                  ...        0 min,  0.093 sec
     gradient                   ...        0 min,  0.002 sec
 * total energy  :   -21.4320253 Eh     change       -0.1396641E-02 Eh
   gradient norm :     0.0374622 Eh/α   predicted    -0.2277278E-02 (  63.05%)
   displ. norm   :     0.4428103 α      lambda       -0.2641776E-02
   maximum displ.:     0.3521513 α      in ANC's #5, #1, #4, ...

........................................................................
.............................. CYCLE   18 ..............................
........................................................................
   1    -21.5948432 -0.215948E+02  0.108E+00    0.28       0.0  T
   2    -21.5960264 -0.118318E-02  0.814E-01    0.19       1.0  T
   3    -21.6008741 -0.484772E-02  0.467E-01    0.24       1.0  T
   4    -21.5963954  0.447871E-02  0.544E-01    0.27       1.0  T
   5    -21.6009978 -0.460236E-02  0.107E-01    0.24       1.0  T
   6    -21.6009662  0.315653E-04  0.967E-02    0.24       1.0  T
   7    -21.6010232 -0.570111E-04  0.343E-02    0.24       1.0  T
   8    -21.6010286 -0.533352E-05  0.184E-02    0.24       1.6  T
   9    -21.6010307 -0.212176E-05  0.709E-03    0.24       4.1  T
  10    -21.6010306  0.682495E-07  0.454E-03    0.24       6.4  T
  11    -21.6010308 -0.172703E-06  0.243E-03    0.24      11.9  T
     SCC iter.                  ...        0 min,  0.002 sec
     gradient                   ...        0 min,  0.001 sec
 * total energy  :   -21.4333544 Eh     change       -0.1329110E-02 Eh
[...]
   displ. norm   :     0.1556284 α      lambda       -0.1445264E-04
   maximum displ.:     0.1073527 α      in ANC's #2, #3, #1, ...

........................................................................
.............................. CYCLE  102 ..............................
........................................................................
   1    -21.7321239 -0.217321E+02  0.182E-01    2.80       0.0  T
   2    -21.7321280 -0.405520E-05  0.114E-01    2.80       1.0  T
   3    -21.7321144  0.135772E-04  0.416E-02    2.80       1.0  T
   4    -21.7321320 -0.175657E-04  0.743E-03    2.80       3.9  T
   5    -21.7321320 -0.210652E-07  0.186E-03    2.80      15.5  T
   6    -21.7321320 -0.966932E-08  0.509E-04    2.80      56.7  T
   7    -21.7321320 -0.124663E-08  0.212E-04    2.80     136.5  T
     SCC iter.                  ...        0 min,  0.002 sec
     gradient                   ...        0 min,  0.001 sec
 * total energy  :   -21.5254924 Eh     change       -0.6284473E-05 Eh
   gradient norm :     0.0031567 Eh/α   predicted    -0.7302229E-05 (  16.19%)
   displ. norm   :     0.0427433 α      lambda       -0.1560825E-04
   maximum displ.:     0.0298524 α      in ANC's #2, #4, #1, ...

........................................................................
.............................. CYCLE  103 ..............................
........................................................................
   1    -21.7324042 -0.217324E+02  0.484E-02    2.80       0.0  T
   2    -21.7324044 -0.224365E-06  0.296E-02    2.80       1.0  T
   3    -21.7324035  0.904178E-06  0.104E-02    2.80       2.8  T
   4    -21.7324046 -0.109939E-05  0.189E-03    2.80      15.3  T
   5    -21.7324046 -0.556956E-08  0.950E-04    2.80      30.4  T
   6    -21.7324046 -0.114019E-08  0.303E-04    2.80      95.4  T
     SCC iter.                  ...        0 min,  0.001 sec
     gradient                   ...        0 min,  0.091 sec
 * total energy  :   -21.5255034 Eh     change       -0.1094191E-04 Eh
   gradient norm :     0.0014190 Eh/α   predicted    -0.7819559E-05 ( -28.54%)
   displ. norm   :     0.0762384 α      lambda       -0.8149306E-05
   maximum displ.:     0.0569214 α      in ANC's #2, #1, #4, ...

........................................................................
.............................. CYCLE  104 ..............................
........................................................................
   1    -21.7325964 -0.217326E+02  0.778E-02    2.79       0.0  T
   2    -21.7325969 -0.486792E-06  0.474E-02    2.79       1.0  T
   3    -21.7325916  0.529186E-05  0.252E-02    2.79       1.1  T
   4    -21.7325978 -0.618091E-05  0.281E-03    2.79      10.3  T
   5    -21.7325978 -0.294354E-08  0.813E-04    2.79      35.5  T
   6    -21.7325978 -0.247013E-08  0.269E-04    2.79     107.4  T
     SCC iter.                  ...        0 min,  0.004 sec
     gradient                   ...        0 min,  0.001 sec
 * total energy  :   -21.5255102 Eh     change       -0.6888884E-05 Eh
   gradient norm :     0.0009807 Eh/α   predicted    -0.4084459E-05 ( -40.71%)
   displ. norm   :     0.0517182 α      lambda       -0.2873134E-05
   maximum displ.:     0.0389648 α      in ANC's #2, #1, #3, ...

........................................................................
.............................. CYCLE  105 ..............................
........................................................................
   1    -21.7325967 -0.217326E+02  0.482E-02    2.79       0.0  T
   2    -21.7325970 -0.229936E-06  0.295E-02    2.79       1.0  T
   3    -21.7325956  0.137070E-05  0.130E-02    2.79       2.2  T
   4    -21.7325973 -0.166109E-05  0.191E-03    2.79      15.2  T
   5    -21.7325973 -0.231835E-08  0.318E-04    2.79      90.7  T
   6    -21.7325973 -0.166477E-09  0.107E-04    2.79     270.4  T
     SCC iter.                  ...        0 min,  0.001 sec
     gradient                   ...        0 min,  0.091 sec
 * total energy  :   -21.5255136 Eh     change       -0.3346081E-05 Eh
   gradient norm :     0.0008720 Eh/α   predicted    -0.1437680E-05 ( -57.03%)
   displ. norm   :     0.0629887 α      lambda       -0.2710309E-05
   maximum displ.:     0.0488751 α      in ANC's #2, #3, #1, ...

   *** GEOMETRY OPTIMIZATION CONVERGED AFTER 105 ITERATIONS ***

------------------------------------------------------------------------
 total energy gain   :        -1.1687362 Eh     -733.3931 kcal/mol
 total RMSD          :         3.2249915 a0        1.7066 Å
 total power (kW/mol):       -29.2239674 (step) -279.0697 (real)
------------------------------------------------------------------------

 ANCopt (total)                0 d,  0 h,  0 min, 10.996 sec
 optimizer setup                ...        0 min,  0.000 sec (  0.004%)
 model hessian                  ...        0 min,  0.106 sec (  0.963%)
 ANC generation                 ...        0 min,  0.003 sec (  0.024%)
 coordinate transformation      ...        0 min,  0.094 sec (  0.857%)
 single point calculation       ...        0 min, 10.380 sec ( 94.401%)
 optimization log               ...        0 min,  0.007 sec (  0.066%)
 hessian update                 ...        0 min,  0.197 sec (  1.790%)
 rational function              ...        0 min,  0.009 sec (  0.081%)

================
 final structure:
================
12
 xtb: 6.2.3 (830e466)
C         1.68395961093679    0.82093356985616   -2.82098904314157
C         1.23832536807460   -0.21594650695700   -2.11558167911336
C         1.31668875107205   -0.26164874289711   -0.65599406514408
O         0.88212113686159    3.24035070272219   -0.66091443787191
O        -0.34575396426839    2.84209326004229   -1.25684996174467
O         1.61860233547293    0.66128173136992    0.06457998344400
H         1.22296113903466    2.39409537949414   -0.29820137735155
H         2.12457346118719    1.67649477192711   -2.33541008882087
H         1.62424412734022    0.84846472296628   -3.89583472106821
H         1.06953172367517   -1.24648291828321   -0.22035045723627
H         0.80662043857739   -1.08283230672829   -2.59509363760841
H        -0.85286412797829    3.66277633648650   -1.24515051436220
 
 Bond Distances (Angstroems)
 ---------------------------
C1-C2=1.3309         C1-H8=1.0779         C1-H9=1.0769         C2-C1=1.3309         C2-C3=1.4624         C2-H11=1.0806        
C3-C2=1.4624         C3-O6=1.2092         C3-H10=1.1049        O4-O5=1.4218         O4-H7=0.9818         O5-O4=1.4218         
O5-H12=0.9648        O6-C3=1.2092         H7-O4=0.9818         H8-C1=1.0779         H9-C1=1.0769         H10-C3=1.1049        
H11-C2=1.0806        H12-O5=0.9648        
 C  H  Rav=1.0851 sigma=0.0115  Rmin=1.0769  Rmax=1.1049     4
 C  C  Rav=1.3967 sigma=0.0657  Rmin=1.3309  Rmax=1.4624     2
 O  H  Rav=0.9733 sigma=0.0085  Rmin=0.9648  Rmax=0.9818     2
 O  C  Rav=1.2092 sigma=0.0000  Rmin=1.2092  Rmax=1.2092     1
 O  O  Rav=1.4218 sigma=0.0000  Rmin=1.4218  Rmax=1.4218     1
 
 selected bond angles (degree)
 --------------------
H8-C1-C2=121.10                H9-C1-C2=122.03                H9-C1-H8=116.87                C3-C2-C1=122.37                
H11-C2-C1=121.57               H11-C2-C3=116.05               O6-C3-C2=125.75                H10-C3-C2=114.17               
H10-C3-O6=120.08               H7-O4-O5=102.31                H12-O5-O4=102.16               
 
 selected dihedral angles (degree)
 ---------------------------------
C3-C2-C1-H8=  0.00            C3-C2-C1-H9=179.95            H11-C2-C1-H8=180.78           H11-C2-C1-H9=  0.75           
O6-C3-C2-C1=  9.90            O6-C3-C2-H11=189.14           H10-C3-C2-C1=189.89           H10-C3-C2-H11=  9.14          
H12-O5-O4-H7=155.10           
 
 CMA Distance (Angstroems)
 ---------------------------
R(CMA):  2.9418
           -------------------------------------------------
          |                Final Singlepoint                |
           -------------------------------------------------

          ...................................................
          :                      SETUP                      :
          :.................................................:
          :  # basis functions                  30          :
          :  # atomic orbitals                  30          :
          :  # shells                           18          :
          :  # electrons                        36          :
          :  max. iterations                   100          :
          :  Hamiltonian                  GFN2-xTB          :
          :  restarted?                      false          :
          :  GBSA solvation                  false          :
          :  PC potential                    false          :
          :  electronic temp.          300.0000000     K    :
          :  accuracy                    1.0000000          :
          :  -> integral cutoff          0.2500000E+02      :
          :  -> integral neglect         0.1000000E-07      :
          :  -> SCF convergence          0.1000000E-05 Eh   :
          :  -> wf. convergence          0.1000000E-03 e    :
          :  Broyden damping             0.4000000          :
          ...................................................

 iter      E             dE          RMSdq      gap      omega  full diag
   1    -21.7325973 -0.217326E+02  0.408E-05    2.79       0.0  T
   2    -21.7325973 -0.317968E-11  0.219E-05    2.79    1320.6  T
   3    -21.7325973 -0.266454E-12  0.156E-05    2.79    1853.9  T

   *** convergence criteria satisfied after 3 iterations ***

         #    Occupation            Energy/Eh            Energy/eV
      -------------------------------------------------------------
         1        2.0000           -0.7268162             -19.7777
       ...           ...                  ...                  ...
        12        2.0000           -0.5307965             -14.4437
        13        2.0000           -0.5073470             -13.8056
        14        2.0000           -0.4847731             -13.1913
        15        2.0000           -0.4673446             -12.7171
        16        2.0000           -0.4489829             -12.2174
        17        2.0000           -0.4161645             -11.3244
        18        2.0000           -0.4111085             -11.1868 (HOMO)
        19                         -0.3084956              -8.3946 (LUMO)
        20                         -0.1908550              -5.1934
        21                         -0.1304672              -3.5502
        22                          0.0875556               2.3825
        23                          0.1127096               3.0670
       ...                                ...                  ...
        30                          0.6557055              17.8427
      -------------------------------------------------------------
                  HL-Gap            0.1026128 Eh            2.7922 eV
             Fermi-level           -0.3598021 Eh           -9.7907 eV

 SCC (total)                   0 d,  0 h,  0 min,  0.003 sec
 SCC setup                      ...        0 min,  0.000 sec (  7.442%)
 Dispersion                     ...        0 min,  0.000 sec (  1.413%)
 integral evaluation            ...        0 min,  0.000 sec ( 15.325%)
 zeroth order Hamiltonian       ...        0 min,  0.000 sec (  2.392%)
 iterations                     ...        0 min,  0.001 sec ( 25.825%)
 molecular gradient             ...        0 min,  0.001 sec ( 33.836%)
 printout                       ...        0 min,  0.000 sec (  6.671%)

         :::::::::::::::::::::::::::::::::::::::::::::::::::::
         ::                     SUMMARY                     ::
         :::::::::::::::::::::::::::::::::::::::::::::::::::::
         :: total energy             -21.525513582630 Eh    ::
         :: gradient norm              0.000872906165 Eh/a0 ::
         :: HOMO-LUMO gap              2.792236834777 eV    ::
         ::.................................................::
         :: SCC energy               -21.732597264285 Eh    ::
         :: -> isotropic ES            0.054778529555 Eh    ::
         :: -> anisotropic ES         -0.010775326654 Eh    ::
         :: -> anisotropic XC         -0.000814638610 Eh    ::
         :: -> dispersion             -0.005878134896 Eh    ::
         :: repulsion energy           0.207068999833 Eh    ::
         :: add. restraining           0.000000000000 Eh    ::
         :::::::::::::::::::::::::::::::::::::::::::::::::::::

           -------------------------------------------------
          |                Property Printout                |
           -------------------------------------------------

    * Orbital Energies and Occupations

         #    Occupation            Energy/Eh            Energy/eV
      -------------------------------------------------------------
         1        2.0000           -0.7268162             -19.7777
       ...           ...                  ...                  ...
         6        2.0000           -0.5956272             -16.2078
         7        2.0000           -0.5852926             -15.9266
         8        2.0000           -0.5745014             -15.6330
         9        2.0000           -0.5691199             -15.4865
        10        2.0000           -0.5486568             -14.9297
        11        2.0000           -0.5321762             -14.4813
        12        2.0000           -0.5307965             -14.4437
        13        2.0000           -0.5073470             -13.8056
        14        2.0000           -0.4847731             -13.1913
        15        2.0000           -0.4673446             -12.7171
        16        2.0000           -0.4489829             -12.2174
        17        2.0000           -0.4161645             -11.3244
        18        2.0000           -0.4111085             -11.1868 (HOMO)
        19                         -0.3084956              -8.3946 (LUMO)
        20                         -0.1908550              -5.1934
        21                         -0.1304672              -3.5502
        22                          0.0875556               2.3825
        23                          0.1127096               3.0670
        24                          0.1377000               3.7470
        25                          0.1634712               4.4483
        26                          0.2039410               5.5495
        27                          0.2163970               5.8885
        28                          0.4191045              11.4044
        29                          0.4830417              13.1442
        30                          0.6557055              17.8427
      -------------------------------------------------------------
                  HL-Gap            0.1026128 Eh            2.7922 eV
             Fermi-level           -0.3598021 Eh           -9.7907 eV

     #   Z        covCN         q      C6AA      α(0)
     1   6 C      2.841    -0.044    29.081     8.838
     2   6 C      2.886    -0.048    29.179     8.856
     3   6 C      2.765     0.216    23.428     7.927
     4   8 O      1.733    -0.347    19.831     6.013
     5   8 O      1.735    -0.342    19.739     5.999
     6   8 O      0.856    -0.340    20.524     6.074
     7   1 H      0.803     0.348     0.594     1.211
     8   1 H      0.926     0.096     1.822     2.111
     9   1 H      0.926     0.067     2.116     2.275
    10   1 H      0.922     0.024     2.667     2.554
    11   1 H      0.926     0.054     2.266     2.354
    12   1 H      0.805     0.315     0.676     1.292

 Mol. C6AA /au·bohr⁶  :       1329.235130
 Mol. C8AA /au·bohr⁸  :      28892.556761
 Mol. α(0) /au        :         55.503033


Wiberg/Mayer (AO) data.
largest (>0.10) Wiberg bond orders for each atom
          total WBO             WBO to atom ...
     1  C   3.970        C    2 1.882    H    9 0.975    H    8 0.965
     2  C   3.991        C    1 1.882    C    3 1.080    H   11 0.966
     3  C   3.919        O    6 1.839    C    2 1.080    H   10 0.937
     4  O   1.862        O    5 1.003    H    7 0.831
     5  O   1.901        O    4 1.003    H   12 0.897
     6  O   2.101        C    3 1.839
     7  H   0.879        O    4 0.831
     8  H   0.991        C    1 0.965
     9  H   0.995        C    1 0.975
    10  H   0.999        C    3 0.937
    11  H   0.997        C    2 0.966
    12  H   0.901        O    5 0.897

molecular dipole:
                 x           y           z       tot (Debye)
 q only:       -0.090      -0.548      -0.772
   full:       -0.223      -0.718      -0.809       2.807
molecular quadrupole (traceless):
                xx          xy          yy          xz          yz          zz
 q only:       -0.960      -4.052      -2.739      -3.473      -0.300       3.699
  q+dip:       -3.083      -5.778      -1.302      -4.002      -0.772       4.386
   full:       -0.992      -6.626      -2.196      -3.543      -0.414       3.188

           -------------------------------------------------
          |                Geometry Summary                 |
           -------------------------------------------------

      molecular mass/u    :       90.0780670
   center of mass at/Å    :        1.0150539       1.3135441      -1.1933515
  moments of inertia/u·Å² :        0.1089415E+03   0.2350835E+03   0.2954802E+03
rotational constants/cm⁻¹ :        0.1547402E+00   0.7170913E-01   0.5705164E-01

 * 8 selected distances

     #   Z        #   Z                                     value/Å
     1   6 C      2   6 C                                 1.3309056
     4   8 O      5   8 O                                 1.4217684 (max)
     3   6 C      6   8 O                                 1.2092061
     4   8 O      7   1 H                                 0.9817743
     1   6 C      8   1 H                                 1.0779204
     1   6 C      9   1 H                                 1.0768552
     2   6 C     11   1 H                                 1.0806442
     5   8 O     12   1 H                                 0.9647893 (min)

 * 5 distinct bonds (by element types)

   Z      Z             #   av. dist./Å        max./Å        min./Å
   1 H    6 C           3     1.0784733     1.0806442     1.0768552
   6 C    6 C           1     1.3309056     1.3309056     1.3309056
   1 H    8 O           2     0.9732818     0.9817743     0.9647893
   6 C    8 O           1     1.2092061     1.2092061     1.2092061
   8 O    8 O           1     1.4217684     1.4217684     1.4217684


optimized geometry written to: xtbopt.xyz


           -------------------------------------------------
          | TOTAL ENERGY              -21.525513582630 Eh   |
          | GRADIENT NORM               0.000872906165 Eh/α |
          | HOMO-LUMO GAP               2.792236834777 eV   |
           -------------------------------------------------
########################################################################
[WARNING] Runtime exception occurred
-4- scf: Self consistent charge iterator did not converge
-3- scf: Self consistent charge iterator did not converge
-2- scf: Self consistent charge iterator did not converge
-1- scf: Self consistent charge iterator did not converge
########################################################################

------------------------------------------------------------------------
 * finished run on 2020/12/23 at 21:40:08.860     
------------------------------------------------------------------------
 total:
 * wall-time:     0 d,  0 h,  0 min, 12.973 sec
 *  cpu-time:     0 d,  0 h,  0 min, 52.065 sec
 * ratio c/w:     4.013 speedup
 SCF:
 * wall-time:     0 d,  0 h,  0 min,  1.703 sec
 *  cpu-time:     0 d,  0 h,  0 min,  6.925 sec
 * ratio c/w:     4.066 speedup
 ANC optimizer:
 * wall-time:     0 d,  0 h,  0 min, 11.002 sec
 *  cpu-time:     0 d,  0 h,  0 min, 44.031 sec
 * ratio c/w:     4.002 speedup

