      -----------------------------------------------------------      
     |                   =====================                   |     
     |                           x T B                           |     
     |                   =====================                   |     
     |                         S. Grimme                         |     
     |          Mulliken Center for Theoretical Chemistry        |     
     |                    University of Bonn                     |     
      -----------------------------------------------------------      

   * xtb version 6.2.3 (830e466) compiled by 'ehlert@majestix' on 2020-03-16

   xtb is free software: you can redistribute it and/or modify it under
   the terms of the GNU Lesser General Public License as published by
   the Free Software Foundation, either version 3 of the License, or
   (at your option) any later version.
   
   xtb is distributed in the hope that it will be useful,
   but WITHOUT ANY WARRANTY; without even the implied warranty of
   MERCHANTABILITY or FITNESS FOR A PARTICULAR PURPOSE.  See the
   GNU Lesser General Public License for more details.
   
   Cite this work as:
   * S. Grimme, C. Bannwarth, P. Shushkov, J. Chem. Theory Comput., 2017,
     13, 1989-2009. DOI: 10.1021/acs.jctc.7b00118
   * C. Bannwarth, S. Ehlert and S. Grimme., J. Chem. Theory Comput., 2019,
     15, 1652-1671. DOI: 10.1021/acs.jctc.8b01176
   * P. Pracht, E. Caldeweyher, S. Ehlert, S. Grimme, ChemRxiv, 2019, preprint.
     DOI: 10.26434/chemrxiv.8326202.v1
   
   for DFT-D4:
   * E. Caldeweyher, C. Bannwarth and S. Grimme, J. Chem. Phys., 2017,
     147, 034112. DOI: 10.1063/1.4993215
   * E. Caldeweyher, S. Ehlert, A. Hansen, H. Neugebauer, S. Spicher,
     C. Bannwarth and S. Grimme, J. Chem. Phys., 2019, 150, 154122.
     DOI: 10.1063/1.5090222
   
   for sTDA-xTB:
   * S. Grimme and C. Bannwarth, J. Chem. Phys., 2016, 145, 054103.
     DOI: 10.1063/1.4959605
   
   in the mass-spec context:
   * V. Asgeirsson, C. Bauer and S. Grimme, Chem. Sci., 2017, 8, 4879.
     DOI: 10.1039/c7sc00601b
   
   for metadynamics refer to:
   * S. Grimme, J. Chem. Theory Comput., 2019, 155, 2847-2862
     DOI: 10.1021/acs.jctc.9b00143
   
   with help from (in alphabetical order)
   C. Bannwarth, F. Bohle, G. Brandenburg, E. Caldeweyher, M. Checinski,
   S. Dohm, S. Ehlert, S. Ehrlich, F. März, H. Neugebauer, J. Pisarek,
   P. Pracht, P. Shushkov, and S. Spicher.
   
 * started run on 2020/12/23 at 21:40:37.037     

           -------------------------------------------------
          |                Calculation Setup                |
           -------------------------------------------------

          program call               : xtb -c 0 -u 0 -a 1.0 --iterations 100 --opt normal --namespace product_5 /scratch/bell/zhao922/YARP/paper-example/potential_product/test/reaction_channel/pp_0/pp_13_1.xyz
          hostname                   : bell-fe05.rcac.purdue.edu
          calculation namespace      : product_5
          coordinate file            : /scratch/bell/zhao922/YARP/paper-example/potential_product/test/reaction_channel/pp_0/pp_13_1.xyz
          omp threads                :                    32
          number of atoms            :                    12
          number of electrons        :                    36
          charge                     :                     0
          spin                       :                   0.0
          first test random number   :      0.52399254755087


molecular fragmentation (1/2 indicates fragments):
111111121112
# atoms in fragment 1/2:    10     2
 fragment masses (1/2) :       88.06        2.02
CMA distance (Bohr)    :   5.545
constraining FC (au)   :  0.0500
           ------------------------------------------------- 
          |                 G F N 2 - x T B                 |
          | Geometry, Frequencies, Noncovalent interactions |
          |            JCTC 2019 parametrisation            |
           ------------------------------------------------- 
             k(s)              :                1.8500
             k(p)              :                2.2300
             k(d)              :                2.2300
             k(f)              :                2.0000
             kEN (H0ij)        :               -2.0000
             D4 a1             :                0.5200
             D4 a2             :                5.0000
             D4 s6             :                1.0000
             D4 s8             :                2.7000
             D4 s9             :                5.0000
             alphaj            :                2.0000

  Z AO/shell   Hii/eV     exponent
  1     Wed Apr 25 08:07:45 CEST 2018   EN: 2.200 GM2: 0.406  GM3: 0.0800  RAES: 1.40
     1s    -10.707211    1.230000
  6     Wed Apr 25 08:07:45 CEST 2018   EN: 2.550 GM2: 0.538  GM3: 0.1500  RAES: 3.00
     2s    -13.970922    2.096432
     2p    -10.063292    1.800000
  8     Wed Apr 25 08:07:45 CEST 2018   EN: 3.440 GM2: 0.452  GM3:-0.0517  RAES: 1.80
     2s    -20.229985    2.439742
     2p    -15.503117    2.137023

           ------------------------------------------------- 
          |        Self-Consistent Charge Iterations        |
           ------------------------------------------------- 

          ...................................................
          :                      SETUP                      :
          :.................................................:
          :  # basis functions                  30          :
          :  # atomic orbitals                  30          :
          :  # shells                           18          :
          :  # electrons                        36          :
          :  max. iterations                   100          :
          :  Hamiltonian                  GFN2-xTB          :
          :  restarted?                      false          :
          :  GBSA solvation                  false          :
          :  PC potential                    false          :
          :  electronic temp.          300.0000000     K    :
          :  accuracy                    1.0000000          :
          :  -> integral cutoff          0.2500000E+02      :
          :  -> integral neglect         0.1000000E-07      :
          :  -> SCF convergence          0.1000000E-05 Eh   :
          :  -> wf. convergence          0.1000000E-03 e    :
          :  Broyden damping             0.4000000          :
          ...................................................

 iter      E             dE          RMSdq      gap      omega  full diag
   1    -21.6623418 -0.216623E+02  0.531E+00    3.57       0.0  T
   2    -21.6986097 -0.362680E-01  0.317E+00    2.78       1.0  T
   3    -21.7011718 -0.256207E-02  0.197E+00    3.29       1.0  T
   4    -21.7118257 -0.106539E-01  0.524E-01    3.00       1.0  T
   5    -21.7143021 -0.247637E-02  0.125E-01    3.02       1.0  T
   6    -21.7143719 -0.697672E-04  0.543E-02    3.04       1.0  T
   7    -21.7143814 -0.957140E-05  0.168E-02    3.03       1.7  T
   8    -21.7143820 -0.524512E-06  0.630E-03    3.04       4.6  T
   9    -21.7143822 -0.273213E-06  0.185E-03    3.04      15.6  T
  10    -21.7143823 -0.588088E-08  0.104E-03    3.04      27.8  T
  11    -21.7143823 -0.655947E-08  0.395E-04    3.04      73.0  T
  12    -21.7143823 -0.874330E-09  0.668E-05    3.04     432.0  T

   *** convergence criteria satisfied after 12 iterations ***

         #    Occupation            Energy/Eh            Energy/eV
      -------------------------------------------------------------
         1        2.0000           -0.7801751             -21.2296
       ...           ...                  ...                  ...
        12        2.0000           -0.5233370             -14.2407
        13        2.0000           -0.5133322             -13.9685
        14        2.0000           -0.4927981             -13.4097
        15        2.0000           -0.4827474             -13.1362
        16        2.0000           -0.4686826             -12.7535
        17        2.0000           -0.4170166             -11.3476
        18        2.0000           -0.4026940             -10.9579 (HOMO)
        19                         -0.2911176              -7.9217 (LUMO)
        20                         -0.1839941              -5.0067
        21                         -0.0766321              -2.0853
        22                          0.0611441               1.6638
        23                          0.0819368               2.2296
       ...                                ...                  ...
        30                          0.6127979              16.6751
      -------------------------------------------------------------
                  HL-Gap            0.1115764 Eh            3.0361 eV
             Fermi-level           -0.3469058 Eh           -9.4398 eV

 SCC (total)                   0 d,  0 h,  0 min,  0.095 sec
 SCC setup                      ...        0 min,  0.000 sec (  0.286%)
 Dispersion                     ...        0 min,  0.000 sec (  0.060%)
 integral evaluation            ...        0 min,  0.001 sec (  0.700%)
 zeroth order Hamiltonian       ...        0 min,  0.000 sec (  0.085%)
 iterations                     ...        0 min,  0.092 sec ( 95.921%)
 molecular gradient             ...        0 min,  0.002 sec (  2.526%)
 printout                       ...        0 min,  0.000 sec (  0.223%)

         :::::::::::::::::::::::::::::::::::::::::::::::::::::
         ::                     SUMMARY                     ::
         :::::::::::::::::::::::::::::::::::::::::::::::::::::
         :: total energy             -21.490917760751 Eh    ::
         :: gradient norm              0.175672479813 Eh/a0 ::
         :: HOMO-LUMO gap              3.036148302650 eV    ::
         ::.................................................::
         :: SCC energy               -21.714382259062 Eh    ::
         :: -> isotropic ES            0.043562561084 Eh    ::
         :: -> anisotropic ES          0.007614618045 Eh    ::
         :: -> anisotropic XC         -0.001495624115 Eh    ::
         :: -> dispersion             -0.005959069002 Eh    ::
         :: repulsion energy           0.223451581057 Eh    ::
         :: add. restraining           0.000000000000 Eh    ::
         :::::::::::::::::::::::::::::::::::::::::::::::::::::

      ----------------------------------------------------------- 
     |                   =====================                   |
     |                        A N C O P T                        |
     |                   =====================                   |
     |               Approximate Normal Coordinate               |
     |                Rational Function Optimizer                |
      ----------------------------------------------------------- 

          ...................................................
          :                      SETUP                      :
          :.................................................:
          :   optimization level            normal          :
          :   max. optcycles                   200          :
          :   ANC micro-cycles                  20          :
          :   degrees of freedom                30          :
          :.................................................:
          :   RF solver                   davidson          :
          :   write xtbopt.log                true          :
          :   linear?                        false          :
          :   energy convergence         0.5000000E-05 Eh   :
          :   grad. convergence          0.1000000E-02 Eh/α :
          :   maximium RF displ.         1.0000000          :
          :   Hlow (freq-cutoff)         0.1000000E-01      :
          :   Hmax (freq-cutoff)         5.0000000          :
          :   S6 in model hess.         20.0000000          :
          ...................................................

generating ANC from model Hessian ...
Using Lindh-Hessian (1995)
 Shifting diagonal of input Hessian by   9.998156110024040E-003
 Lowest  eigenvalues of input Hessian
   -0.000000   -0.000000   -0.000000    0.000000    0.000000    0.000000
    0.010000    0.010130    0.010372    0.010940    0.011065    0.014402
    0.018625    0.023062    0.033517    0.043103    0.057303    0.062872
 Highest eigenvalues
    1.200627    1.364317    1.453155    1.875336    2.067954    2.157045
 

........................................................................
.............................. CYCLE    1 ..............................
........................................................................
   1    -21.7143823 -0.217144E+02  0.424E-05    3.04       0.0  T
   2    -21.7143823 -0.793321E-11  0.239E-05    3.04    1207.8  T
   3    -21.7143823 -0.358114E-11  0.121E-05    3.04    2393.1  T
     SCC iter.                  ...        0 min,  0.001 sec
     gradient                   ...        0 min,  0.086 sec
 * total energy  :   -21.4909178 Eh     change       -0.1168669E-08 Eh
   gradient norm :     0.1756726 Eh/α   predicted     0.0000000E+00 (-100.00%)
   displ. norm   :     0.1759824 α      lambda       -0.2344557E-01
   maximum displ.:     0.0766231 α      in ANC's #20, #23, #14, ...

........................................................................
.............................. CYCLE    2 ..............................
........................................................................
   1    -21.7228863 -0.217229E+02  0.374E-01    3.04       0.0  T
   2    -21.7230503 -0.164045E-03  0.231E-01    3.04       1.0  T
   3    -21.7230574 -0.710958E-05  0.611E-02    3.05       1.0  T
   4    -21.7230612 -0.382234E-05  0.233E-02    3.04       1.2  T
   5    -21.7230652 -0.393352E-05  0.923E-03    3.04       3.1  T
   6    -21.7230657 -0.534673E-06  0.476E-03    3.04       6.1  T
   7    -21.7230658 -0.713268E-07  0.204E-03    3.04      14.1  T
     SCC iter.                  ...        0 min,  0.002 sec
     gradient                   ...        0 min,  0.001 sec
 * total energy  :   -21.5066588 Eh     change       -0.1574107E-01 Eh
   gradient norm :     0.0697247 Eh/α   predicted    -0.1208584E-01 ( -23.22%)
   displ. norm   :     0.1725969 α      lambda       -0.6307986E-02
   maximum displ.:     0.0945996 α      in ANC's #5, #14, #17, ...

........................................................................
.............................. CYCLE    3 ..............................
........................................................................
   1    -21.7281958 -0.217282E+02  0.286E-01    3.06       0.0  T
   2    -21.7282617 -0.659095E-04  0.176E-01    3.05       1.0  T
   3    -21.7282283  0.334677E-04  0.785E-02    3.07       1.0  T
   4    -21.7282720 -0.437383E-04  0.236E-02    3.05       1.2  T
   5    -21.7282757 -0.371222E-05  0.618E-03    3.05       4.7  T
   6    -21.7282758 -0.688361E-07  0.351E-03    3.05       8.2  T
   7    -21.7282758 -0.166254E-07  0.117E-03    3.05      24.7  T
     SCC iter.                  ...        0 min,  0.002 sec
     gradient                   ...        0 min,  0.001 sec
 * total energy  :   -21.5104497 Eh     change       -0.3790872E-02 Eh
   gradient norm :     0.0177195 Eh/α   predicted    -0.3247948E-02 ( -14.32%)
   displ. norm   :     0.1451859 α      lambda       -0.6576354E-03
   maximum displ.:     0.1188641 α      in ANC's #5, #7, #2, ...

........................................................................
.............................. CYCLE    4 ..............................
........................................................................
   1    -21.7290532 -0.217291E+02  0.123E-01    3.07       0.0  T
   2    -21.7290591 -0.585464E-05  0.782E-02    3.06       1.0  T
   3    -21.7290457  0.133895E-04  0.523E-02    3.07       1.0  T
   4    -21.7290665 -0.207918E-04  0.555E-03    3.06       5.2  T
   5    -21.7290665 -0.608873E-07  0.251E-03    3.06      11.5  T
   6    -21.7290665 -0.740044E-08  0.137E-03    3.06      21.1  T
     SCC iter.                  ...        0 min,  0.002 sec
     gradient                   ...        0 min,  0.001 sec
 * total energy  :   -21.5108936 Eh     change       -0.4439460E-03 Eh
   gradient norm :     0.0064555 Eh/α   predicted    -0.3357489E-03 ( -24.37%)
   displ. norm   :     0.1815003 α      lambda       -0.3338570E-03
   maximum displ.:     0.1478517 α      in ANC's #5, #7, #2, ...

........................................................................
.............................. CYCLE    5 ..............................
........................................................................
   1    -21.7295899 -0.217296E+02  0.133E-01    3.08       0.0  T
   2    -21.7295927 -0.280145E-05  0.836E-02    3.07       1.0  T
   3    -21.7295741  0.185848E-04  0.530E-02    3.09       1.0  T
   4    -21.7295990 -0.248815E-04  0.347E-03    3.08       8.3  T
   5    -21.7295990 -0.992322E-08  0.190E-03    3.08      15.2  T
   6    -21.7295990 -0.386014E-08  0.632E-04    3.08      45.7  T
     SCC iter.                  ...        0 min,  0.002 sec
     gradient                   ...        0 min,  0.001 sec
 * total energy  :   -21.5111225 Eh     change       -0.2288256E-03 Eh
   gradient norm :     0.0069234 Eh/α   predicted    -0.1724267E-03 ( -24.65%)
   displ. norm   :     0.2305945 α      lambda       -0.3308683E-03
   maximum displ.:     0.1739307 α      in ANC's #5, #7, #2, ...

........................................................................
.............................. CYCLE    6 ..............................
........................................................................
   1    -21.7296933 -0.217297E+02  0.186E-01    3.10       0.0  T
   2    -21.7296967 -0.338063E-05  0.115E-01    3.09       1.0  T
   3    -21.7296641  0.325780E-04  0.612E-02    3.10       1.0  T
   4    -21.7297026 -0.385111E-04  0.417E-03    3.09       6.9  T
   5    -21.7297026 -0.263384E-07  0.245E-03    3.09      11.8  T
   6    -21.7297026 -0.250208E-08  0.686E-04    3.09      42.1  T
     SCC iter.                  ...        0 min,  0.100 sec
     gradient                   ...        0 min,  0.001 sec
 * total energy  :   -21.5113103 Eh     change       -0.1878391E-03 Eh
   gradient norm :     0.0109702 Eh/α   predicted    -0.1742297E-03 (  -7.25%)
   displ. norm   :     0.2066693 α      lambda       -0.2741909E-03
   maximum displ.:     0.1503735 α      in ANC's #5, #7, #2, ...

........................................................................
.............................. CYCLE    7 ..............................
........................................................................
   1    -21.7299023 -0.217299E+02  0.151E-01    3.10       0.0  T
   2    -21.7299039 -0.159880E-05  0.926E-02    3.09       1.0  T
   3    -21.7298937  0.102626E-04  0.324E-02    3.10       1.0  T
   4    -21.7299056 -0.119054E-04  0.406E-03    3.10       7.1  T
   5    -21.7299056 -0.349978E-07  0.226E-03    3.10      12.8  T
   6    -21.7299056 -0.883782E-08  0.848E-04    3.10      34.0  T
     SCC iter.                  ...        0 min,  0.001 sec
     gradient                   ...        0 min,  0.001 sec
 * total energy  :   -21.5115243 Eh     change       -0.2140309E-03 Eh
   gradient norm :     0.0087746 Eh/α   predicted    -0.1429465E-03 ( -33.21%)
   displ. norm   :     0.2992273 α      lambda       -0.2929530E-03
   maximum displ.:     0.2094152 α      in ANC's #5, #2, #7, ...

........................................................................
.............................. CYCLE    8 ..............................
........................................................................
   1    -21.7296441 -0.217296E+02  0.220E-01    3.10       0.0  T
   2    -21.7296479 -0.378842E-05  0.134E-01    3.09       1.0  T
   3    -21.7296416  0.627718E-05  0.271E-02    3.10       1.1  T
   4    -21.7296496 -0.795329E-05  0.669E-03    3.10       4.3  T
   5    -21.7296498 -0.218247E-06  0.335E-03    3.10       8.6  T
   6    -21.7296498 -0.168570E-07  0.128E-03    3.10      22.6  T
   7    -21.7296498 -0.490422E-08  0.502E-04    3.10      57.5  T
     SCC iter.                  ...        0 min,  0.001 sec
     gradient                   ...        0 min,  0.001 sec
 * total energy  :   -21.5117393 Eh     change       -0.2149299E-03 Eh
   gradient norm :     0.0070849 Eh/α   predicted    -0.1595947E-03 ( -25.75%)
   displ. norm   :     0.3059449 α      lambda       -0.2397438E-03
   maximum displ.:     0.2139183 α      in ANC's #5, #2, #6, ...

........................................................................
.............................. CYCLE    9 ..............................
........................................................................
   1    -21.7310907 -0.217311E+02  0.221E-01    3.10       0.0  T
   2    -21.7310945 -0.377168E-05  0.135E-01    3.09       1.0  T
   3    -21.7310953 -0.741782E-06  0.107E-02    3.09       2.7  T
   4    -21.7310958 -0.569467E-06  0.655E-03    3.09       4.4  T
   5    -21.7310960 -0.198768E-06  0.359E-03    3.09       8.0  T
   6    -21.7310961 -0.317047E-07  0.106E-03    3.09      27.3  T
   7    -21.7310961 -0.326584E-08  0.413E-04    3.09      69.9  T
     SCC iter.                  ...        0 min,  0.001 sec
     gradient                   ...        0 min,  0.001 sec
 * total energy  :   -21.5118890 Eh     change       -0.1497533E-03 Eh
   gradient norm :     0.0066854 Eh/α   predicted    -0.1310937E-03 ( -12.46%)
   displ. norm   :     0.3979878 α      lambda       -0.2690922E-03
   maximum displ.:     0.2637596 α      in ANC's #5, #2, #6, ...

........................................................................
.............................. CYCLE   10 ..............................
........................................................................
   1    -21.7272017 -0.217272E+02  0.266E-01    3.09       0.0  T
   2    -21.7272065 -0.482400E-05  0.162E-01    3.09       1.0  T
   3    -21.7272080 -0.148118E-05  0.109E-02    3.09       2.7  T
   4    -21.7272084 -0.405222E-06  0.665E-03    3.09       4.3  T
   5    -21.7272085 -0.947618E-07  0.405E-03    3.09       7.1  T
   6    -21.7272085 -0.623203E-07  0.996E-04    3.09      29.0  T
   7    -21.7272085 -0.252539E-08  0.343E-04    3.09      84.1  T
     SCC iter.                  ...        0 min,  0.090 sec
     gradient                   ...        0 min,  0.001 sec
 * total energy  :   -21.5119388 Eh     change       -0.4978161E-04 Eh
   gradient norm :     0.0136211 Eh/α   predicted    -0.1558560E-03 ( 213.08%)
   displ. norm   :     0.0838997 α      lambda       -0.3339585E-03
   maximum displ.:     0.0526558 α      in ANC's #7, #4, #2, ...

........................................................................
.............................. CYCLE   11 ..............................
........................................................................
   1    -21.7318487 -0.217318E+02  0.667E-02    3.08       0.0  T
   2    -21.7318526 -0.392217E-05  0.398E-02    3.09       1.0  T
   3    -21.7318509  0.173764E-05  0.201E-02    3.08       1.4  T
   4    -21.7318538 -0.296154E-05  0.709E-03    3.09       4.1  T
   5    -21.7318540 -0.191484E-06  0.225E-03    3.09      12.8  T
   6    -21.7318540 -0.481112E-08  0.109E-03    3.09      26.6  T
     SCC iter.                  ...        0 min,  0.001 sec
     gradient                   ...        0 min,  0.001 sec
 * total energy  :   -21.5120564 Eh     change       -0.1175616E-03 Eh
   gradient norm :     0.0083773 Eh/α   predicted    -0.1681561E-03 (  43.04%)
   displ. norm   :     0.1953660 α      lambda       -0.4046378E-03
   maximum displ.:     0.1011847 α      in ANC's #5, #2, #9, ...

........................................................................
.............................. CYCLE   12 ..............................
........................................................................
   1    -21.7330516 -0.217331E+02  0.215E-01    3.10       0.0  T
   2    -21.7330631 -0.114747E-04  0.133E-01    3.09       1.0  T
   3    -21.7330674 -0.429819E-05  0.195E-02    3.09       1.5  T
   4    -21.7330679 -0.527202E-06  0.122E-02    3.09       2.4  T
   5    -21.7330688 -0.859409E-06  0.591E-03    3.09       4.9  T
   6    -21.7330689 -0.941131E-07  0.218E-03    3.09      13.2  T
   7    -21.7330689 -0.154320E-07  0.945E-04    3.09      30.6  T
     SCC iter.                  ...        0 min,  0.001 sec
     gradient                   ...        0 min,  0.001 sec
 * total energy  :   -21.5119018 Eh     change        0.1545390E-03 Eh
   gradient norm :     0.0219257 Eh/α   predicted    -0.2100407E-03 (-235.91%)
   displ. norm   :     0.0819326 α      lambda       -0.5721319E-03
   maximum displ.:     0.0582458 α      in ANC's #4, #1, #7, ...

........................................................................
.............................. CYCLE   13 ..............................
........................................................................
   1    -21.7316654 -0.217317E+02  0.793E-02    3.09       0.0  T
   2    -21.7316695 -0.413852E-05  0.489E-02    3.09       1.0  T
   3    -21.7316691  0.389896E-06  0.187E-02    3.09       1.5  T
   4    -21.7316711 -0.194109E-05  0.789E-03    3.09       3.7  T
   5    -21.7316714 -0.309195E-06  0.288E-03    3.09      10.0  T
   6    -21.7316714 -0.149883E-07  0.143E-03    3.09      20.2  T
     SCC iter.                  ...        0 min,  0.091 sec
     gradient                   ...        0 min,  0.001 sec
 * total energy  :   -21.5122109 Eh     change       -0.3090922E-03 Eh
   gradient norm :     0.0033644 Eh/α   predicted    -0.2879856E-03 (  -6.83%)
   displ. norm   :     0.1835682 α      lambda       -0.8675523E-04
   maximum displ.:     0.1197709 α      in ANC's #2, #5, #3, ...

........................................................................
.............................. CYCLE   14 ..............................
........................................................................
   1    -21.7306946 -0.217307E+02  0.120E-01    3.09       0.0  T
   2    -21.7306955 -0.912955E-06  0.729E-02    3.09       1.0  T
   3    -21.7306932  0.235900E-05  0.171E-02    3.08       1.7  T
   4    -21.7306963 -0.308888E-05  0.355E-03    3.09       8.1  T
   5    -21.7306963 -0.111899E-07  0.158E-03    3.09      18.3  T
   6    -21.7306963 -0.378653E-08  0.305E-04    3.09      94.6  T
   7    -21.7306963 -0.406509E-09  0.143E-04    3.09     202.5  T
     SCC iter.                  ...        0 min,  0.001 sec
     gradient                   ...        0 min,  0.002 sec
 * total energy  :   -21.5122814 Eh     change       -0.7045030E-04 Eh
   gradient norm :     0.0041571 Eh/α   predicted    -0.4483819E-04 ( -36.35%)
   displ. norm   :     0.3763942 α      lambda       -0.1796669E-03
   maximum displ.:     0.2681481 α      in ANC's #2, #5, #3, ...

........................................................................
.............................. CYCLE   15 ..............................
........................................................................
   1    -21.7293280 -0.217293E+02  0.268E-01    3.08       0.0  T
   2    -21.7293339 -0.585845E-05  0.163E-01    3.09       1.0  T
   3    -21.7293125  0.213683E-04  0.500E-02    3.08       1.0  T
   4    -21.7293389 -0.263716E-04  0.881E-03    3.09       3.3  T
   5    -21.7293390 -0.906022E-07  0.417E-03    3.09       6.9  T
   6    -21.7293390 -0.123785E-07  0.111E-03    3.09      26.0  T
   7    -21.7293390 -0.766095E-08  0.448E-04    3.09      64.4  T
     SCC iter.                  ...        0 min,  0.001 sec
     gradient                   ...        0 min,  0.001 sec
 * total energy  :   -21.5123931 Eh     change       -0.1116922E-03 Eh
   gradient norm :     0.0092383 Eh/α   predicted    -0.1025613E-03 (  -8.18%)
   displ. norm   :     0.1544031 α      lambda       -0.1212807E-03
   maximum displ.:     0.1262002 α      in ANC's #2, #3, #9, ...

........................................................................
.............................. CYCLE   16 ..............................
........................................................................
   1    -21.7307109 -0.217307E+02  0.118E-01    3.08       0.0  T
   2    -21.7307129 -0.204125E-05  0.720E-02    3.09       1.0  T
   3    -21.7307073  0.564482E-05  0.262E-02    3.08       1.1  T
   4    -21.7307142 -0.695778E-05  0.477E-03    3.09       6.1  T
   5    -21.7307143 -0.552047E-07  0.219E-03    3.09      13.2  T
   6    -21.7307143 -0.211603E-08  0.760E-04    3.09      38.0  T
     SCC iter.                  ...        0 min,  0.002 sec
     gradient                   ...        0 min,  0.001 sec
 * total energy  :   -21.5124804 Eh     change       -0.8734324E-04 Eh
   gradient norm :     0.0049713 Eh/α   predicted    -0.6208326E-04 ( -28.92%)
   displ. norm   :     0.1902862 α      lambda       -0.7960329E-04
   maximum displ.:     0.1587797 α      in ANC's #2, #3, #5, ...

........................................................................
.............................. CYCLE   17 ..............................
........................................................................
   1    -21.7313396 -0.217313E+02  0.131E-01    3.09       0.0  T
   2    -21.7313407 -0.104691E-05  0.796E-02    3.09       1.0  T
   3    -21.7313401  0.580765E-06  0.117E-02    3.09       2.5  T
   4    -21.7313413 -0.124272E-05  0.413E-03    3.09       7.0  T
   5    -21.7313414 -0.242613E-07  0.147E-03    3.09      19.6  T
   6    -21.7313414 -0.320399E-08  0.431E-04    3.09      67.0  T
     SCC iter.                  ...        0 min,  0.001 sec
     gradient                   ...        0 min,  0.001 sec
 * total energy  :   -21.5125424 Eh     change       -0.6196869E-04 Eh
   gradient norm :     0.0030273 Eh/α   predicted    -0.4124366E-04 ( -33.44%)
   displ. norm   :     0.2436723 α      lambda       -0.8034857E-04
   maximum displ.:     0.2053869 α      in ANC's #2, #3, #5, ...

........................................................................
.............................. CYCLE   18 ..............................
........................................................................
   1    -21.7315738 -0.217316E+02  0.165E-01    3.09       0.0  T
   2    -21.7315753 -0.140999E-05  0.101E-01    3.09       1.0  T
   3    -21.7315757 -0.462600E-06  0.900E-03    3.09       3.2  T
   4    -21.7315762 -0.448536E-06  0.506E-03    3.09       5.7  T
   5    -21.7315762 -0.487792E-07  0.109E-03    3.09      26.5  T
   6    -21.7315762 -0.221537E-08  0.281E-04    3.09     102.9  T
   7    -21.7315762 -0.130314E-09  0.168E-04    3.09     172.3  T
     SCC iter.                  ...        0 min,  0.001 sec
     gradient                   ...        0 min,  0.001 sec
 * total energy  :   -21.5126072 Eh     change       -0.6481063E-04 Eh
   gradient norm :     0.0031763 Eh/α   predicted    -0.4255941E-04 ( -34.33%)
   displ. norm   :     0.3147123 α      lambda       -0.1099723E-03
   maximum displ.:     0.2712440 α      in ANC's #2, #3, #7, ...

........................................................................
.............................. CYCLE   19 ..............................
........................................................................
   1    -21.7320625 -0.217321E+02  0.206E-01    3.10       0.0  T
   2    -21.7320658 -0.333168E-05  0.126E-01    3.09       1.0  T
   3    -21.7320553  0.105336E-04  0.349E-02    3.10       1.0  T
   4    -21.7320683 -0.130499E-04  0.662E-03    3.09       4.4  T
   5    -21.7320684 -0.510182E-07  0.335E-03    3.09       8.6  T
   6    -21.7320684 -0.428600E-08  0.640E-04    3.09      45.1  T
   7    -21.7320684 -0.216072E-08  0.227E-04    3.09     127.0  T
     SCC iter.                  ...        0 min,  0.001 sec
     gradient                   ...        0 min,  0.001 sec
 * total energy  :   -21.5126870 Eh     change       -0.7985094E-04 Eh
   gradient norm :     0.0029278 Eh/α   predicted    -0.6043213E-04 ( -24.32%)
   displ. norm   :     0.4325054 α      lambda       -0.1018440E-03
   maximum displ.:     0.3707263 α      in ANC's #2, #3, #7, ...

........................................................................
.............................. CYCLE   20 ..............................
........................................................................
   1    -21.7300671 -0.217301E+02  0.293E-01    3.09       0.0  T
   2    -21.7300734 -0.630496E-05  0.179E-01    3.09       1.0  T
   3    -21.7300765 -0.311934E-05  0.134E-02    3.09       2.2  T
   4    -21.7300766 -0.745907E-07  0.863E-03    3.09       3.3  T
   5    -21.7300768 -0.228022E-06  0.433E-03    3.09       6.7  T
   6    -21.7300769 -0.760916E-07  0.102E-03    3.09      28.2  T
   7    -21.7300769 -0.312325E-08  0.390E-04    3.09      74.0  T
   8    -21.7300769 -0.364277E-09  0.230E-04    3.09     125.5  T
     SCC iter.                  ...        0 min,  0.001 sec
     gradient                   ...        0 min,  0.001 sec
 * total energy  :   -21.5126783 Eh     change        0.8702920E-05 Eh
   gradient norm :     0.0108319 Eh/α   predicted    -0.6044670E-04 (-794.56%)
   displ. norm   :     0.0959773 α      lambda       -0.1852666E-03
   maximum displ.:     0.0558531 α      in ANC's #5, #2, #9, ...
 * RMSD in coord.:     0.9989814 α      energy gain  -0.2176057E-01 Eh

generating ANC from model Hessian ...
Using Lindh-Hessian (1995)
 Shifting diagonal of input Hessian by   1.001503850856014E-002
 Lowest  eigenvalues of input Hessian
    0.010000   -0.000000   -0.000000   -0.000000   -0.000000    0.000000
    0.000000    0.010056    0.010250    0.010414    0.010467    0.014288
    0.021500    0.023181    0.032692    0.043732    0.047179    0.064936
 Highest eigenvalues
    1.171231    1.312148    1.441051    1.701792    2.151021    2.250747
 

........................................................................
.............................. CYCLE   21 ..............................
........................................................................
   1    -21.7328769 -0.217329E+02  0.808E-02    3.09       0.0  T
   2    -21.7328798 -0.298984E-05  0.489E-02    3.09       1.0  T
   3    -21.7328754  0.447000E-05  0.278E-02    3.10       1.0  T
   4    -21.7328816 -0.619037E-05  0.530E-03    3.09       5.4  T
   5    -21.7328817 -0.874014E-07  0.218E-03    3.09      13.3  T
   6    -21.7328817 -0.562061E-08  0.105E-03    3.09      27.4  T
   7    -21.7328817 -0.383544E-08  0.444E-04    3.09      65.0  T
   8    -21.7328817 -0.817995E-09  0.197E-04    3.09     146.4  T
     SCC iter.                  ...        0 min,  0.001 sec
     gradient                   ...        0 min,  0.091 sec
 * total energy  :   -21.5127577 Eh     change       -0.7935238E-04 Eh
   gradient norm :     0.0030036 Eh/α   predicted     0.0000000E+00 (-100.00%)
   displ. norm   :     0.0250097 α      lambda       -0.2064166E-04
   maximum displ.:     0.0173198 α      in ANC's #6, #3, #5, ...

........................................................................
.............................. CYCLE   22 ..............................
........................................................................
   1    -21.7323583 -0.217324E+02  0.249E-02    3.09       0.0  T
   2    -21.7323583 -0.825914E-07  0.153E-02    3.09       1.9  T
   3    -21.7323581  0.236364E-06  0.522E-03    3.09       5.5  T
   4    -21.7323584 -0.288301E-06  0.901E-04    3.09      32.1  T
   5    -21.7323584 -0.245995E-08  0.443E-04    3.09      65.1  T
     SCC iter.                  ...        0 min,  0.001 sec
     gradient                   ...        0 min,  0.001 sec
 * total energy  :   -21.5127719 Eh     change       -0.1425204E-04 Eh
   gradient norm :     0.0010020 Eh/α   predicted    -0.1032578E-04 ( -27.55%)
   displ. norm   :     0.0766508 α      lambda       -0.2002489E-04
   maximum displ.:     0.0480595 α      in ANC's #6, #3, #5, ...

........................................................................
.............................. CYCLE   23 ..............................
........................................................................
   1    -21.7315088 -0.217315E+02  0.634E-02    3.09       0.0  T
   2    -21.7315091 -0.308882E-06  0.384E-02    3.09       1.0  T
   3    -21.7315084  0.773957E-06  0.934E-03    3.09       3.1  T
   4    -21.7315093 -0.931054E-06  0.181E-03    3.09      15.9  T
   5    -21.7315093 -0.122026E-07  0.827E-04    3.09      34.9  T
   6    -21.7315093 -0.324718E-09  0.283E-04    3.09     102.2  T
     SCC iter.                  ...        0 min,  0.001 sec
     gradient                   ...        0 min,  0.001 sec
 * total energy  :   -21.5127775 Eh     change       -0.5523580E-05 Eh
   gradient norm :     0.0034177 Eh/α   predicted    -0.1004019E-04 (  81.77%)
   displ. norm   :     0.0289513 α      lambda       -0.1814888E-04
   maximum displ.:     0.0158774 α      in ANC's #6, #5, #3, ...

........................................................................
.............................. CYCLE   24 ..............................
........................................................................
   1    -21.7316777 -0.217317E+02  0.256E-02    3.09       0.0  T
   2    -21.7316777 -0.546929E-07  0.159E-02    3.09       1.8  T
   3    -21.7316777  0.338710E-07  0.269E-03    3.09      10.7  T
   4    -21.7316778 -0.755410E-07  0.815E-04    3.09      35.4  T
   5    -21.7316778 -0.748322E-09  0.402E-04    3.09      71.7  T
     SCC iter.                  ...        0 min,  0.091 sec
     gradient                   ...        0 min,  0.001 sec
 * total energy  :   -21.5127900 Eh     change       -0.1254016E-04 Eh
   gradient norm :     0.0025118 Eh/α   predicted    -0.9081880E-05 ( -27.58%)
   displ. norm   :     0.0368205 α      lambda       -0.1555726E-04
   maximum displ.:     0.0201295 α      in ANC's #5, #4, #3, ...

........................................................................
.............................. CYCLE   25 ..............................
........................................................................
   1    -21.7321941 -0.217322E+02  0.265E-02    3.09       0.0  T
   2    -21.7321942 -0.109406E-06  0.166E-02    3.09       1.7  T
   3    -21.7321938  0.441630E-06  0.712E-03    3.09       4.1  T
   4    -21.7321943 -0.531896E-06  0.960E-04    3.09      30.1  T
   5    -21.7321943 -0.148690E-08  0.514E-04    3.09      56.1  T
     SCC iter.                  ...        0 min,  0.001 sec
     gradient                   ...        0 min,  0.001 sec
 * total energy  :   -21.5128010 Eh     change       -0.1098704E-04 Eh
   gradient norm :     0.0009422 Eh/α   predicted    -0.7790800E-05 ( -29.09%)
   displ. norm   :     0.0968793 α      lambda       -0.1214589E-04
   maximum displ.:     0.0488558 α      in ANC's #5, #3, #4, ...

........................................................................
.............................. CYCLE   26 ..............................
........................................................................
   1    -21.7324951 -0.217325E+02  0.665E-02    3.09       0.0  T
   2    -21.7324955 -0.385803E-06  0.411E-02    3.09       1.0  T
   3    -21.7324944  0.104823E-05  0.112E-02    3.09       2.6  T
   4    -21.7324958 -0.134926E-05  0.213E-03    3.09      13.5  T
   5    -21.7324958 -0.404935E-08  0.103E-03    3.09      28.1  T
   6    -21.7324958 -0.437822E-09  0.101E-04    3.09     287.0  T
   7    -21.7324958 -0.501643E-11  0.430E-05    3.09     671.9  T
     SCC iter.                  ...        0 min,  0.001 sec
     gradient                   ...        0 min,  0.001 sec
 * total energy  :   -21.5128141 Eh     change       -0.1309559E-04 Eh
   gradient norm :     0.0013023 Eh/α   predicted    -0.6099479E-05 ( -53.42%)
   displ. norm   :     0.1242244 α      lambda       -0.1201028E-04
   maximum displ.:     0.0616264 α      in ANC's #3, #5, #4, ...

........................................................................
.............................. CYCLE   27 ..............................
........................................................................
   1    -21.7321447 -0.217321E+02  0.834E-02    3.09       0.0  T
   2    -21.7321452 -0.527222E-06  0.516E-02    3.09       1.0  T
   3    -21.7321454 -0.181796E-06  0.540E-03    3.09       5.3  T
   4    -21.7321456 -0.178003E-06  0.283E-03    3.09      10.2  T
   5    -21.7321456 -0.108586E-07  0.633E-04    3.09      45.6  T
   6    -21.7321456 -0.160521E-08  0.180E-04    3.09     160.1  T
     SCC iter.                  ...        0 min,  0.091 sec
     gradient                   ...        0 min,  0.001 sec
 * total energy  :   -21.5128254 Eh     change       -0.1133387E-04 Eh
   gradient norm :     0.0011203 Eh/α   predicted    -0.6047664E-05 ( -46.64%)
   displ. norm   :     0.0478125 α      lambda       -0.3863414E-05
   maximum displ.:     0.0237825 α      in ANC's #3, #2, #5, ...

........................................................................
.............................. CYCLE   28 ..............................
........................................................................
   1    -21.7323534 -0.217324E+02  0.265E-02    3.09       0.0  T
   2    -21.7323535 -0.111767E-06  0.168E-02    3.09       1.7  T
   3    -21.7323534  0.912517E-07  0.390E-03    3.09       7.4  T
   4    -21.7323536 -0.158154E-06  0.988E-04    3.09      29.2  T
   5    -21.7323536 -0.226160E-08  0.426E-04    3.09      67.8  T
     SCC iter.                  ...        0 min,  0.001 sec
     gradient                   ...        0 min,  0.001 sec
 * total energy  :   -21.5128286 Eh     change       -0.3161927E-05 Eh
   gradient norm :     0.0006538 Eh/α   predicted    -0.1933195E-05 ( -38.86%)
   displ. norm   :     0.0350335 α      lambda       -0.1599246E-05
   maximum displ.:     0.0207399 α      in ANC's #2, #3, #4, ...

   *** GEOMETRY OPTIMIZATION CONVERGED AFTER 28 ITERATIONS ***

------------------------------------------------------------------------
 total energy gain   :        -0.0219108 Eh      -13.7492 kcal/mol
 total RMSD          :         0.9657010 a0        0.5110 Å
 total power (kW/mol):        -2.0545304 (step)  -52.3652 (real)
------------------------------------------------------------------------

 ANCopt (total)                0 d,  0 h,  0 min,  1.099 sec
 optimizer setup                ...        0 min,  0.000 sec (  0.039%)
 model hessian                  ...        0 min,  0.005 sec (  0.472%)
 ANC generation                 ...        0 min,  0.001 sec (  0.052%)
 coordinate transformation      ...        0 min,  0.001 sec (  0.090%)
 single point calculation       ...        0 min,  1.081 sec ( 98.399%)
 optimization log               ...        0 min,  0.002 sec (  0.222%)
 hessian update                 ...        0 min,  0.002 sec (  0.189%)
 rational function              ...        0 min,  0.002 sec (  0.168%)

================
 final structure:
================
12
 xtb: 6.2.3 (830e466)
C         1.27509203311414    1.11259982662762   -2.32568255556173
C         0.51556360913064    0.25618281054789   -1.63183816776806
C         0.85955402856523   -1.15462948204849   -1.60011188022807
O         1.13694389159429    2.42436427950463   -2.48303545585669
O         0.00775084163391    2.96729438365218   -1.80915358813921
O         1.80213014676313   -1.65916541016372   -2.16260183344137
H         0.08750239048840    3.91194840716352   -2.00180719055983
H         2.61899530990437    2.71671302455892    0.26631500401117
H         2.15077088525875    0.78191139355745   -2.87277074755149
H         0.16713273418666   -1.76871245209242   -0.99374794217712
H        -0.35261878715515    0.59590099197157   -1.09185128281263
H         2.12019291651837    3.15519222672104    0.67048564008573
 
 Bond Distances (Angstroems)
 ---------------------------
C1-C2=1.3386         C1-O4=1.3284         C1-H9=1.0842         C2-C1=1.3386         C2-C3=1.4525         C2-H11=1.0774        
C3-C2=1.4525         C3-O6=1.2081         C3-H10=1.1064        O4-C1=1.3284         O4-O5=1.4227         O5-O4=1.4227         
O5-H7=0.9674         O6-C3=1.2081         H7-O5=0.9674         H8-H12=0.7774        H9-C1=1.0842         H10-C3=1.1064        
H11-C2=1.0774        H12-H8=0.7774        
 H  H  Rav=0.7774 sigma=0.0000  Rmin=0.7774  Rmax=0.7774     1
 C  H  Rav=1.0893 sigma=0.0124  Rmin=1.0774  Rmax=1.1064     3
 C  C  Rav=1.3955 sigma=0.0570  Rmin=1.3386  Rmax=1.4525     2
 O  H  Rav=0.9674 sigma=0.0000  Rmin=0.9674  Rmax=0.9674     1
 O  C  Rav=1.2682 sigma=0.0602  Rmin=1.2081  Rmax=1.3284     2
 O  O  Rav=1.4227 sigma=0.0000  Rmin=1.4227  Rmax=1.4227     1
 
 selected bond angles (degree)
 --------------------
O4-C1-C2=129.36                H9-C1-C2=121.65                H9-C1-O4=108.99                C3-C2-C1=119.89                
H11-C2-C1=121.02               H11-C2-C3=119.09               O6-C3-C2=125.47                H10-C3-C2=113.76               
H10-C3-O6=120.77               O5-O4-C1=113.78                H7-O5-O4=102.29                
 
 selected dihedral angles (degree)
 ---------------------------------
C3-C2-C1-O4=179.94            C3-C2-C1-H9=  0.03            H11-C2-C1-O4=359.92           H11-C2-C1-H9=180.01           
O6-C3-C2-C1=359.86            O6-C3-C2-H11=179.89           H10-C3-C2-C1=179.73           H10-C3-C2-H11=359.76          
O5-O4-C1-C2=359.76            O5-O4-C1-H9=179.68            H7-O5-O4-C1=177.82            
 
 CMA Distance (Angstroems)
 ---------------------------
R(CMA):  3.6102
           -------------------------------------------------
          |                Final Singlepoint                |
           -------------------------------------------------

          ...................................................
          :                      SETUP                      :
          :.................................................:
          :  # basis functions                  30          :
          :  # atomic orbitals                  30          :
          :  # shells                           18          :
          :  # electrons                        36          :
          :  max. iterations                   100          :
          :  Hamiltonian                  GFN2-xTB          :
          :  restarted?                      false          :
          :  GBSA solvation                  false          :
          :  PC potential                    false          :
          :  electronic temp.          300.0000000     K    :
          :  accuracy                    1.0000000          :
          :  -> integral cutoff          0.2500000E+02      :
          :  -> integral neglect         0.1000000E-07      :
          :  -> SCF convergence          0.1000000E-05 Eh   :
          :  -> wf. convergence          0.1000000E-03 e    :
          :  Broyden damping             0.4000000          :
          ...................................................

 iter      E             dE          RMSdq      gap      omega  full diag
   1    -21.7323536 -0.217324E+02  0.128E-04    3.09       0.0  T
   2    -21.7323536 -0.885372E-10  0.595E-05    3.09     485.1  T
   3    -21.7323536 -0.249187E-10  0.327E-05    3.09     882.3  T

   *** convergence criteria satisfied after 3 iterations ***

         #    Occupation            Energy/Eh            Energy/eV
      -------------------------------------------------------------
         1        2.0000           -0.7705442             -20.9676
       ...           ...                  ...                  ...
        12        2.0000           -0.5294351             -14.4067
        13        2.0000           -0.5176799             -14.0868
        14        2.0000           -0.4931028             -13.4180
        15        2.0000           -0.4743697             -12.9083
        16        2.0000           -0.4685209             -12.7491
        17        2.0000           -0.4176987             -11.3662
        18        2.0000           -0.3998386             -10.8802 (HOMO)
        19                         -0.2861911              -7.7877 (LUMO)
        20                         -0.1877066              -5.1078
        21                         -0.1736313              -4.7247
        22                          0.0782865               2.1303
        23                          0.1021286               2.7791
       ...                                ...                  ...
        30                          0.6666119              18.1394
      -------------------------------------------------------------
                  HL-Gap            0.1136475 Eh            3.0925 eV
             Fermi-level           -0.3430149 Eh           -9.3339 eV

 SCC (total)                   0 d,  0 h,  0 min,  0.002 sec
 SCC setup                      ...        0 min,  0.000 sec (  4.502%)
 Dispersion                     ...        0 min,  0.000 sec (  1.971%)
 integral evaluation            ...        0 min,  0.000 sec ( 20.146%)
 zeroth order Hamiltonian       ...        0 min,  0.000 sec (  2.721%)
 iterations                     ...        0 min,  0.001 sec ( 24.558%)
 molecular gradient             ...        0 min,  0.001 sec ( 33.393%)
 printout                       ...        0 min,  0.000 sec (  2.956%)

         :::::::::::::::::::::::::::::::::::::::::::::::::::::
         ::                     SUMMARY                     ::
         :::::::::::::::::::::::::::::::::::::::::::::::::::::
         :: total energy             -21.512828578627 Eh    ::
         :: gradient norm              0.000652962298 Eh/a0 ::
         :: HOMO-LUMO gap              3.092505897797 eV    ::
         ::.................................................::
         :: SCC energy               -21.732353591739 Eh    ::
         :: -> isotropic ES            0.043869422154 Eh    ::
         :: -> anisotropic ES          0.005824042214 Eh    ::
         :: -> anisotropic XC          0.005004074573 Eh    ::
         :: -> dispersion             -0.005637974913 Eh    ::
         :: repulsion energy           0.219512926205 Eh    ::
         :: add. restraining           0.000000000000 Eh    ::
         :::::::::::::::::::::::::::::::::::::::::::::::::::::

           -------------------------------------------------
          |                Property Printout                |
           -------------------------------------------------

    * Orbital Energies and Occupations

         #    Occupation            Energy/Eh            Energy/eV
      -------------------------------------------------------------
         1        2.0000           -0.7705442             -20.9676
       ...           ...                  ...                  ...
         6        2.0000           -0.6392863             -17.3959
         7        2.0000           -0.6077121             -16.5367
         8        2.0000           -0.6027720             -16.4023
         9        2.0000           -0.5623345             -15.3019
        10        2.0000           -0.5597413             -15.2313
        11        2.0000           -0.5314389             -14.4612
        12        2.0000           -0.5294351             -14.4067
        13        2.0000           -0.5176799             -14.0868
        14        2.0000           -0.4931028             -13.4180
        15        2.0000           -0.4743697             -12.9083
        16        2.0000           -0.4685209             -12.7491
        17        2.0000           -0.4176987             -11.3662
        18        2.0000           -0.3998386             -10.8802 (HOMO)
        19                         -0.2861911              -7.7877 (LUMO)
        20                         -0.1877066              -5.1078
        21                         -0.1736313              -4.7247
        22                          0.0782865               2.1303
        23                          0.1021286               2.7791
        24                          0.1198815               3.2621
        25                          0.1227129               3.3392
        26                          0.1933804               5.2621
        27                          0.2125195               5.7829
        28                          0.4063445              11.0572
        29                          0.5143369              13.9958
        30                          0.6666119              18.1394
      -------------------------------------------------------------
                  HL-Gap            0.1136475 Eh            3.0925 eV
             Fermi-level           -0.3430149 Eh           -9.3339 eV

     #   Z        covCN         q      C6AA      α(0)
     1   6 C      2.777     0.133    25.086     8.203
     2   6 C      2.887    -0.095    30.378     9.036
     3   6 C      2.770     0.205    23.638     7.963
     4   8 O      1.784    -0.120    16.102     5.419
     5   8 O      1.737    -0.303    19.041     5.892
     6   8 O      0.857    -0.353    20.770     6.110
     7   1 H      0.805     0.334     0.628     1.244
     8   1 H      0.811    -0.000     3.109     2.769
     9   1 H      0.925     0.106     1.731     2.057
    10   1 H      0.922     0.019     2.751     2.594
    11   1 H      0.926     0.074     2.039     2.233
    12   1 H      0.811     0.000     3.105     2.767

 Mol. C6AA /au·bohr⁶  :       1361.345680
 Mol. C8AA /au·bohr⁸  :      29078.393716
 Mol. α(0) /au        :         56.287500


Wiberg/Mayer (AO) data.
largest (>0.10) Wiberg bond orders for each atom
          total WBO             WBO to atom ...
     1  C   3.920        C    2 1.706    O    4 1.145    H    9 0.924
     2  C   3.978        C    1 1.706    C    3 1.107    H   11 0.962    O    4 0.114
     3  C   3.936        O    6 1.834    C    2 1.107    H   10 0.935
     4  O   2.279        C    1 1.145    O    5 0.956    C    2 0.114
     5  O   1.922        O    4 0.956    H    7 0.882
     6  O   2.067        C    3 1.834
     7  H   0.889        O    5 0.882
     8  H   1.000        H   12 1.000
     9  H   0.989        C    1 0.924
    10  H   1.000        C    3 0.935
    11  H   0.994        C    2 0.962
    12  H   1.000        H    8 1.000

molecular dipole:
                 x           y           z       tot (Debye)
 q only:       -0.461       1.288       0.103
   full:       -0.583       1.529       0.152       4.177
molecular quadrupole (traceless):
                xx          xy          yy          xz          yz          zz
 q only:       -3.907       5.156       5.745       2.328      -9.164      -1.838
  q+dip:       -5.204       6.913       7.733       2.509     -11.552      -2.530
   full:       -5.247       6.821       7.319       3.619     -11.210      -2.072

           -------------------------------------------------
          |                Geometry Summary                 |
           -------------------------------------------------

      molecular mass/u    :       90.0780670
   center of mass at/Å    :        0.9527771       0.7966129      -1.9549185
  moments of inertia/u·Å² :        0.5364060E+02   0.3193247E+03   0.3341978E+03
rotational constants/cm⁻¹ :        0.3142700E+00   0.5279151E-01   0.5044208E-01

 * 8 selected distances

     #   Z        #   Z                                     value/Å
     1   6 C      2   6 C                                 1.3385640
     1   6 C      4   8 O                                 1.3283715
     4   8 O      5   8 O                                 1.4226619 (max)
     3   6 C      6   8 O                                 1.2080568
     5   8 O      7   1 H                                 0.9673918
     1   6 C      9   1 H                                 1.0841927
     2   6 C     11   1 H                                 1.0773741
     8   1 H     12   1 H                                 0.7774457 (min)

 * 6 distinct bonds (by element types)

   Z      Z             #   av. dist./Å        max./Å        min./Å
   1 H    1 H           1     0.7774457     0.7774457     0.7774457
   1 H    6 C           2     1.0807834     1.0841927     1.0773741
   6 C    6 C           1     1.3385640     1.3385640     1.3385640
   1 H    8 O           1     0.9673918     0.9673918     0.9673918
   6 C    8 O           2     1.2682141     1.3283715     1.2080568
   8 O    8 O           1     1.4226619     1.4226619     1.4226619


optimized geometry written to: xtbopt.xyz


           -------------------------------------------------
          | TOTAL ENERGY              -21.512828578627 Eh   |
          | GRADIENT NORM               0.000652962298 Eh/α |
          | HOMO-LUMO GAP               3.092505897797 eV   |
           -------------------------------------------------

------------------------------------------------------------------------
 * finished run on 2020/12/23 at 21:40:38.462     
------------------------------------------------------------------------
 total:
 * wall-time:     0 d,  0 h,  0 min,  1.424 sec
 *  cpu-time:     0 d,  0 h,  0 min,  6.023 sec
 * ratio c/w:     4.230 speedup
 SCF:
 * wall-time:     0 d,  0 h,  0 min,  0.096 sec
 *  cpu-time:     0 d,  0 h,  0 min,  0.345 sec
 * ratio c/w:     3.591 speedup
 ANC optimizer:
 * wall-time:     0 d,  0 h,  0 min,  1.103 sec
 *  cpu-time:     0 d,  0 h,  0 min,  4.542 sec
 * ratio c/w:     4.116 speedup

