12
 energy: -21.582897055600 gnorm: 0.124032233052 xtb: 6.2.3 (830e466)
C         1.19046000000000    1.17108000000000   -2.75837000000000
C         0.23396000000000    1.01188000000000   -1.63644000000000
C         1.24690000000000    0.83566000000000   -0.55676000000000
O         2.20383000000000    0.23297000000000   -2.48102000000000
O         1.84076000000000    2.05490000000000   -0.18492000000000
O         2.22610000000000    0.01726000000000   -1.15391000000000
H         1.11537000000000    2.63340000000000    0.16802000000000
H         1.64043000000000    2.19030000000000   -2.76479000000000
H         0.69543000000000    0.98008000000000   -3.73346000000000
H         0.80086000000000    0.34478000000000    0.33663000000000
H        -0.29566000000000    0.04133000000000   -1.77191000000000
H        -0.50944000000000    1.82598000000000   -1.49886000000000
12
 energy: -21.593250965183 gnorm: 0.050070064549 xtb: 6.2.3 (830e466)
C         1.18369415355833    1.17979354067413   -2.78968256103454
C         0.21524259405244    1.00633472877442   -1.64401016898073
C         1.23622289328002    0.83968418023078   -0.53501269625073
O         2.19185635283226    0.23627579105915   -2.50234209708849
O         1.82894716901513    2.05968614130754   -0.15883377697434
O         2.21237302918113    0.02830715305534   -1.12206871343988
H         1.13293003787094    2.63750056494964    0.19638983364735
H         1.61909330145100    2.19540279023890   -2.79871217599479
H         0.74936680065100    0.96029073113798   -3.77253253903978
H         0.84798191544654    0.31494064158585    0.35707391945452
H        -0.33179084705973    0.06012531629109   -1.76312958165375
H        -0.49691740027906    1.82127842069517   -1.50292944264484
12
 energy: -21.595549086640 gnorm: 0.011202796766 xtb: 6.2.3 (830e466)
C         1.18256517993190    1.17603347048656   -2.80227465692611
C         0.20061959142812    1.01147887544424   -1.64718251103681
C         1.24022959488130    0.84070627351431   -0.53392913267153
O         2.19625459817731    0.23437271333727   -2.52064131377526
O         1.81019508365580    2.06628826429211   -0.14260712848878
O         2.22367853642752    0.04064810988542   -1.10411093235781
H         1.12793473630571    2.63187740032702    0.22625831440677
H         1.59760775921105    2.19376590687454   -2.81521272356006
H         0.77337098845890    0.92316697372167   -3.77940353537722
H         0.87536905939124    0.28977227193685    0.34507574939524
H        -0.36198256647134    0.08398959529468   -1.75803367383365
H        -0.47684256139751    1.84752014488532   -1.50372845577479
12
 energy: -21.595845389553 gnorm: 0.004152319249 xtb: 6.2.3 (830e466)
C         1.18136105693767    1.16845965617238   -2.81171944453380
C         0.20124790468779    1.01534586041540   -1.64920083045255
C         1.24503530018218    0.84088897180753   -0.53442804020898
O         2.20144679109753    0.23723958663314   -2.52843181089811
O         1.79830519819575    2.06981579951951   -0.13203211758689
O         2.23550004727181    0.05412892529340   -1.10091791728591
H         1.11615609712574    2.62129080530556    0.26205096107093
H         1.58857190972245    2.18827453017800   -2.83623538911940
H         0.77461451629932    0.89637200852672   -3.78509498304817
H         0.88063044180297    0.27986471869106    0.33842673213503
H        -0.37910686016646    0.09831585849878   -1.75212263315924
H        -0.45476240315675    1.86962327895852   -1.50608452691292
12
 energy: -21.595979980845 gnorm: 0.004927347335 xtb: 6.2.3 (830e466)
C         1.18117977710153    1.15962400612239   -2.81966705161351
C         0.20434230506297    1.01866935845673   -1.65212332801367
C         1.24967644350173    0.84253528863777   -0.53640760629915
O         2.20784144913366    0.24013094405505   -2.53237657413142
O         1.78893136896492    2.07386319354482   -0.12383745567120
O         2.24807188678352    0.06861205941482   -1.09959385795571
H         1.10693035807119    2.60646600306182    0.30240717689449
H         1.58048976450868    2.18254241934857   -2.85952350352339
H         0.77026392719348    0.87239427612150   -3.78752510763987
H         0.87973862850664    0.27556002896501    0.33108077580686
H        -0.39415645903587    0.11244275695785   -1.74748179973346
H        -0.43430944979246    1.88677966531366   -1.51074166811997
12
 energy: -21.596046683245 gnorm: 0.005285731490 xtb: 6.2.3 (830e466)
C         1.18126215301019    1.15352590992801   -2.82442438231753
C         0.20702179733314    1.02116437227949   -1.65463357075371
C         1.25178840178108    0.84467442261482   -0.53815991067527
O         2.21204535026521    0.24205232079009   -2.53287684022372
O         1.78327021173511    2.07717698979917   -0.11965980655997
O         2.25592974735697    0.07906446666642   -1.09964499671662
H         1.10357915367577    2.59369854354442    0.33107794389032
H         1.57552625525857    2.17834351985027   -2.87595097215335
H         0.76587421145098    0.85744493899382   -3.78814727167689
H         0.87688948475458    0.27495708051557    0.32623325748236
H        -0.40165260633921    0.12179271529452   -1.74501284240589
H        -0.42253416028237    1.89572471972340   -1.51459060788974
12
 energy: -21.596108601719 gnorm: 0.004709237722 xtb: 6.2.3 (830e466)
C         1.18111329792178    1.14730717058747   -2.82963720815349
C         0.20943634990241    1.02441958555786   -1.65792662943839
C         1.25276137997589    0.84844075307889   -0.54027503572190
O         2.21550465931145    0.24327157377934   -2.53219082842728
O         1.77708364824787    2.08195908626570   -0.11567334730554
O         2.26317495620020    0.09072556924003   -1.10037908350615
H         1.10313546495430    2.57811349420619    0.36507327933018
H         1.57096917050993    2.17332719053703   -2.89424804564467
H         0.76156774148072    0.84156354488638   -3.78895142982403
H         0.87418963025370    0.27568196166765    0.32118936133090
H        -0.40713883359835    0.13083669760003   -1.74304729328756
H        -0.41279746515992    1.90397337259343   -1.51972373935208
12
 energy: -21.596162809784 gnorm: 0.005049611563 xtb: 6.2.3 (830e466)
C         1.18043773788598    1.14074194305378   -2.83630869421268
C         0.21113529348719    1.02862530601357   -1.66218258730347
C         1.25279670325130    0.85434017341546   -0.54271631828074
O         2.21774910316148    0.24285966342312   -2.53159877503589
O         1.76909678277674    2.08936207183381   -0.11182459347557
O         2.27037346112098    0.10431589836128   -1.10141870919835
H         1.10535428582447    2.55912312575285    0.40863341552343
H         1.56699717027766    2.16691824610944   -2.91500285126123
H         0.75822225471654    0.82333065392288   -3.79084718208069
H         0.87319475113613    0.27753244954165    0.31569949579301
H        -0.41174527157847    0.13954479255947   -1.74129536757762
H        -0.40461227206001    1.91292567601267   -1.52692783289021
12
 energy: -21.596213262968 gnorm: 0.004056475446 xtb: 6.2.3 (830e466)
C         1.17934467031065    1.13544180455922   -2.84273038711593
C         0.21181476562059    1.03251277219413   -1.66633863378285
C         1.25182116606901    0.86104270032951   -0.54467564787789
O         2.21806143124337    0.24061017464992   -2.53142457777967
O         1.76048434549394    2.09786032663656   -0.10888082662195
O         2.27641135491349    0.11737341747874   -1.10225541073773
H         1.11106330396578    2.54068158329883    0.45001754713033
H         1.56459875297161    2.16063507524800   -2.93246132333152
H         0.75631630937099    0.80763514046097   -3.79301113470988
H         0.87332133958238    0.28020263735949    0.31084759965726
H        -0.41441442010481    0.14565623533084   -1.74036778189444
H        -0.39982301943701    1.91996813245378   -1.53450942293575
12
 energy: -21.596265882331 gnorm: 0.003766786847 xtb: 6.2.3 (830e466)
C         1.17792163301999    1.13121529468851   -2.84864316500747
C         0.21107236031980    1.03521373220234   -1.67068274969883
C         1.24991031530758    0.86892829054119   -0.54670269152182
O         2.21580473882666    0.23570773940472   -2.53200075193075
O         1.75093112569050    2.10858546327563   -0.10985488697391
O         2.28114371899161    0.12991464090234   -1.10266628096884
H         1.12145237297635    2.52247593582511    0.49187229822526
H         1.56464352983600    2.15439045845806   -2.94472112217217
H         0.75625470773391    0.79575349730428   -3.79603770477530
H         0.87451359912574    0.28529545147901    0.30709111492798
H        -0.41541138798002    0.14804716181121   -1.74043047887627
H        -0.39923671384815    1.92409233410760   -1.54301358122788
12
 energy: -21.596336801358 gnorm: 0.003475212218 xtb: 6.2.3 (830e466)
C         1.17609049951376    1.12793694876078   -2.85399860179180
C         0.20855656682700    1.03605853986046   -1.67594651919819
C         1.24618047424465    0.87924189703734   -0.54907945308531
O         2.20980869443150    0.22682677719179   -2.53276523336980
O         1.73857105842479    2.12356277685124   -0.11607455081455
O         2.28471088326033    0.14351922301736   -1.10250895292159
H         1.14244781068433    2.50244320553611    0.53688192846875
H         1.56760120331163    2.14826424780441   -2.95044056926361
H         0.75803867815662    0.78872348572469   -3.80045385505948
H         0.87522209685554    0.29472232247869    0.30430392358345
H        -0.41333340582375    0.14488380406595   -1.74227145067970
H        -0.40489455988642    1.92343677167115   -1.55343666586818
12
 energy: -21.595796271690 gnorm: 0.033698408628 xtb: 6.2.3 (830e466)
C         1.17278218161808    1.11687170083899   -2.86731308751530
C         0.20335975227586    1.03673628999672   -1.68968697672815
C         1.23909613469112    0.90298833564489   -0.55685286994955
O         2.19867447452413    0.20838317107841   -2.53423606339536
O         1.70865110224240    2.16012328364551   -0.13518281234817
O         2.29483454335485    0.17693029621326   -1.10183769642754
H         1.19035656149524    2.45284524649155    0.65628541064084
H         1.57204310111302    2.13332559622246   -2.96742282565312
H         0.76095973007445    0.76865651090045   -3.81243560525738
H         0.87451470290173    0.31893002691435    0.29732372057023
H        -0.41311928144138    0.14005336553468   -1.74544816779914
H        -0.41315300284954    1.92377617651871   -1.57898302613735
12
 energy: -21.596406296769 gnorm: 0.005473220618 xtb: 6.2.3 (830e466)
C         1.17503671807269    1.12592655653741   -2.85622326446711
C         0.20499805110502    1.03294230126999   -1.68075790134721
C         1.24211407717217    0.88778215898318   -0.55182901157911
O         2.20267867009152    0.21819506104533   -2.53286087121127
O         1.72682018137737    2.13776146345410   -0.12702439745459
O         2.28566169053605    0.15323531237499   -1.10146751058574
H         1.17128531136521    2.48910958955801    0.56946048521074
H         1.57200039750737    2.14537123293864   -2.94558601607740
H         0.76085248029804    0.79084550561604   -3.80609727193492
H         0.87252657198323    0.30658912350099    0.30388133930378
H        -0.40940596996376    0.13570199377584   -1.74515371386490
H        -0.41556817954492    1.91615970094546   -1.56213186599227
12
 energy: -21.596453461952 gnorm: 0.003005806766 xtb: 6.2.3 (830e466)
C         1.17516299638189    1.12512306374078   -2.85617363186239
C         0.20337805521796    1.03081864755218   -1.68248872104293
C         1.24062396281032    0.89003344699811   -0.55321232665442
O         2.20073164243989    0.21586632865768   -2.53249208424128
O         1.72278169035169    2.14309425085287   -0.13501532018453
O         2.28489417808067    0.15513323445043   -1.10092861893661
H         1.18188905647965    2.48526191913680    0.58073659429592
H         1.57325849711641    2.14461498089606   -2.94178820167657
H         0.76259337094109    0.79349939370370   -3.80793699087495
H         0.87157128899619    0.31169018340993    0.30474327250803
H        -0.40849291366505    0.13191406845967   -1.74642111165817
H        -0.41939182515073    1.91257048214180   -1.56481285967211
12
 energy: -21.595597646747 gnorm: 0.042970117080 xtb: 6.2.3 (830e466)
C         1.17511171139981    1.11860614309027   -2.85764929820374
C         0.18912582450841    1.01363094066059   -1.69849687844744
C         1.22608822108976    0.91239515907632   -0.56447267020395
O         2.18241496452747    0.19413448240769   -2.52897073620434
O         1.68412325860757    2.19144373311965   -0.19636513299876
O         2.28000698354364    0.17593653059374   -1.09580176209403
H         1.28283566482639    2.44747552962682    0.68194148431142
H         1.58365626507478    2.13823549295152   -2.91223674575445
H         0.77681517746721    0.81209309111218   -3.82466755816526
H         0.86208890790813    0.35588453584858    0.30987808251629
H        -0.39865757348752    0.09805931045574   -1.75893945357573
H        -0.45460940546568    1.88172505105688   -1.59000933118000
12
 energy: -21.596522327851 gnorm: 0.002011669286 xtb: 6.2.3 (830e466)
C         1.17531419654047    1.12493819120641   -2.85475351008527
C         0.19893742916614    1.02453348433627   -1.68603421660355
C         1.23662155795244    0.89473484305446   -0.55591007829427
O         2.19550270718918    0.21106853386567   -2.53125147092250
O         1.71637429640636    2.15311216966701   -0.15126894899387
O         2.28067713462947    0.15656847459844   -1.09930048535837
H         1.21032802393395    2.48145287464275    0.59677937767859
H         1.57625125071495    2.14474490852467   -2.92810230067935
H         0.76712255775473    0.80412626700501   -3.81231353671410
H         0.86811388247505    0.32459484394223    0.30762255429516
H        -0.40377698027613    0.11961066961048   -1.75052252536813
H        -0.43246605648663    1.90013473954659   -1.57073485895435
12
 energy: -21.596549107575 gnorm: 0.002112994702 xtb: 6.2.3 (830e466)
C         1.17578000141073    1.12419831513533   -2.85480376523886
C         0.19833604282955    1.02351133020877   -1.68697919699431
C         1.23573373809568    0.89520779996974   -0.55665408453140
O         2.19570741813380    0.21094990729391   -2.53079933633881
O         1.71168766230594    2.15682773088391   -0.15641615487001
O         2.28074414059778    0.15761594841087   -1.09859251743980
H         1.21706219198123    2.47802909964184    0.60329609956519
H         1.57588615634159    2.14479644130846   -2.92737527906626
H         0.76794228467958    0.80404015531755   -3.81307543305504
H         0.86713735206119    0.32631741295082    0.30793586589390
H        -0.40430953610381    0.11849393531874   -1.75091354018809
H        -0.43270745233328    1.89963192356006   -1.57141265773652
12
 energy: -21.596283173469 gnorm: 0.031188174934 xtb: 6.2.3 (830e466)
C         1.17821930821973    1.11734926485348   -2.85669166199635
C         0.19023543210996    1.01237677278853   -1.69850203269065
C         1.22450438801119    0.90515072894227   -0.56428043340675
O         2.19649495974152    0.21030518411847   -2.52517312253577
O         1.66946738304549    2.19303721445305   -0.20067078360224
O         2.27844396781353    0.17066972341658   -1.09096382086203
H         1.29696861548295    2.44360492217898    0.67782676496956
H         1.57085844621280    2.14394793771946   -2.92105214053112
H         0.77670153056826    0.80176147849801   -3.82147582110093
H         0.85701724293968    0.34991631031724    0.31020467089853
H        -0.40670432312530    0.10388863107196   -1.76033991873398
H        -0.44320695101984    1.88761183164196   -1.58467170040829
12
 energy: -21.596616002793 gnorm: 0.003112575823 xtb: 6.2.3 (830e466)
C         1.17642600940217    1.12278262803556   -2.85513712800041
C         0.19625348867973    1.02060713159733   -1.68980444181025
C         1.23263020746594    0.89734942139131   -0.55835846004393
O         2.19691134283762    0.21225245146971   -2.52907761256968
O         1.70128044180282    2.16515688387370   -0.16677559642453
O         2.27949616520832    0.16013992279520   -1.09630991733059
H         1.23860568771467    2.46988137078741    0.62027897570814
H         1.57357304480334    2.14527336185037   -2.92615489964512
H         0.77027476716117    0.80311999046318   -3.81492699142516
H         0.86398810422764    0.33203389077144    0.30862598334220
H        -0.40487467652955    0.11464331288039   -1.75342737996153
H        -0.43556458277387    1.89637963408438   -1.57472253183914
12
 energy: -21.596656020523 gnorm: 0.004441117414 xtb: 6.2.3 (830e466)
C         1.17655886669096    1.12198983372683   -2.85570471108945
C         0.19514775761008    1.01940537504512   -1.69147757645093
C         1.23071984466897    0.89902194401832   -0.55920014377042
O         2.19784136728433    0.21331748832467   -2.52809256653082
O         1.69533596904812    2.16980828902146   -0.17142348170706
O         2.27876526141862    0.16198378689367   -1.09508888827599
H         1.25103223440043    2.46450811121129    0.63106853667493
H         1.57215531729421    2.14519437126100   -2.92687001892028
H         0.77142845994126    0.80156521188520   -3.81580790549450
H         0.86231939013171    0.33515377642765    0.30868650573063
H        -0.40504178788692    0.11286310808699   -1.75479414477762
H        -0.43726268060178    1.89480870409779   -1.57708560538850
12
 energy: -21.585942286696 gnorm: 0.109441704508 xtb: 6.2.3 (830e466)
C         1.17780109638382    1.10806134319462   -2.86723525466143
C         0.17362899286574    0.99731911560262   -1.72360027112489
C         1.19310705686200    0.93336171660410   -0.57451715103276
O         2.21501798578266    0.23358496517066   -2.50880526382901
O         1.58266393039415    2.25833391370624   -0.25695746868470
O         2.26398146944733    0.19806323856835   -1.07161756032770
H         1.49326083329051    2.35971042696802    0.83677100040420
H         1.54476906050919    2.14389858423631   -2.94082234320401
H         0.79412853155502    0.77110950780790   -3.83289962075176
H         0.82960925698204    0.39521949451455    0.30903724282540
H        -0.40552847322541    0.07709528023469   -1.78043607265406
H        -0.47343974084707    1.86386241339194   -1.62470723695931
12
 energy: -21.596937876215 gnorm: 0.053652778445 xtb: 6.2.3 (830e466)
C         1.17748580561810    1.11185291594468   -2.86604821821987
C         0.17059690062698    0.99874657560481   -1.72461494937918
C         1.17920269205379    0.93415365402407   -0.56690531186637
O         2.21970827057481    0.24431081845262   -2.49994813784991
O         1.55425814811418    2.25039113174324   -0.21610348456019
O         2.25997861172296    0.20951811347320   -1.06265900177325
H         1.55433084440076    2.36190621705245    0.79023721015841
H         1.54093584311140    2.14657193246573   -2.94412027249620
H         0.80392901335851    0.76583118282026   -3.83051888423638
H         0.81467043129984    0.38181856383103    0.30474068281345
H        -0.40201393043412    0.07490970695652   -1.78635363158325
H        -0.48408263044724    1.85960918763138   -1.63349600100728
12
 energy: -21.597613599203 gnorm: 0.062266686500 xtb: 6.2.3 (830e466)
C         1.17721710382301    1.11343091828406   -2.86624935125063
C         0.17496256985911    1.00958235843901   -1.72095219425193
C         1.17793225438094    0.94236166532622   -0.56164959401789
O         2.22602210367864    0.25285837793581   -2.49254188959143
O         1.53926273330898    2.24643941248458   -0.18025796424223
O         2.26683031516695    0.22406365999698   -1.05582164541130
H         1.56245254383439    2.32227379547184    0.73431139291360
H         1.53580682291570    2.14714350655816   -2.95909273596477
H         0.80202176955252    0.75040483751430   -3.82291668222418
H         0.80518948970805    0.37864941585289    0.30064960977960
H        -0.39616085030907    0.08415727856215   -1.77533871010343
H        -0.48253685591924    1.86825477357399   -1.63593023563542
12
 energy: -21.600095403668 gnorm: 0.021120007363 xtb: 6.2.3 (830e466)
C         1.17843853526838    1.11310969339502   -2.86668980943646
C         0.16486137355464    1.00199965017189   -1.73102590374311
C         1.15737020067202    0.94803252906770   -0.56113695904480
O         2.23168068158741    0.26331391957794   -2.48138049753764
O         1.50314732345626    2.25953982273211   -0.19278795419989
O         2.25846137407579    0.24013974139387   -1.04485803725985
H         1.65873361278255    2.30845375187865    0.77088122433987
H         1.52984594916666    2.14968460427854   -2.95951557971931
H         0.81736452127157    0.74352033512736   -3.82673746810005
H         0.78720692855329    0.38314669355700    0.30242954958242
H        -0.39850105791016    0.07210286871791   -1.79007229238204
H        -0.49960944247842    1.85657639010201   -1.65489627249915
12
 energy: -21.600675697461 gnorm: 0.027425854019 xtb: 6.2.3 (830e466)
C         1.17978472522832    1.11477631020450   -2.86548430621477
C         0.16083890340038    0.99943896874406   -1.73523217764676
C         1.14430126548683    0.95164074020307   -0.55829408849064
O         2.23831386001872    0.27396091811430   -2.47128395021315
O         1.47633499999327    2.26313328436887   -0.18833871214401
O         2.25484466087317    0.24980460667995   -1.03494336629820
H         1.72321162958378    2.29622585243379    0.76440310127962
H         1.52258353208128    2.15384360426772   -2.96082743676204
H         0.82694454115470    0.73791140886691   -3.82579459386571
H         0.76818664673794    0.38205588509887    0.30078117263007
H        -0.39757628357427    0.06653486700685   -1.79662689042102
H        -0.50876848098414    1.85029355401109   -1.66414875185339
12
 energy: -21.602079207644 gnorm: 0.024231137603 xtb: 6.2.3 (830e466)
C         1.18320720978708    1.11954133022712   -2.86190412058147
C         0.15875803702291    0.99774821869325   -1.73891098486007
C         1.12422439085413    0.95300763939180   -0.55103432067215
O         2.25357946434335    0.29644522622537   -2.45316097814426
O         1.42283941332728    2.25991060498553   -0.17147044055322
O         2.25242131492802    0.26100631703729   -1.01716246245846
H         1.82682506749179    2.28546989145162    0.72444282007015
H         1.50807830802683    2.16305637724561   -2.96633631705335
H         0.84058698578789    0.72797155257069   -3.81957303997473
H         0.72972498965684    0.36901497836330    0.29370034386528
H        -0.39549342257867    0.06258311762658   -1.80383430822207
H        -0.51575175864746    1.84386474618183   -1.67054619141566
12
 energy: -21.602912853078 gnorm: 0.009654557817 xtb: 6.2.3 (830e466)
C         1.18442639385815    1.12088615443063   -2.85963134406898
C         0.15867053531972    1.00021388535811   -1.73834073095097
C         1.11715937787515    0.95367102749798   -0.54586105439945
O         2.26209953246374    0.30977242280797   -2.44456741702469
O         1.39569042099579    2.25501377506128   -0.15178308546374
O         2.25354194929686    0.26878396186035   -1.00878278296871
H         1.86101006919269    2.27481751947528    0.68673023819164
H         1.50295229770184    2.16487337574594   -2.97447716630685
H         0.84491585553511    0.71871557793028   -3.81396856391214
H         0.72134107286435    0.35765932145097    0.29147124884031
H        -0.39892300803969    0.06739144300289   -1.80651008579883
H        -0.51388449706374    1.84782153537829   -1.67006925613761
12
 energy: -21.601322214266 gnorm: 0.062127235214 xtb: 6.2.3 (830e466)
C         1.18891249415291    1.12336194741198   -2.85224799052243
C         0.14689912082564    0.99964904649185   -1.74462138117491
C         1.08215867936501    0.96074140212195   -0.53308547626522
O         2.28337793684492    0.34572139284199   -2.41490738421339
O         1.29615620659138    2.26024233576315   -0.11412715015224
O         2.24746373514321    0.30491091677569   -0.97936152344451
H         2.02019238440315    2.22365770601565    0.60853110176158
H         1.49317071687965    2.16919517141157   -2.98514818035802
H         0.87025580853898    0.69702866912190   -3.80466265215752
H         0.69784700253513    0.33949055237056    0.29391163505969
H        -0.41023092323898    0.06768178552084   -1.82380391473355
H        -0.52720316204103    1.84793907415285   -1.68626708379948
12
 energy: -21.603567688147 gnorm: 0.007689933645 xtb: 6.2.3 (830e466)
C         1.18641728475574    1.12245706784143   -2.85466831582310
C         0.15005317863292    0.99747381954717   -1.74166403065373
C         1.09962462136804    0.95395598610584   -0.54033757285770
O         2.27235250495870    0.32894533144619   -2.43067217168465
O         1.36846444569312    2.25366801935357   -0.13622577990286
O         2.24633195352062    0.28392506429371   -0.99502063459877
H         1.92661810996621    2.25951307146680    0.64881353369918
H         1.49570513461461    2.16894766071985   -2.97477913719997
H         0.85947258601170    0.71060453237553   -3.80989283427272
H         0.71418250937896    0.34841191170652    0.29494721856585
H        -0.40744524290211    0.06526494483644   -1.81738087737307
H        -0.52277708599854    1.84645259030697   -1.67890939789847
12
 energy: -21.603776323460 gnorm: 0.006348562502 xtb: 6.2.3 (830e466)
C         1.18787336892100    1.12334310859489   -2.85205487776458
C         0.14835676380542    0.99572331234385   -1.74152187557271
C         1.09521263766222    0.95146752210996   -0.53886198813557
O         2.27385501962158    0.33236016472762   -2.42683185672848
O         1.35358107807052    2.25484817615245   -0.13318658412699
O         2.24475765800011    0.28679695626814   -0.99130879534859
H         1.94672320517685    2.25756226519893    0.62887317177446
H         1.49587094897462    2.17030707035949   -2.97009344172472
H         0.86365144013521    0.71297898405413   -3.80845579873906
H         0.71169799744712    0.34402314118101    0.29585826828993
H        -0.40963317713886    0.06429455910598   -1.81887662034337
H        -0.52294694067581    1.84591473990355   -1.67932960158035
12
 energy: -21.603805339320 gnorm: 0.027568751058 xtb: 6.2.3 (830e466)
C         1.19326612136476    1.12813298872082   -2.84094759616870
C         0.13889635940775    0.98674667660357   -1.74320938903629
C         1.07320668295440    0.94270639766847   -0.53231002555631
O         2.28280148886137    0.35100741088932   -2.40710865101496
O         1.30618177694862    2.25352352338461   -0.11517198839632
O         2.23486943338855    0.29950764503475   -0.97142682367909
H         2.04255622652322    2.25256005638994    0.54475026817485
H         1.48837634950336    2.18057873038390   -2.94958408118502
H         0.88396093715507    0.72037789416102   -3.80347440854485
H         0.69354233357919    0.33024805686900    0.30045976072970
H        -0.41734870239320    0.05603994838580   -1.83360307883873
H        -0.53130900729309    1.83819067150878   -1.68416398648431
12
 energy: -21.604112955311 gnorm: 0.003728314699 xtb: 6.2.3 (830e466)
C         1.19097298321803    1.12618281481377   -2.84529602903015
C         0.14348262496935    0.99092021748606   -1.74152436584475
C         1.08461388911199    0.94554177030272   -0.53570291088308
O         2.27770478270035    0.34146071747047   -2.41624387651572
O         1.32970046790235    2.25489600068606   -0.12401463694501
O         2.23958317861961    0.29315489810204   -0.98061088352539
H         1.99391592819994    2.25320544744235    0.57737525163451
H         1.49261937034920    2.17612259309640   -2.95686596034678
H         0.87448867669308    0.71891128910545   -3.80554080127880
H         0.70238408798693    0.33750964770692    0.29889436388380
H        -0.41331829207167    0.05990258037241   -1.82551158593118
H        -0.52714769767917    1.84181202341535   -1.68074856521748
12
 energy: -21.604194441966 gnorm: 0.004065171250 xtb: 6.2.3 (830e466)
C         1.19190775203033    1.12823712151672   -2.84263980366863
C         0.14139152172450    0.98855188546891   -1.74182860280926
C         1.08003642696895    0.94359874123268   -0.53421889788628
O         2.27895980297647    0.34511952705190   -2.41216525998803
O         1.32492490540416    2.25337540291552   -0.12119235964636
O         2.23637226315908    0.29428395999232   -0.97632058061582
H         2.01279800161224    2.25396065260517    0.55824582238413
H         1.49121148719694    2.17931087719336   -2.95120125683885
H         0.87907690576518    0.72235505576265   -3.80475112726640
H         0.69663749393736    0.33639280489972    0.30054392633079
H        -0.41322926397763    0.05646955491642   -1.82908023054426
H        -0.53108729679759    1.83796441644464   -1.68118162945103
12
 energy: -21.604297768381 gnorm: 0.009467285820 xtb: 6.2.3 (830e466)
C         1.19434348302666    1.13452365990512   -2.83440670587242
C         0.13608668924343    0.98324772750351   -1.74195345142929
C         1.06817168327023    0.93849630382361   -0.52974866643143
O         2.28174870469335    0.35431260568083   -2.40013456422083
O         1.30884034857588    2.25012809467507   -0.11191591063094
O         2.22845452587807    0.29722320099881   -0.96383596554830
H         2.06561291591726    2.25304159042434    0.49800830977587
H         1.48860424543425    2.18814627709981   -2.93463579350538
H         0.89113665527954    0.73272512110120   -3.80150928052935
H         0.68001375334719    0.33298521075269    0.30475294686693
H        -0.41091031162961    0.04743587481737   -1.83826873756749
H        -0.54310269303626    1.82735433321764   -1.68214218090739
12
 energy: -21.604343722225 gnorm: 0.003058125309 xtb: 6.2.3 (830e466)
C         1.19407275310118    1.13549813892774   -2.83401504379875
C         0.13602768421240    0.98270300513100   -1.74193293223815