      -----------------------------------------------------------      
     |                   =====================                   |     
     |                           x T B                           |     
     |                   =====================                   |     
     |                         S. Grimme                         |     
     |          Mulliken Center for Theoretical Chemistry        |     
     |                    University of Bonn                     |     
      -----------------------------------------------------------      

   * xtb version 6.2.3 (830e466) compiled by 'ehlert@majestix' on 2020-03-16

   xtb is free software: you can redistribute it and/or modify it under
   the terms of the GNU Lesser General Public License as published by
   the Free Software Foundation, either version 3 of the License, or
   (at your option) any later version.
   
   xtb is distributed in the hope that it will be useful,
   but WITHOUT ANY WARRANTY; without even the implied warranty of
   MERCHANTABILITY or FITNESS FOR A PARTICULAR PURPOSE.  See the
   GNU Lesser General Public License for more details.
   
   Cite this work as:
   * S. Grimme, C. Bannwarth, P. Shushkov, J. Chem. Theory Comput., 2017,
     13, 1989-2009. DOI: 10.1021/acs.jctc.7b00118
   * C. Bannwarth, S. Ehlert and S. Grimme., J. Chem. Theory Comput., 2019,
     15, 1652-1671. DOI: 10.1021/acs.jctc.8b01176
   * P. Pracht, E. Caldeweyher, S. Ehlert, S. Grimme, ChemRxiv, 2019, preprint.
     DOI: 10.26434/chemrxiv.8326202.v1
   
   for DFT-D4:
   * E. Caldeweyher, C. Bannwarth and S. Grimme, J. Chem. Phys., 2017,
     147, 034112. DOI: 10.1063/1.4993215
   * E. Caldeweyher, S. Ehlert, A. Hansen, H. Neugebauer, S. Spicher,
     C. Bannwarth and S. Grimme, J. Chem. Phys., 2019, 150, 154122.
     DOI: 10.1063/1.5090222
   
   for sTDA-xTB:
   * S. Grimme and C. Bannwarth, J. Chem. Phys., 2016, 145, 054103.
     DOI: 10.1063/1.4959605
   
   in the mass-spec context:
   * V. Asgeirsson, C. Bauer and S. Grimme, Chem. Sci., 2017, 8, 4879.
     DOI: 10.1039/c7sc00601b
   
   for metadynamics refer to:
   * S. Grimme, J. Chem. Theory Comput., 2019, 155, 2847-2862
     DOI: 10.1021/acs.jctc.9b00143
   
   with help from (in alphabetical order)
   C. Bannwarth, F. Bohle, G. Brandenburg, E. Caldeweyher, M. Checinski,
   S. Dohm, S. Ehlert, S. Ehrlich, F. März, H. Neugebauer, J. Pisarek,
   P. Pracht, P. Shushkov, and S. Spicher.
   
 * started run on 2020/12/23 at 21:42:34.180     

           -------------------------------------------------
          |                Calculation Setup                |
           -------------------------------------------------

          program call               : xtb -c 0 -u 0 -a 1.0 --iterations 100 --opt normal --namespace product_24 /scratch/bell/zhao922/YARP/paper-example/potential_product/test/reaction_channel/pp_0/pp_23_0.xyz
          hostname                   : bell-fe05.rcac.purdue.edu
          calculation namespace      : product_24
          coordinate file            : /scratch/bell/zhao922/YARP/paper-example/potential_product/test/reaction_channel/pp_0/pp_23_0.xyz
          omp threads                :                    32
          number of atoms            :                    12
          number of electrons        :                    36
          charge                     :                     0
          spin                       :                   0.0
          first test random number   :      0.49604952249872

           ------------------------------------------------- 
          |                 G F N 2 - x T B                 |
          | Geometry, Frequencies, Noncovalent interactions |
          |            JCTC 2019 parametrisation            |
           ------------------------------------------------- 
             k(s)              :                1.8500
             k(p)              :                2.2300
             k(d)              :                2.2300
             k(f)              :                2.0000
             kEN (H0ij)        :               -2.0000
             D4 a1             :                0.5200
             D4 a2             :                5.0000
             D4 s6             :                1.0000
             D4 s8             :                2.7000
             D4 s9             :                5.0000
             alphaj            :                2.0000

  Z AO/shell   Hii/eV     exponent
  1     Wed Apr 25 08:07:45 CEST 2018   EN: 2.200 GM2: 0.406  GM3: 0.0800  RAES: 1.40
     1s    -10.707211    1.230000
  6     Wed Apr 25 08:07:45 CEST 2018   EN: 2.550 GM2: 0.538  GM3: 0.1500  RAES: 3.00
     2s    -13.970922    2.096432
     2p    -10.063292    1.800000
  8     Wed Apr 25 08:07:45 CEST 2018   EN: 3.440 GM2: 0.452  GM3:-0.0517  RAES: 1.80
     2s    -20.229985    2.439742
     2p    -15.503117    2.137023

           ------------------------------------------------- 
          |        Self-Consistent Charge Iterations        |
           ------------------------------------------------- 

          ...................................................
          :                      SETUP                      :
          :.................................................:
          :  # basis functions                  30          :
          :  # atomic orbitals                  30          :
          :  # shells                           18          :
          :  # electrons                        36          :
          :  max. iterations                   100          :
          :  Hamiltonian                  GFN2-xTB          :
          :  restarted?                      false          :
          :  GBSA solvation                  false          :
          :  PC potential                    false          :
          :  electronic temp.          300.0000000     K    :
          :  accuracy                    1.0000000          :
          :  -> integral cutoff          0.2500000E+02      :
          :  -> integral neglect         0.1000000E-07      :
          :  -> SCF convergence          0.1000000E-05 Eh   :
          :  -> wf. convergence          0.1000000E-03 e    :
          :  Broyden damping             0.4000000          :
          ...................................................

 iter      E             dE          RMSdq      gap      omega  full diag
   1    -21.6208168 -0.216208E+02  0.470E+00    9.05       0.0  T
   2    -21.6405851 -0.197683E-01  0.271E+00    9.09       1.0  T
   3    -21.6412526 -0.667486E-03  0.771E-01    9.06       1.0  T
   4    -21.6414408 -0.188153E-03  0.114E-01    9.08       1.0  T
   5    -21.6414762 -0.354393E-04  0.549E-02    9.10       1.0  T
   6    -21.6414805 -0.432598E-05  0.240E-02    9.11       1.2  T
   7    -21.6414809 -0.324071E-06  0.489E-03    9.11       5.9  T
   8    -21.6414809 -0.402863E-07  0.140E-03    9.11      20.6  T
   9    -21.6414809 -0.113751E-07  0.606E-04    9.11      47.6  T
  10    -21.6414809 -0.552067E-09  0.121E-04    9.11     238.5  T

   *** convergence criteria satisfied after 10 iterations ***

         #    Occupation            Energy/Eh            Energy/eV
      -------------------------------------------------------------
         1        2.0000           -0.7726988             -21.0262
       ...           ...                  ...                  ...
        12        2.0000           -0.5328600             -14.4999
        13        2.0000           -0.5125353             -13.9468
        14        2.0000           -0.5023656             -13.6701
        15        2.0000           -0.4953180             -13.4783
        16        2.0000           -0.4592755             -12.4975
        17        2.0000           -0.4308144             -11.7231
        18        2.0000           -0.4243855             -11.5481 (HOMO)
        19                         -0.0896188              -2.4387 (LUMO)
        20                         -0.0486859              -1.3248
        21                          0.0176308               0.4798
        22                          0.0248780               0.6770
        23                          0.0665535               1.8110
       ...                                ...                  ...
        30                          0.2170528               5.9063
      -------------------------------------------------------------
                  HL-Gap            0.3347668 Eh            9.1095 eV
             Fermi-level           -0.2570022 Eh           -6.9934 eV

 SCC (total)                   0 d,  0 h,  0 min,  0.205 sec
 SCC setup                      ...        0 min,  0.000 sec (  0.131%)
 Dispersion                     ...        0 min,  0.000 sec (  0.030%)
 integral evaluation            ...        0 min,  0.001 sec (  0.496%)
 zeroth order Hamiltonian       ...        0 min,  0.000 sec (  0.039%)
 iterations                     ...        0 min,  0.006 sec (  3.106%)
 molecular gradient             ...        0 min,  0.197 sec ( 95.958%)
 printout                       ...        0 min,  0.000 sec (  0.138%)

         :::::::::::::::::::::::::::::::::::::::::::::::::::::
         ::                     SUMMARY                     ::
         :::::::::::::::::::::::::::::::::::::::::::::::::::::
         :: total energy             -21.511997395631 Eh    ::
         :: gradient norm              0.102415828086 Eh/a0 ::
         :: HOMO-LUMO gap              9.109467558124 eV    ::
         ::.................................................::
         :: SCC energy               -21.641480924759 Eh    ::
         :: -> isotropic ES            0.022407366758 Eh    ::
         :: -> anisotropic ES          0.002329598297 Eh    ::
         :: -> anisotropic XC         -0.014998940781 Eh    ::
         :: -> dispersion             -0.006386815643 Eh    ::
         :: repulsion energy           0.129479554589 Eh    ::
         :: add. restraining           0.000000000000 Eh    ::
         :::::::::::::::::::::::::::::::::::::::::::::::::::::

      ----------------------------------------------------------- 
     |                   =====================                   |
     |                        A N C O P T                        |
     |                   =====================                   |
     |               Approximate Normal Coordinate               |
     |                Rational Function Optimizer                |
      ----------------------------------------------------------- 

          ...................................................
          :                      SETUP                      :
          :.................................................:
          :   optimization level            normal          :
          :   max. optcycles                   200          :
          :   ANC micro-cycles                  20          :
          :   degrees of freedom                30          :
          :.................................................:
          :   RF solver                   davidson          :
          :   write xtbopt.log                true          :
          :   linear?                        false          :
          :   energy convergence         0.5000000E-05 Eh   :
          :   grad. convergence          0.1000000E-02 Eh/α :
          :   maximium RF displ.         1.0000000          :
          :   Hlow (freq-cutoff)         0.1000000E-01      :
          :   Hmax (freq-cutoff)         5.0000000          :
          :   S6 in model hess.         20.0000000          :
          ...................................................

generating ANC from model Hessian ...
Using Lindh-Hessian (1995)
 Shifting diagonal of input Hessian by   0.000000000000000E+000
 Lowest  eigenvalues of input Hessian
   -0.000000   -0.000000    0.000000    0.000000    0.000000    0.000000
    0.013558    0.024491    0.030890    0.045858    0.046809    0.051988
    0.063373    0.064484    0.075491    0.083523    0.111266    0.120242
 Highest eigenvalues
    1.114547    1.169137    1.253704    1.297849    1.495271    1.674480
 

........................................................................
.............................. CYCLE    1 ..............................
........................................................................
   1    -21.6414809 -0.216415E+02  0.392E-05    9.11       0.0  T
   2    -21.6414809 -0.677147E-11  0.220E-05    9.11    1309.5  T
   3    -21.6414809 -0.650147E-12  0.141E-05    9.11    2052.4  T
     SCC iter.                  ...        0 min,  0.001 sec
     gradient                   ...        0 min,  0.001 sec
 * total energy  :   -21.5119974 Eh     change       -0.1490275E-08 Eh
   gradient norm :     0.1024151 Eh/α   predicted     0.0000000E+00 (-100.00%)
   displ. norm   :     0.2403939 α      lambda       -0.1446501E-01
   maximum displ.:     0.1178735 α      in ANC's #9, #17, #1, ...

........................................................................
.............................. CYCLE    2 ..............................
........................................................................
   1    -21.6573460 -0.216573E+02  0.362E-01    7.74       0.0  T
   2    -21.6574574 -0.111398E-03  0.233E-01    7.76       1.0  T
   3    -21.6574809 -0.234545E-04  0.503E-02    7.77       1.0  T
   4    -21.6574844 -0.350184E-05  0.181E-02    7.77       1.6  T
   5    -21.6574851 -0.763637E-06  0.653E-03    7.76       4.4  T
   6    -21.6574852 -0.403402E-07  0.333E-03    7.76       8.7  T
   7    -21.6574852 -0.730838E-08  0.695E-04    7.76      41.5  T
     SCC iter.                  ...        0 min,  0.002 sec
     gradient                   ...        0 min,  0.088 sec
 * total energy  :   -21.5209353 Eh     change       -0.8937900E-02 Eh
   gradient norm :     0.0337899 Eh/α   predicted    -0.7650470E-02 ( -14.40%)
   displ. norm   :     0.1239418 α      lambda       -0.2210934E-02
   maximum displ.:     0.0749320 α      in ANC's #1, #6, #17, ...

........................................................................
.............................. CYCLE    3 ..............................
........................................................................
   1    -21.6621290 -0.216621E+02  0.230E-01    7.14       0.0  T
   2    -21.6621537 -0.247810E-04  0.147E-01    7.15       1.0  T
   3    -21.6621618 -0.808057E-05  0.209E-02    7.15       1.4  T
   4    -21.6621628 -0.949333E-06  0.778E-03    7.15       3.7  T
   5    -21.6621629 -0.733169E-07  0.398E-03    7.15       7.3  T
   6    -21.6621629 -0.129478E-07  0.149E-03    7.15      19.3  T
     SCC iter.                  ...        0 min,  0.002 sec
     gradient                   ...        0 min,  0.002 sec
 * total energy  :   -21.5220779 Eh     change       -0.1142561E-02 Eh
   gradient norm :     0.0035582 Eh/α   predicted    -0.1122447E-02 (  -1.76%)
   displ. norm   :     0.0229401 α      lambda       -0.3680547E-04
   maximum displ.:     0.0167471 α      in ANC's #1, #3, #12, ...

........................................................................
.............................. CYCLE    4 ..............................
........................................................................
   1    -21.6615917 -0.216616E+02  0.207E-02    7.09       0.0  T
   2    -21.6615920 -0.390287E-06  0.123E-02    7.09       2.4  T
   3    -21.6615921 -0.377782E-07  0.314E-03    7.09       9.2  T
   4    -21.6615921 -0.524816E-08  0.954E-04    7.09      30.3  T
   5    -21.6615921 -0.113476E-08  0.313E-04    7.09      92.2  T
     SCC iter.                  ...        0 min,  0.001 sec
     gradient                   ...        0 min,  0.001 sec
 * total energy  :   -21.5220976 Eh     change       -0.1974890E-04 Eh
   gradient norm :     0.0009280 Eh/α   predicted    -0.1841439E-04 (  -6.76%)
   displ. norm   :     0.0131193 α      lambda       -0.2405709E-05
   maximum displ.:     0.0123944 α      in ANC's #1, #3, #11, ...

........................................................................
.............................. CYCLE    5 ..............................
........................................................................
   1    -21.6613791 -0.216614E+02  0.117E-02    7.08       0.0  T
   2    -21.6613792 -0.411360E-07  0.711E-03    7.08       4.1  T
   3    -21.6613792 -0.744538E-08  0.985E-04    7.08      29.3  T
   4    -21.6613792 -0.133480E-08  0.359E-04    7.08      80.4  T
     SCC iter.                  ...        0 min,  0.001 sec
     gradient                   ...        0 min,  0.001 sec
 * total energy  :   -21.5220997 Eh     change       -0.2079252E-05 Eh
   gradient norm :     0.0003992 Eh/α   predicted    -0.1204370E-05 ( -42.08%)
   displ. norm   :     0.0094759 α      lambda       -0.8152753E-06
   maximum displ.:     0.0090749 α      in ANC's #1, #17, #19, ...

   *** GEOMETRY OPTIMIZATION CONVERGED AFTER 5 ITERATIONS ***

------------------------------------------------------------------------
 total energy gain   :        -0.0101023 Eh       -6.3393 kcal/mol
 total RMSD          :         0.0985560 a0        0.0522 Å
 total power (kW/mol):        -5.3047123 (step)  -90.3680 (real)
------------------------------------------------------------------------

 ANCopt (total)                0 d,  0 h,  0 min,  0.294 sec
 optimizer setup                ...        0 min,  0.000 sec (  0.152%)
 model hessian                  ...        0 min,  0.092 sec ( 31.507%)
 ANC generation                 ...        0 min,  0.000 sec (  0.141%)
 coordinate transformation      ...        0 min,  0.000 sec (  0.071%)
 single point calculation       ...        0 min,  0.107 sec ( 36.507%)
 optimization log               ...        0 min,  0.001 sec (  0.378%)
 hessian update                 ...        0 min,  0.090 sec ( 30.747%)
 rational function              ...        0 min,  0.000 sec (  0.142%)

================
 final structure:
================
12
 xtb: 6.2.3 (830e466)
C         0.65551739415480    1.52873055576418   -2.63520888397931
C         0.65231043135657    0.40197239521171   -1.60132096427234
C         1.77038281434115    0.64783276090119   -0.58742868887981
O         0.73688824322050    2.80945920881198   -1.99621239770308
O         0.62977164590541    2.67383717805567   -0.61177422223429
O         1.75434656374542    2.00537380581171   -0.12696236499695
H         2.75208294738627    0.49239758664675   -1.04894105980091
H         1.53438125830480    1.45442672353537   -3.28556367614171
H        -0.25322659391924    1.50411267045413   -3.24610515596995
H         1.66657432380582   -0.01282191417143    0.27996492126346
H         0.79897108263892   -0.55679929960858   -2.09360187728144
H        -0.30899011094042    0.39107832858733   -1.08264563000367
 
 Bond Distances (Angstroems)
 ---------------------------
C1-C2=1.5292         C1-O4=1.4336         C1-H8=1.0958         C1-H9=1.0953         C2-C1=1.5292         C2-C3=1.5292         
C2-H11=1.0877        C2-H12=1.0924        C3-C2=1.5292         C3-O6=1.4336         C3-H7=1.0959         C3-H10=1.0953        
O4-C1=1.4336         O4-O5=1.3952         O5-O4=1.3952         O5-O6=1.3952         O6-C3=1.4336         O6-O5=1.3952         
H7-C3=1.0959         H8-C1=1.0958         H9-C1=1.0953         H10-C3=1.0953        H11-C2=1.0877        H12-C2=1.0924        
 C  H  Rav=1.0937 sigma=0.0029  Rmin=1.0877  Rmax=1.0959     6
 C  C  Rav=1.5292 sigma=0.0000  Rmin=1.5292  Rmax=1.5292     2
 O  C  Rav=1.4336 sigma=0.0000  Rmin=1.4336  Rmax=1.4336     2
 O  O  Rav=1.3952 sigma=0.0000  Rmin=1.3952  Rmax=1.3952     2
 
 selected bond angles (degree)
 --------------------
O4-C1-C2=110.92                H8-C1-C2=110.67                H8-C1-O4=106.24                H9-C1-C2=111.03                
H9-C1-O4=108.41                H9-C1-H8=109.44                C3-C2-C1=109.16                H11-C2-C1=110.07               
H11-C2-C3=110.07               H12-C2-C1=109.28               H12-C2-C3=109.28               H12-C2-H11=108.95              
O6-C3-C2=110.92                H7-C3-C2=110.67                H7-C3-O6=106.24                H10-C3-C2=111.03               
H10-C3-O6=108.41               H10-C3-H7=109.44               O5-O4-C1=110.55                O6-O5-O4=109.24                
O5-O6-C3=110.55                
 
 selected dihedral angles (degree)
 ---------------------------------
C3-C2-C1-O4=312.65            C3-C2-C1-H8= 70.30            C3-C2-C1-H9=192.05            H11-C2-C1-O4=191.74           
H11-C2-C1-H8=309.39           H11-C2-C1-H9= 71.13           H12-C2-C1-O4= 72.12           H12-C2-C1-H8=189.77           
H12-C2-C1-H9=311.52           O6-C3-C2-C1= 47.35            O6-C3-C2-H11=168.27           O6-C3-C2-H12=287.89           
H7-C3-C2-C1=289.70            H7-C3-C2-H11= 50.62           H7-C3-C2-H12=170.23           H10-C3-C2-C1=167.96           
H10-C3-C2-H11=288.88          H10-C3-C2-H12= 48.49          O5-O4-C1-C2=352.95            O5-O4-C1-H8=232.62            
O5-O4-C1-H9=115.09            O6-O5-O4-C1= 67.17            O5-O6-C3-C2=  7.04            O5-O6-C3-H7=127.36            
O5-O6-C3-H10=244.90           C3-O6-O5-O4=292.84            
           -------------------------------------------------
          |                Final Singlepoint                |
           -------------------------------------------------

          ...................................................
          :                      SETUP                      :
          :.................................................:
          :  # basis functions                  30          :
          :  # atomic orbitals                  30          :
          :  # shells                           18          :
          :  # electrons                        36          :
          :  max. iterations                   100          :
          :  Hamiltonian                  GFN2-xTB          :
          :  restarted?                      false          :
          :  GBSA solvation                  false          :
          :  PC potential                    false          :
          :  electronic temp.          300.0000000     K    :
          :  accuracy                    1.0000000          :
          :  -> integral cutoff          0.2500000E+02      :
          :  -> integral neglect         0.1000000E-07      :
          :  -> SCF convergence          0.1000000E-05 Eh   :
          :  -> wf. convergence          0.1000000E-03 e    :
          :  Broyden damping             0.4000000          :
          ...................................................

 iter      E             dE          RMSdq      gap      omega  full diag
   1    -21.6613792 -0.216614E+02  0.976E-05    7.08       0.0  T
   2    -21.6613792 -0.154188E-10  0.578E-05    7.08     499.6  T
   3    -21.6613792 -0.295231E-11  0.294E-05    7.08     982.9  T

   *** convergence criteria satisfied after 3 iterations ***

         #    Occupation            Energy/Eh            Energy/eV
      -------------------------------------------------------------
         1        2.0000           -0.7567910             -20.5933
       ...           ...                  ...                  ...
        12        2.0000           -0.5390153             -14.6674
        13        2.0000           -0.5108802             -13.9018
        14        2.0000           -0.5066295             -13.7861
        15        2.0000           -0.5001296             -13.6092
        16        2.0000           -0.4678219             -12.7301
        17        2.0000           -0.4377113             -11.9107
        18        2.0000           -0.4240476             -11.5389 (HOMO)
        19                         -0.1637582              -4.4561 (LUMO)
        20                         -0.1075591              -2.9268
        21                          0.0163972               0.4462
        22                          0.0254649               0.6929
        23                          0.0677025               1.8423
       ...                                ...                  ...
        30                          0.2540801               6.9139
      -------------------------------------------------------------
                  HL-Gap            0.2602894 Eh            7.0828 eV
             Fermi-level           -0.2939029 Eh           -7.9975 eV

 SCC (total)                   0 d,  0 h,  0 min,  0.003 sec
 SCC setup                      ...        0 min,  0.000 sec (  7.278%)
 Dispersion                     ...        0 min,  0.000 sec (  1.401%)
 integral evaluation            ...        0 min,  0.000 sec ( 15.536%)
 zeroth order Hamiltonian       ...        0 min,  0.000 sec (  2.373%)
 iterations                     ...        0 min,  0.001 sec ( 25.251%)
 molecular gradient             ...        0 min,  0.001 sec ( 34.703%)
 printout                       ...        0 min,  0.000 sec (  6.649%)

         :::::::::::::::::::::::::::::::::::::::::::::::::::::
         ::                     SUMMARY                     ::
         :::::::::::::::::::::::::::::::::::::::::::::::::::::
         :: total energy             -21.522099687789 Eh    ::
         :: gradient norm              0.000400674761 Eh/a0 ::
         :: HOMO-LUMO gap              7.082836163827 eV    ::
         ::.................................................::
         :: SCC energy               -21.661379197693 Eh    ::
         :: -> isotropic ES            0.024926773547 Eh    ::
         :: -> anisotropic ES         -0.000708180290 Eh    ::
         :: -> anisotropic XC         -0.010615762028 Eh    ::
         :: -> dispersion             -0.006320684536 Eh    ::
         :: repulsion energy           0.139275338095 Eh    ::
         :: add. restraining           0.000000000000 Eh    ::
         :::::::::::::::::::::::::::::::::::::::::::::::::::::

           -------------------------------------------------
          |                Property Printout                |
           -------------------------------------------------

    * Orbital Energies and Occupations

         #    Occupation            Energy/Eh            Energy/eV
      -------------------------------------------------------------
         1        2.0000           -0.7567910             -20.5933
       ...           ...                  ...                  ...
         6        2.0000           -0.6300510             -17.1446
         7        2.0000           -0.6161201             -16.7655
         8        2.0000           -0.6094477             -16.5839
         9        2.0000           -0.5913003             -16.0901
        10        2.0000           -0.5544185             -15.0865
        11        2.0000           -0.5450945             -14.8328
        12        2.0000           -0.5390153             -14.6674
        13        2.0000           -0.5108802             -13.9018
        14        2.0000           -0.5066295             -13.7861
        15        2.0000           -0.5001296             -13.6092
        16        2.0000           -0.4678219             -12.7301
        17        2.0000           -0.4377113             -11.9107
        18        2.0000           -0.4240476             -11.5389 (HOMO)
        19                         -0.1637582              -4.4561 (LUMO)
        20                         -0.1075591              -2.9268
        21                          0.0163972               0.4462
        22                          0.0254649               0.6929
        23                          0.0677025               1.8423
        24                          0.1117115               3.0398
        25                          0.1117133               3.0399
        26                          0.1343575               3.6561
        27                          0.1537060               4.1826
        28                          0.2062246               5.6117
        29                          0.2100407               5.7155
        30                          0.2540801               6.9139
      -------------------------------------------------------------
                  HL-Gap            0.2602894 Eh            7.0828 eV
             Fermi-level           -0.2939029 Eh           -7.9975 eV

     #   Z        covCN         q      C6AA      α(0)
     1   6 C      3.676     0.078    19.494     6.326
     2   6 C      3.799    -0.060    21.650     6.625
     3   6 C      3.676     0.078    19.494     6.326
     4   8 O      1.793    -0.183    17.057     5.577
     5   8 O      1.895    -0.066    15.340     5.289
     6   8 O      1.793    -0.183    17.057     5.577
     7   1 H      0.924     0.056     2.243     2.342
     8   1 H      0.924     0.056     2.243     2.342
     9   1 H      0.924     0.053     2.284     2.363
    10   1 H      0.924     0.053     2.284     2.363
    11   1 H      0.925     0.051     2.308     2.376
    12   1 H      0.924     0.067     2.116     2.275

 Mol. C6AA /au·bohr⁶  :       1194.294689
 Mol. C8AA /au·bohr⁸  :      25000.131557
 Mol. α(0) /au        :         49.781681


Wiberg/Mayer (AO) data.
largest (>0.10) Wiberg bond orders for each atom
          total WBO             WBO to atom ...
     1  C   3.942        C    2 1.006    H    9 0.969    H    8 0.968    O    4 0.964
     2  C   3.995        C    3 1.006    C    1 1.006    H   12 0.974    H   11 0.974
     3  C   3.942        C    2 1.006    H   10 0.969    H    7 0.968    O    6 0.964
     4  O   2.060        O    5 0.984    C    1 0.964
     5  O   2.046        O    4 0.984    O    6 0.984
     6  O   2.060        O    5 0.984    C    3 0.964
     7  H   0.997        C    3 0.968
     8  H   0.997        C    1 0.968
     9  H   0.997        C    1 0.969
    10  H   0.997        C    3 0.969
    11  H   0.997        C    2 0.974
    12  H   0.995        C    2 0.974

molecular dipole:
                 x           y           z       tot (Debye)
 q only:       -0.023      -1.375      -0.579
   full:       -0.035      -1.558      -0.651       4.292
molecular quadrupole (traceless):
                xx          xy          yy          xz          yz          zz
 q only:        2.865      -4.470     -10.445      -1.383       1.887       7.580
  q+dip:        4.922      -4.591     -13.049      -2.733       1.745       8.127
   full:        4.200      -4.949     -12.613      -2.229       1.918       8.413

           -------------------------------------------------
          |                Geometry Summary                 |
           -------------------------------------------------

      molecular mass/u    :       90.0780670
   center of mass at/Å    :        1.0340449       1.7105469      -1.2462183
  moments of inertia/u·Å² :        0.9612034E+02   0.1056333E+03   0.1739481E+03
rotational constants/cm⁻¹ :        0.1753805E+00   0.1595863E+00   0.9691187E-01

 * 12 selected distances

     #   Z        #   Z                                     value/Å
     1   6 C      2   6 C                                 1.5292215 (max)
     2   6 C      3   6 C                                 1.5292190
     1   6 C      4   8 O                                 1.4335981
     4   8 O      5   8 O                                 1.3951833
     3   6 C      6   8 O                                 1.4335983
     5   8 O      6   8 O                                 1.3951898
     3   6 C      7   1 H                                 1.0958508
     1   6 C      8   1 H                                 1.0958486
     1   6 C      9   1 H                                 1.0952698
     3   6 C     10   1 H                                 1.0952682
     2   6 C     11   1 H                                 1.0877008 (min)
     2   6 C     12   1 H                                 1.0923559

 * 4 distinct bonds (by element types)

   Z      Z             #   av. dist./Å        max./Å        min./Å
   1 H    6 C           6     1.0937157     1.0958508     1.0877008
   6 C    6 C           2     1.5292203     1.5292215     1.5292190
   6 C    8 O           2     1.4335982     1.4335983     1.4335981
   8 O    8 O           2     1.3951865     1.3951898     1.3951833


optimized geometry written to: xtbopt.xyz


           -------------------------------------------------
          | TOTAL ENERGY              -21.522099687789 Eh   |
          | GRADIENT NORM               0.000400674761 Eh/α |
          | HOMO-LUMO GAP               7.082836163827 eV   |
           -------------------------------------------------

------------------------------------------------------------------------
 * finished run on 2020/12/23 at 21:42:34.965     
------------------------------------------------------------------------
 total:
 * wall-time:     0 d,  0 h,  0 min,  0.784 sec
 *  cpu-time:     0 d,  0 h,  0 min,  3.420 sec
 * ratio c/w:     4.359 speedup
 SCF:
 * wall-time:     0 d,  0 h,  0 min,  0.206 sec
 *  cpu-time:     0 d,  0 h,  0 min,  1.008 sec
 * ratio c/w:     4.903 speedup
 ANC optimizer:
 * wall-time:     0 d,  0 h,  0 min,  0.300 sec
 *  cpu-time:     0 d,  0 h,  0 min,  1.189 sec
 * ratio c/w:     3.965 speedup

