12
 energy: -21.565022781305 gnorm: 0.000206971219 xtb: 6.2.3 (830e466)
C         0.64655261294670    1.77990726095684   -1.24860629964234
C         0.38702690585649    0.27760346588115   -1.18023452412354
C         1.65742853794295   -0.51360174351141   -1.02233854444723
O         1.27812269897433    2.02818304481236   -2.48376416295117
O         1.58563118664340    3.41930490509654   -2.56626752396012
O         1.77168318814255   -1.50049345051658   -0.35445652126102
H         1.93430464292852    3.49691603900725   -3.46387210572422
H         1.29400504502879    2.10886293932979   -0.42567893328116
H        -0.29823351789123    2.33620594028066   -1.19575566947404
H         2.50297716675169   -0.10413581498027   -1.60437530795367
H        -0.06972912899475   -0.03548682651369   -2.12373324716380
H        -0.30086933832936    0.04642424015730   -0.36672716001753
