      -----------------------------------------------------------      
     |                   =====================                   |     
     |                           x T B                           |     
     |                   =====================                   |     
     |                         S. Grimme                         |     
     |          Mulliken Center for Theoretical Chemistry        |     
     |                    University of Bonn                     |     
      -----------------------------------------------------------      

   * xtb version 6.2.3 (830e466) compiled by 'ehlert@majestix' on 2020-03-16

   xtb is free software: you can redistribute it and/or modify it under
   the terms of the GNU Lesser General Public License as published by
   the Free Software Foundation, either version 3 of the License, or
   (at your option) any later version.
   
   xtb is distributed in the hope that it will be useful,
   but WITHOUT ANY WARRANTY; without even the implied warranty of
   MERCHANTABILITY or FITNESS FOR A PARTICULAR PURPOSE.  See the
   GNU Lesser General Public License for more details.
   
   Cite this work as:
   * S. Grimme, C. Bannwarth, P. Shushkov, J. Chem. Theory Comput., 2017,
     13, 1989-2009. DOI: 10.1021/acs.jctc.7b00118
   * C. Bannwarth, S. Ehlert and S. Grimme., J. Chem. Theory Comput., 2019,
     15, 1652-1671. DOI: 10.1021/acs.jctc.8b01176
   * P. Pracht, E. Caldeweyher, S. Ehlert, S. Grimme, ChemRxiv, 2019, preprint.
     DOI: 10.26434/chemrxiv.8326202.v1
   
   for DFT-D4:
   * E. Caldeweyher, C. Bannwarth and S. Grimme, J. Chem. Phys., 2017,
     147, 034112. DOI: 10.1063/1.4993215
   * E. Caldeweyher, S. Ehlert, A. Hansen, H. Neugebauer, S. Spicher,
     C. Bannwarth and S. Grimme, J. Chem. Phys., 2019, 150, 154122.
     DOI: 10.1063/1.5090222
   
   for sTDA-xTB:
   * S. Grimme and C. Bannwarth, J. Chem. Phys., 2016, 145, 054103.
     DOI: 10.1063/1.4959605
   
   in the mass-spec context:
   * V. Asgeirsson, C. Bauer and S. Grimme, Chem. Sci., 2017, 8, 4879.
     DOI: 10.1039/c7sc00601b
   
   for metadynamics refer to:
   * S. Grimme, J. Chem. Theory Comput., 2019, 155, 2847-2862
     DOI: 10.1021/acs.jctc.9b00143
   
   with help from (in alphabetical order)
   C. Bannwarth, F. Bohle, G. Brandenburg, E. Caldeweyher, M. Checinski,
   S. Dohm, S. Ehlert, S. Ehrlich, F. März, H. Neugebauer, J. Pisarek,
   P. Pracht, P. Shushkov, and S. Spicher.
   
 * started run on 2020/12/23 at 21:44:03.091     

           -------------------------------------------------
          |                Calculation Setup                |
           -------------------------------------------------

          program call               : xtb -c 0 -u 0 -a 1.0 --iterations 100 --opt normal --namespace reactant /scratch/bell/zhao922/YARP/paper-example/KHP-network/pp_0/xTB-folder/opt-reactant.xyz
          hostname                   : bell-fe05.rcac.purdue.edu
          calculation namespace      : reactant
          coordinate file            : /scratch/bell/zhao922/YARP/paper-example/KHP-network/pp_0/xTB-folder/opt-reactant.xyz
          omp threads                :                    32
          number of atoms            :                    12
          number of electrons        :                    36
          charge                     :                     0
          spin                       :                   0.0
          first test random number   :      0.59253341814752

           ------------------------------------------------- 
          |                 G F N 2 - x T B                 |
          | Geometry, Frequencies, Noncovalent interactions |
          |            JCTC 2019 parametrisation            |
           ------------------------------------------------- 
             k(s)              :                1.8500
             k(p)              :                2.2300
             k(d)              :                2.2300
             k(f)              :                2.0000
             kEN (H0ij)        :               -2.0000
             D4 a1             :                0.5200
             D4 a2             :                5.0000
             D4 s6             :                1.0000
             D4 s8             :                2.7000
             D4 s9             :                5.0000
             alphaj            :                2.0000

  Z AO/shell   Hii/eV     exponent
  1     Wed Apr 25 08:07:45 CEST 2018   EN: 2.200 GM2: 0.406  GM3: 0.0800  RAES: 1.40
     1s    -10.707211    1.230000
  6     Wed Apr 25 08:07:45 CEST 2018   EN: 2.550 GM2: 0.538  GM3: 0.1500  RAES: 3.00
     2s    -13.970922    2.096432
     2p    -10.063292    1.800000
  8     Wed Apr 25 08:07:45 CEST 2018   EN: 3.440 GM2: 0.452  GM3:-0.0517  RAES: 1.80
     2s    -20.229985    2.439742
     2p    -15.503117    2.137023

           ------------------------------------------------- 
          |        Self-Consistent Charge Iterations        |
           ------------------------------------------------- 
q/qsh data taken from xtbrestart
CAMM data taken from xtbrestart

          ...................................................
          :                      SETUP                      :
          :.................................................:
          :  # basis functions                  30          :
          :  # atomic orbitals                  30          :
          :  # shells                           18          :
          :  # electrons                        36          :
          :  max. iterations                   100          :
          :  Hamiltonian                  GFN2-xTB          :
          :  restarted?                       true          :
          :  GBSA solvation                  false          :
          :  PC potential                    false          :
          :  electronic temp.          300.0000000     K    :
          :  accuracy                    1.0000000          :
          :  -> integral cutoff          0.2500000E+02      :
          :  -> integral neglect         0.1000000E-07      :
          :  -> SCF convergence          0.1000000E-05 Eh   :
          :  -> wf. convergence          0.1000000E-03 e    :
          :  Broyden damping             0.4000000          :
          ...................................................

 iter      E             dE          RMSdq      gap      omega  full diag
   1    -21.5100010 -0.215100E+02  0.451E+00    3.24       0.0  T
   2    -21.5343638 -0.243628E-01  0.268E+00    2.01       1.0  T
   3    -21.5345657 -0.201957E-03  0.122E+00    2.67       1.0  T
   4    -21.5386869 -0.412119E-02  0.249E-01    2.31       1.0  T
   5    -21.5389049 -0.217973E-03  0.124E-01    2.31       1.0  T
   6    -21.5389338 -0.288786E-04  0.437E-02    2.31       1.0  T
   7    -21.5389353 -0.152199E-05  0.111E-02    2.31       2.6  T
   8    -21.5389356 -0.276689E-06  0.468E-03    2.31       6.2  T
   9    -21.5389356 -0.625548E-07  0.208E-03    2.31      13.9  T
  10    -21.5389357 -0.156144E-07  0.112E-03    2.31      25.7  T
  11    -21.5389357 -0.633359E-08  0.286E-04    2.31     101.1  T
  12    -21.5389357 -0.220844E-09  0.829E-05    2.31     348.2  T

   *** convergence criteria satisfied after 12 iterations ***

         #    Occupation            Energy/Eh            Energy/eV
      -------------------------------------------------------------
         1        2.0000           -0.7309781             -19.8909
       ...           ...                  ...                  ...
        12        2.0000           -0.5299865             -14.4217
        13        2.0000           -0.5066548             -13.7868
        14        2.0000           -0.4901125             -13.3366
        15        2.0000           -0.4746882             -12.9169
        16        2.0000           -0.4410918             -12.0027
        17        2.0000           -0.4198437             -11.4245
        18        2.0000           -0.3508502              -9.5471 (HOMO)
        19                         -0.2660006              -7.2382 (LUMO)
        20                         -0.2250864              -6.1249
        21                         -0.1621327              -4.4119
        22                          0.0395655               1.0766
        23                          0.1035864               2.8187
       ...                                ...                  ...
        30                          0.5372527              14.6194
      -------------------------------------------------------------
                  HL-Gap            0.0848495 Eh            2.3089 eV
             Fermi-level           -0.3084254 Eh           -8.3927 eV

 SCC (total)                   0 d,  0 h,  0 min,  0.296 sec
 SCC setup                      ...        0 min,  0.000 sec (  0.040%)
 Dispersion                     ...        0 min,  0.000 sec (  0.020%)
 integral evaluation            ...        0 min,  0.001 sec (  0.219%)
 zeroth order Hamiltonian       ...        0 min,  0.000 sec (  0.022%)
 iterations                     ...        0 min,  0.293 sec ( 99.225%)
 molecular gradient             ...        0 min,  0.001 sec (  0.384%)
 printout                       ...        0 min,  0.000 sec (  0.026%)

         :::::::::::::::::::::::::::::::::::::::::::::::::::::
         ::                     SUMMARY                     ::
         :::::::::::::::::::::::::::::::::::::::::::::::::::::
         :: total energy             -21.375919277801 Eh    ::
         :: gradient norm              0.140803979789 Eh/a0 ::
         :: HOMO-LUMO gap              2.308873294242 eV    ::
         ::.................................................::
         :: SCC energy               -21.538935659027 Eh    ::
         :: -> isotropic ES            0.063734905847 Eh    ::
         :: -> anisotropic ES         -0.005908450447 Eh    ::
         :: -> anisotropic XC         -0.002746808086 Eh    ::
         :: -> dispersion             -0.005788615417 Eh    ::
         :: repulsion energy           0.163011136696 Eh    ::
         :: add. restraining           0.000000000000 Eh    ::
         :::::::::::::::::::::::::::::::::::::::::::::::::::::

      ----------------------------------------------------------- 
     |                   =====================                   |
     |                        A N C O P T                        |
     |                   =====================                   |
     |               Approximate Normal Coordinate               |
     |                Rational Function Optimizer                |
      ----------------------------------------------------------- 

          ...................................................
          :                      SETUP                      :
          :.................................................:
          :   optimization level            normal          :
          :   max. optcycles                   200          :
          :   ANC micro-cycles                  20          :
          :   degrees of freedom                30          :
          :.................................................:
          :   RF solver                   davidson          :
          :   write xtbopt.log                true          :
          :   linear?                        false          :
          :   energy convergence         0.5000000E-05 Eh   :
          :   grad. convergence          0.1000000E-02 Eh/α :
          :   maximium RF displ.         1.0000000          :
          :   Hlow (freq-cutoff)         0.1000000E-01      :
          :   Hmax (freq-cutoff)         5.0000000          :
          :   S6 in model hess.         20.0000000          :
          ...................................................

generating ANC from model Hessian ...
Using Lindh-Hessian (1995)
 Shifting diagonal of input Hessian by   5.228983188092925E-003
 Lowest  eigenvalues of input Hessian
   -0.000000   -0.000000   -0.000000   -0.000000    0.000000    0.000000
    0.010000    0.013612    0.015873    0.023245    0.028824    0.039681
    0.045987    0.060903    0.066063    0.068648    0.092998    0.107200
 Highest eigenvalues
    1.080696    1.244722    1.331077    1.390593    1.393244    2.111194
 

........................................................................
.............................. CYCLE    1 ..............................
........................................................................
   1    -21.5389357 -0.215389E+02  0.184E-05    2.31       0.0  T
   2    -21.5389357 -0.309086E-12  0.108E-05    2.31    2684.1  T
   3    -21.5389357 -0.675016E-13  0.410E-06    2.31    7045.3  T
     SCC iter.                  ...        0 min,  0.001 sec
     gradient                   ...        0 min,  0.001 sec
 * total energy  :   -21.3759193 Eh     change       -0.1852914E-08 Eh
   gradient norm :     0.1408041 Eh/α   predicted     0.0000000E+00 (-100.00%)
   displ. norm   :     0.5720822 α      lambda       -0.5143507E-01
   maximum displ.:     0.2382063 α      in ANC's #7, #13, #5, ...

........................................................................
.............................. CYCLE    2 ..............................
........................................................................
   1    -21.5726144 -0.215726E+02  0.157E+00    2.73       0.0  T
   2    -21.5775184 -0.490403E-02  0.771E-01    3.14       1.0  T
   3    -21.5784958 -0.977343E-03  0.488E-01    2.86       1.0  T
   4    -21.5790631 -0.567374E-03  0.787E-02    2.94       1.0  T
   5    -21.5790788 -0.156706E-04  0.239E-02    2.95       1.2  T
   6    -21.5790824 -0.356657E-05  0.663E-03    2.95       4.4  T
   7    -21.5790824 -0.206556E-07  0.193E-03    2.95      15.0  T
   8    -21.5790824 -0.310142E-08  0.588E-04    2.95      49.1  T
     SCC iter.                  ...        0 min,  0.003 sec
     gradient                   ...        0 min,  0.001 sec
 * total energy  :   -21.4240913 Eh     change       -0.4817203E-01 Eh
   gradient norm :     0.1110458 Eh/α   predicted    -0.3413433E-01 ( -29.14%)
   displ. norm   :     0.8901124 α      lambda       -0.7539666E-01
   maximum displ.:     0.3864903 α      in ANC's #5, #13, #12, ...

........................................................................
.............................. CYCLE    3 ..............................
........................................................................
   1    -21.6126002 -0.216126E+02  0.205E+00    3.50       0.0  T
   2    -21.6194743 -0.687413E-02  0.102E+00    3.75       1.0  T
   3    -21.6203370 -0.862708E-03  0.635E-01    3.48       1.0  T
   4    -21.6215384 -0.120136E-02  0.112E-01    3.58       1.0  T
   5    -21.6215573 -0.188646E-04  0.329E-02    3.58       1.0  T
   6    -21.6215640 -0.671306E-05  0.111E-02    3.58       2.6  T
   7    -21.6215641 -0.770490E-07  0.305E-03    3.58       9.5  T
   8    -21.6215641 -0.152251E-07  0.122E-03    3.58      23.7  T
     SCC iter.                  ...        0 min,  0.003 sec
     gradient                   ...        0 min,  0.091 sec
 * total energy  :   -21.4731211 Eh     change       -0.4902980E-01 Eh
   gradient norm :     0.1452156 Eh/α   predicted    -0.6756666E-01 (  37.81%)
   displ. norm   :     0.4276501 α      lambda       -0.2373470E-01
   maximum displ.:     0.1843419 α      in ANC's #5, #16, #1, ...

........................................................................
.............................. CYCLE    4 ..............................
........................................................................
   1    -21.6416976 -0.216417E+02  0.722E-01    3.65       0.0  T
   2    -21.6419527 -0.255106E-03  0.430E-01    3.66       1.0  T
   3    -21.6419027  0.499377E-04  0.158E-01    3.60       1.0  T
   4    -21.6420221 -0.119390E-03  0.375E-02    3.63       1.0  T
   5    -21.6420260 -0.387886E-05  0.149E-02    3.63       1.9  T
   6    -21.6420266 -0.605558E-06  0.802E-03    3.63       3.6  T
   7    -21.6420268 -0.141722E-06  0.269E-03    3.63      10.7  T
   8    -21.6420268 -0.239536E-07  0.148E-03    3.63      19.4  T
     SCC iter.                  ...        0 min,  0.003 sec
     gradient                   ...        0 min,  0.001 sec
 * total energy  :   -21.4928950 Eh     change       -0.1977386E-01 Eh
   gradient norm :     0.1392519 Eh/α   predicted    -0.1403771E-01 ( -29.01%)
   displ. norm   :     0.5519138 α      lambda       -0.4111075E-01
   maximum displ.:     0.2643262 α      in ANC's #16, #5, #22, ...

........................................................................
.............................. CYCLE    5 ..............................
........................................................................
   1    -21.6807779 -0.216808E+02  0.772E-01    3.68       0.0  T
   2    -21.6809982 -0.220336E-03  0.491E-01    3.65       1.0  T
   3    -21.6809524  0.457909E-04  0.143E-01    3.68       1.0  T
   4    -21.6810780 -0.125599E-03  0.324E-02    3.65       1.0  T
   5    -21.6810797 -0.169186E-05  0.187E-02    3.66       1.5  T
   6    -21.6810808 -0.103524E-05  0.766E-03    3.66       3.8  T
   7    -21.6810809 -0.180612E-06  0.308E-03    3.66       9.4  T
   8    -21.6810810 -0.369619E-07  0.128E-03    3.66      22.5  T
     SCC iter.                  ...        0 min,  0.093 sec
     gradient                   ...        0 min,  0.001 sec
 * total energy  :   -21.5248853 Eh     change       -0.3199031E-01 Eh
   gradient norm :     0.0875613 Eh/α   predicted    -0.2681674E-01 ( -16.17%)
   displ. norm   :     0.5522815 α      lambda       -0.3166015E-01
   maximum displ.:     0.2395242 α      in ANC's #16, #22, #5, ...

........................................................................
.............................. CYCLE    6 ..............................
........................................................................
   1    -21.7132613 -0.217133E+02  0.568E-01    3.73       0.0  T
   2    -21.7135776 -0.316287E-03  0.355E-01    3.69       1.0  T
   3    -21.7135737  0.385993E-05  0.160E-01    3.74       1.0  T
   4    -21.7136544 -0.807276E-04  0.254E-02    3.71       1.1  T
   5    -21.7136567 -0.230085E-05  0.121E-02    3.72       2.4  T
   6    -21.7136571 -0.319963E-06  0.470E-03    3.72       6.1  T
   7    -21.7136571 -0.669791E-07  0.176E-03    3.72      16.4  T
     SCC iter.                  ...        0 min,  0.002 sec
     gradient                   ...        0 min,  0.001 sec
 * total energy  :   -21.5472962 Eh     change       -0.2241088E-01 Eh
   gradient norm :     0.0430947 Eh/α   predicted    -0.2065848E-01 (  -7.82%)
   displ. norm   :     0.4457206 α      lambda       -0.1376561E-01
   maximum displ.:     0.1661023 α      in ANC's #13, #16, #9, ...

........................................................................
.............................. CYCLE    7 ..............................
........................................................................
   1    -21.7284268 -0.217284E+02  0.459E-01    3.75       0.0  T
   2    -21.7285484 -0.121560E-03  0.283E-01    3.73       1.0  T
   3    -21.7285228  0.255806E-04  0.118E-01    3.77       1.0  T
   4    -21.7285841 -0.612803E-04  0.215E-02    3.74       1.3  T
   5    -21.7285852 -0.114994E-05  0.990E-03    3.75       2.9  T
   6    -21.7285854 -0.174572E-06  0.479E-03    3.75       6.0  T
   7    -21.7285855 -0.599355E-07  0.148E-03    3.75      19.5  T
     SCC iter.                  ...        0 min,  0.092 sec
     gradient                   ...        0 min,  0.002 sec
 * total energy  :   -21.5561880 Eh     change       -0.8891853E-02 Eh
   gradient norm :     0.0311478 Eh/α   predicted    -0.8250201E-02 (  -7.22%)
   displ. norm   :     0.4696441 α      lambda       -0.6793826E-02
   maximum displ.:     0.2189794 α      in ANC's #2, #5, #9, ...

........................................................................
.............................. CYCLE    8 ..............................
........................................................................
   1    -21.7200617 -0.217201E+02  0.491E-01    3.70       0.0  T
   2    -21.7201591 -0.974269E-04  0.291E-01    3.70       1.0  T
   3    -21.7201599 -0.801712E-06  0.693E-02    3.71       1.0  T
   4    -21.7201743 -0.143388E-04  0.191E-02    3.71       1.5  T
   5    -21.7201751 -0.816692E-06  0.927E-03    3.71       3.1  T
   6    -21.7201753 -0.230175E-06  0.294E-03    3.71       9.8  T
   7    -21.7201753 -0.965576E-08  0.100E-03    3.71      28.8  T
     SCC iter.                  ...        0 min,  0.003 sec
     gradient                   ...        0 min,  0.002 sec
 * total energy  :   -21.5572904 Eh     change       -0.1102399E-02 Eh
   gradient norm :     0.0541213 Eh/α   predicted    -0.4146163E-02 ( 276.10%)
   displ. norm   :     0.1782260 α      lambda       -0.5714374E-02
   maximum displ.:     0.1026637 α      in ANC's #7, #12, #4, ...

........................................................................
.............................. CYCLE    9 ..............................
........................................................................
   1    -21.7333538 -0.217334E+02  0.202E-01    3.74       0.0  T
   2    -21.7333950 -0.412020E-04  0.117E-01    3.74       1.0  T
   3    -21.7333974 -0.238345E-05  0.420E-02    3.74       1.0  T
   4    -21.7333992 -0.173978E-05  0.830E-03    3.74       3.5  T
   5    -21.7333992 -0.961386E-07  0.313E-03    3.74       9.2  T
   6    -21.7333993 -0.264963E-07  0.161E-03    3.74      17.9  T
     SCC iter.                  ...        0 min,  0.003 sec
     gradient                   ...        0 min,  0.002 sec
 * total energy  :   -21.5604965 Eh     change       -0.3206095E-02 Eh
   gradient norm :     0.0183738 Eh/α   predicted    -0.2947943E-02 (  -8.05%)
   displ. norm   :     0.1614555 α      lambda       -0.1184667E-02
   maximum displ.:     0.0851250 α      in ANC's #5, #6, #3, ...

........................................................................
.............................. CYCLE   10 ..............................
........................................................................
   1    -21.7323343 -0.217323E+02  0.327E-01    3.73       0.0  T
   2    -21.7323532 -0.188516E-04  0.208E-01    3.74       1.0  T
   3    -21.7323515  0.164445E-05  0.393E-02    3.72       1.0  T
   4    -21.7323634 -0.119028E-04  0.102E-02    3.73       2.8  T
   5    -21.7323636 -0.130939E-06  0.492E-03    3.73       5.9  T
   6    -21.7323636 -0.382594E-07  0.171E-03    3.73      16.9  T
   7    -21.7323636 -0.892358E-08  0.928E-04    3.73      31.1  T
     SCC iter.                  ...        0 min,  0.002 sec
     gradient                   ...        0 min,  0.091 sec
 * total energy  :   -21.5610382 Eh     change       -0.5417090E-03 Eh
   gradient norm :     0.0161039 Eh/α   predicted    -0.6077717E-03 (  12.20%)
   displ. norm   :     0.1854368 α      lambda       -0.8267384E-03
   maximum displ.:     0.1251454 α      in ANC's #1, #7, #2, ...

........................................................................
.............................. CYCLE   11 ..............................
........................................................................
   1    -21.7335700 -0.217336E+02  0.184E-01    3.71       0.0  T
   2    -21.7335745 -0.448001E-05  0.113E-01    3.71       1.0  T
   3    -21.7335736  0.907584E-06  0.200E-02    3.71       1.4  T
   4    -21.7335768 -0.324425E-05  0.627E-03    3.71       4.6  T
   5    -21.7335768 -0.525641E-07  0.252E-03    3.71      11.5  T
   6    -21.7335769 -0.120179E-07  0.109E-03    3.71      26.6  T
     SCC iter.                  ...        0 min,  0.002 sec
     gradient                   ...        0 min,  0.002 sec
 * total energy  :   -21.5615394 Eh     change       -0.5011597E-03 Eh
   gradient norm :     0.0078627 Eh/α   predicted    -0.4275837E-03 ( -14.68%)
   displ. norm   :     0.1538011 α      lambda       -0.3484196E-03
   maximum displ.:     0.0851787 α      in ANC's #1, #2, #4, ...

........................................................................
.............................. CYCLE   12 ..............................
........................................................................
   1    -21.7335959 -0.217336E+02  0.165E-01    3.70       0.0  T
   2    -21.7335984 -0.244180E-05  0.101E-01    3.70       1.0  T
   3    -21.7335986 -0.254424E-06  0.118E-02    3.70       2.5  T
   4    -21.7335996 -0.940142E-06  0.447E-03    3.70       6.5  T
   5    -21.7335996 -0.230744E-07  0.210E-03    3.70      13.8  T
   6    -21.7335996 -0.554239E-08  0.663E-04    3.70      43.6  T
     SCC iter.                  ...        0 min,  0.092 sec
     gradient                   ...        0 min,  0.002 sec
 * total energy  :   -21.5618118 Eh     change       -0.2723940E-03 Eh
   gradient norm :     0.0085552 Eh/α   predicted    -0.1783305E-03 ( -34.53%)
   displ. norm   :     0.3756099 α      lambda       -0.6851855E-03
   maximum displ.:     0.2237210 α      in ANC's #1, #3, #2, ...

........................................................................
.............................. CYCLE   13 ..............................
........................................................................
   1    -21.7330213 -0.217330E+02  0.401E-01    3.67       0.0  T
   2    -21.7330356 -0.142738E-04  0.247E-01    3.68       1.0  T
   3    -21.7330384 -0.275682E-05  0.267E-02    3.68       1.1  T
   4    -21.7330430 -0.464700E-05  0.108E-02    3.68       2.7  T
   5    -21.7330432 -0.140689E-06  0.547E-03    3.68       5.3  T
   6    -21.7330432 -0.469819E-07  0.153E-03    3.68      18.8  T
   7    -21.7330432 -0.567263E-08  0.529E-04    3.68      54.6  T
     SCC iter.                  ...        0 min,  0.003 sec
     gradient                   ...        0 min,  0.002 sec
 * total energy  :   -21.5623055 Eh     change       -0.4937178E-03 Eh
   gradient norm :     0.0138183 Eh/α   predicted    -0.3909271E-03 ( -20.82%)
   displ. norm   :     0.3557524 α      lambda       -0.5847177E-03
   maximum displ.:     0.2130772 α      in ANC's #1, #3, #2, ...

........................................................................
.............................. CYCLE   14 ..............................
........................................................................
   1    -21.7326022 -0.217326E+02  0.360E-01    3.67       0.0  T
   2    -21.7326134 -0.112529E-04  0.221E-01    3.68       1.0  T
   3    -21.7326181 -0.462366E-05  0.158E-02    3.68       1.8  T
   4    -21.7326187 -0.693568E-06  0.863E-03    3.68       3.3  T
   5    -21.7326188 -0.661356E-07  0.424E-03    3.68       6.8  T
   6    -21.7326189 -0.504222E-07  0.150E-03    3.68      19.3  T
   7    -21.7326189 -0.699675E-08  0.492E-04    3.68      58.7  T
     SCC iter.                  ...        0 min,  0.003 sec
     gradient                   ...        0 min,  0.002 sec
 * total energy  :   -21.5627183 Eh     change       -0.4128292E-03 Eh
   gradient norm :     0.0149102 Eh/α   predicted    -0.3293639E-03 ( -20.22%)
   displ. norm   :     0.2507613 α      lambda       -0.5320915E-03
   maximum displ.:     0.1615892 α      in ANC's #1, #3, #2, ...

........................................................................
.............................. CYCLE   15 ..............................
........................................................................
   1    -21.7351659 -0.217352E+02  0.231E-01    3.69       0.0  T
   2    -21.7351703 -0.442281E-05  0.141E-01    3.69       1.0  T
   3    -21.7351719 -0.153507E-05  0.104E-02    3.69       2.8  T
   4    -21.7351722 -0.344729E-06  0.545E-03    3.69       5.3  T
   5    -21.7351723 -0.462713E-07  0.287E-03    3.69      10.1  T
   6    -21.7351723 -0.151290E-07  0.918E-04    3.69      31.4  T
     SCC iter.                  ...        0 min,  0.002 sec
     gradient                   ...        0 min,  0.094 sec
 * total energy  :   -21.5630842 Eh     change       -0.3658973E-03 Eh
   gradient norm :     0.0105461 Eh/α   predicted    -0.2827722E-03 ( -22.72%)
   displ. norm   :     0.3279486 α      lambda       -0.4409029E-03
   maximum displ.:     0.2066074 α      in ANC's #1, #3, #2, ...

........................................................................
.............................. CYCLE   16 ..............................
........................................................................
   1    -21.7313087 -0.217313E+02  0.341E-01    3.62       0.0  T
   2    -21.7313274 -0.186817E-04  0.208E-01    3.64       1.0  T
   3    -21.7313310 -0.363915E-05  0.218E-02    3.63       1.3  T
   4    -21.7313329 -0.185057E-05  0.908E-03    3.64       3.2  T
   5    -21.7313330 -0.130746E-06  0.531E-03    3.63       5.4  T
   6    -21.7313331 -0.596928E-07  0.197E-03    3.63      14.7  T
   7    -21.7313331 -0.794476E-08  0.338E-04    3.63      85.4  T
     SCC iter.                  ...        0 min,  0.002 sec
     gradient                   ...        0 min,  0.001 sec
 * total energy  :   -21.5632319 Eh     change       -0.1477199E-03 Eh
   gradient norm :     0.0207007 Eh/α   predicted    -0.2441616E-03 (  65.29%)
   displ. norm   :     0.0982961 α      lambda       -0.5836528E-03
   maximum displ.:     0.0423045 α      in ANC's #3, #1, #19, ...

........................................................................
.............................. CYCLE   17 ..............................
........................................................................
   1    -21.7380893 -0.217381E+02  0.989E-02    3.73       0.0  T
   2    -21.7381016 -0.123541E-04  0.598E-02    3.72       1.0  T
   3    -21.7381019 -0.296197E-06  0.231E-02    3.72       1.3  T
   4    -21.7381028 -0.903520E-06  0.487E-03    3.72       5.9  T
   5    -21.7381030 -0.110331E-06  0.250E-03    3.72      11.6  T
     SCC iter.                  ...        0 min,  0.002 sec
     gradient                   ...        0 min,  0.002 sec
 * total energy  :   -21.5633721 Eh     change       -0.1401568E-03 Eh
   gradient norm :     0.0123691 Eh/α   predicted    -0.2946464E-03 ( 110.23%)
   displ. norm   :     0.1119288 α      lambda       -0.3086328E-03
   maximum displ.:     0.0904042 α      in ANC's #1, #3, #5, ...

........................................................................
.............................. CYCLE   18 ..............................
........................................................................
   1    -21.7363608 -0.217364E+02  0.123E-01    3.68       0.0  T
   2    -21.7363648 -0.404157E-05  0.748E-02    3.69       1.0  T
   3    -21.7363643  0.529480E-06  0.178E-02    3.68       1.6  T
   4    -21.7363663 -0.201640E-05  0.545E-03    3.69       5.3  T
   5    -21.7363664 -0.414895E-07  0.287E-03    3.69      10.1  T
   6    -21.7363664 -0.137461E-07  0.109E-03    3.69      26.5  T
     SCC iter.                  ...        0 min,  0.002 sec
     gradient                   ...        0 min,  0.002 sec
 * total energy  :   -21.5634777 Eh     change       -0.1055725E-03 Eh
   gradient norm :     0.0086476 Eh/α   predicted    -0.1562505E-03 (  48.00%)
   displ. norm   :     0.0902799 α      lambda       -0.2107108E-03
   maximum displ.:     0.0539335 α      in ANC's #2, #1, #4, ...

........................................................................
.............................. CYCLE   19 ..............................
........................................................................
   1    -21.7341362 -0.217341E+02  0.138E-01    3.67       0.0  T
   2    -21.7341402 -0.398741E-05  0.868E-02    3.67       1.0  T
   3    -21.7341420 -0.181728E-05  0.968E-03    3.67       3.0  T
   4    -21.7341422 -0.164035E-06  0.495E-03    3.67       5.8  T
   5    -21.7341422 -0.670351E-07  0.239E-03    3.67      12.1  T
   6    -21.7341422 -0.851995E-08  0.840E-04    3.67      34.4  T
     SCC iter.                  ...        0 min,  0.002 sec
     gradient                   ...        0 min,  0.002 sec
 * total energy  :   -21.5635534 Eh     change       -0.7575170E-04 Eh
   gradient norm :     0.0094925 Eh/α   predicted    -0.1062137E-03 (  40.21%)
   displ. norm   :     0.0333368 α      lambda       -0.1032875E-03
   maximum displ.:     0.0248590 α      in ANC's #1, #18, #19, ...

........................................................................
.............................. CYCLE   20 ..............................
........................................................................
   1    -21.7361551 -0.217362E+02  0.570E-02    3.67       0.0  T
   2    -21.7361560 -0.870686E-06  0.360E-02    3.67       1.0  T
   3    -21.7361561 -0.128259E-06  0.558E-03    3.68       5.2  T
   4    -21.7361562 -0.138034E-06  0.222E-03    3.68      13.0  T
   5    -21.7361563 -0.245479E-07  0.869E-04    3.68      33.2  T
     SCC iter.                  ...        0 min,  0.002 sec
     gradient                   ...        0 min,  0.092 sec
 * total energy  :   -21.5636112 Eh     change       -0.5774645E-04 Eh
   gradient norm :     0.0069340 Eh/α   predicted    -0.5170276E-04 ( -10.47%)
   displ. norm   :     0.1740322 α      lambda       -0.1250088E-03
   maximum displ.:     0.1240004 α      in ANC's #1, #3, #2, ...
 * RMSD in coord.:     1.0636032 α      energy gain  -0.1876919E+00 Eh

generating ANC from model Hessian ...
Using Lindh-Hessian (1995)
 Shifting diagonal of input Hessian by   6.275225104415971E-003
 Lowest  eigenvalues of input Hessian
   -0.000000   -0.000000   -0.000000    0.000000    0.000000    0.000000
    0.010000    0.013321    0.018325    0.022736    0.028047    0.031166
    0.054175    0.060014    0.062792    0.067169    0.078654    0.090026
 Highest eigenvalues
    1.155385    1.217947    1.288331    1.343040    1.468383    2.215498
 

........................................................................
.............................. CYCLE   21 ..............................
........................................................................
   1    -21.7364753 -0.217365E+02  0.160E-01    3.70       0.0  T
   2    -21.7364769 -0.164520E-05  0.978E-02    3.70       1.0  T
   3    -21.7364777 -0.789504E-06  0.547E-03    3.70       5.3  T
   4    -21.7364778 -0.351290E-07  0.283E-03    3.70      10.2  T
   5    -21.7364778 -0.566846E-08  0.120E-03    3.70      24.1  T
   6    -21.7364778 -0.255243E-08  0.331E-04    3.70      87.1  T
   7    -21.7364778 -0.367127E-09  0.161E-04    3.70     179.5  T
     SCC iter.                  ...        0 min,  0.002 sec
     gradient                   ...        0 min,  0.002 sec
 * total energy  :   -21.5636772 Eh     change       -0.6602121E-04 Eh
   gradient norm :     0.0037211 Eh/α   predicted     0.0000000E+00 (-100.00%)
   displ. norm   :     0.0693919 α      lambda       -0.1225139E-03
   maximum displ.:     0.0549849 α      in ANC's #3, #4, #6, ...

........................................................................
.............................. CYCLE   22 ..............................
........................................................................
   1    -21.7369246 -0.217369E+02  0.148E-01    3.69       0.0  T
   2    -21.7369278 -0.328195E-05  0.950E-02    3.69       1.0  T
   3    -21.7369301 -0.230589E-05  0.557E-03    3.69       5.2  T
   4    -21.7369302 -0.310298E-07  0.303E-03    3.69       9.5  T
   5    -21.7369302 -0.702709E-08  0.744E-04    3.69      38.8  T
   6    -21.7369302 -0.156710E-08  0.423E-04    3.69      68.2  T
     SCC iter.                  ...        0 min,  0.002 sec
     gradient                   ...        0 min,  0.002 sec
 * total energy  :   -21.5637858 Eh     change       -0.1086157E-03 Eh
   gradient norm :     0.0023174 Eh/α   predicted    -0.6155123E-04 ( -43.33%)
   displ. norm   :     0.4009899 α      lambda       -0.5797972E-03
   maximum displ.:     0.3248863 α      in ANC's #3, #4, #1, ...

........................................................................
.............................. CYCLE   23 ..............................
........................................................................
   1    -21.7335781 -0.217336E+02  0.882E-01    3.64       0.0  T
   2    -21.7337054 -0.127267E-03  0.567E-01    3.65       1.0  T
   3    -21.7337901 -0.846576E-04  0.379E-02    3.65       1.0  T
   4    -21.7337930 -0.289635E-05  0.214E-02    3.65       1.4  T
   5    -21.7337933 -0.305895E-06  0.829E-03    3.65       3.5  T
   6    -21.7337935 -0.253533E-06  0.330E-03    3.65       8.7  T
   7    -21.7337936 -0.383402E-07  0.146E-03    3.65      19.8  T
   8    -21.7337936 -0.708377E-08  0.815E-04    3.65      35.4  T
   9    -21.7337936 -0.300315E-08  0.234E-04    3.65     123.2  T
     SCC iter.                  ...        0 min,  0.003 sec
     gradient                   ...        0 min,  0.093 sec
 * total energy  :   -21.5638225 Eh     change       -0.3672513E-04 Eh
   gradient norm :     0.0265466 Eh/α   predicted    -0.3365079E-03 ( 816.29%)
   displ. norm   :     0.1676500 α      lambda       -0.7631295E-03
   maximum displ.:     0.1443563 α      in ANC's #3, #6, #7, ...

........................................................................
.............................. CYCLE   24 ..............................
........................................................................
   1    -21.7374961 -0.217375E+02  0.389E-01    3.70       0.0  T
   2    -21.7375276 -0.315284E-04  0.250E-01    3.69       1.0  T
   3    -21.7375449 -0.172761E-04  0.213E-02    3.69       1.4  T
   4    -21.7375459 -0.105864E-05  0.106E-02    3.69       2.7  T
   5    -21.7375460 -0.978577E-07  0.494E-03    3.69       5.8  T
   6    -21.7375461 -0.550811E-07  0.210E-03    3.69      13.7  T
     SCC iter.                  ...        0 min,  0.002 sec
     gradient                   ...        0 min,  0.002 sec
 * total energy  :   -21.5640765 Eh     change       -0.2539492E-03 Eh
   gradient norm :     0.0042059 Eh/α   predicted    -0.3922904E-03 (  54.48%)
   displ. norm   :     0.0965362 α      lambda       -0.1225615E-03
   maximum displ.:     0.0690253 α      in ANC's #3, #4, #1, ...

........................................................................
.............................. CYCLE   25 ..............................
........................................................................
   1    -21.7373000 -0.217373E+02  0.201E-01    3.69       0.0  T
   2    -21.7373060 -0.603856E-05  0.129E-01    3.69       1.0  T
   3    -21.7373102 -0.421016E-05  0.796E-03    3.69       3.6  T
   4    -21.7373103 -0.100288E-06  0.458E-03    3.69       6.3  T
   5    -21.7373103 -0.145784E-07  0.921E-04    3.69      31.3  T
   6    -21.7373103 -0.230203E-08  0.488E-04    3.69      59.1  T
     SCC iter.                  ...        0 min,  0.092 sec
     gradient                   ...        0 min,  0.001 sec
 * total energy  :   -21.5641891 Eh     change       -0.1126182E-03 Eh
   gradient norm :     0.0050832 Eh/α   predicted    -0.6185258E-04 ( -45.08%)
   displ. norm   :     0.4783422 α      lambda       -0.5323882E-03
   maximum displ.:     0.3352858 α      in ANC's #3, #4, #2, ...

........................................................................
.............................. CYCLE   26 ..............................
........................................................................
   1    -21.7304448 -0.217304E+02  0.948E-01    3.62       0.0  T
   2    -21.7305914 -0.146690E-03  0.607E-01    3.63       1.0  T
   3    -21.7306869 -0.954341E-04  0.448E-02    3.63       1.0  T
   4    -21.7306927 -0.578081E-05  0.249E-02    3.64       1.2  T
   5    -21.7306931 -0.462034E-06  0.103E-02    3.63       2.8  T
   6    -21.7306935 -0.387912E-06  0.347E-03    3.63       8.3  T
   7    -21.7306935 -0.399985E-07  0.162E-03    3.63      17.8  T
   8    -21.7306936 -0.829975E-08  0.873E-04    3.63      33.1  T
     SCC iter.                  ...        0 min,  0.003 sec
     gradient                   ...        0 min,  0.001 sec
 * total energy  :   -21.5639592 Eh     change        0.2299052E-03 Eh
   gradient norm :     0.0346593 Eh/α   predicted    -0.3270891E-03 (-242.27%)
   displ. norm   :     0.2653989 α      lambda       -0.1414544E-02
   maximum displ.:     0.1908407 α      in ANC's #3, #4, #2, ...

........................................................................
.............................. CYCLE   27 ..............................
........................................................................
   1    -21.7374923 -0.217375E+02  0.539E-01    3.70       0.0  T
   2    -21.7375459 -0.535862E-04  0.345E-01    3.69       1.0  T
   3    -21.7375757 -0.298731E-04  0.306E-02    3.69       1.0  T
   4    -21.7375791 -0.332157E-05  0.154E-02    3.69       1.9  T
   5    -21.7375793 -0.261767E-06  0.740E-03    3.69       3.9  T
   6    -21.7375795 -0.136260E-06  0.231E-03    3.69      12.5  T
   7    -21.7375795 -0.169684E-07  0.102E-03    3.69      28.4  T
     SCC iter.                  ...        0 min,  0.004 sec
     gradient                   ...        0 min,  0.001 sec
 * total energy  :   -21.5644173 Eh     change       -0.4581125E-03 Eh
   gradient norm :     0.0048321 Eh/α   predicted    -0.7570932E-03 (  65.26%)
   displ. norm   :     0.0730252 α      lambda       -0.1076443E-03
   maximum displ.:     0.0402685 α      in ANC's #3, #2, #4, ...

........................................................................
.............................. CYCLE   28 ..............................
........................................................................
   1    -21.7373711 -0.217374E+02  0.124E-01    3.70       0.0  T
   2    -21.7373736 -0.250629E-05  0.795E-02    3.70       1.0  T
   3    -21.7373752 -0.162924E-05  0.536E-03    3.70       5.4  T
   4    -21.7373753 -0.506819E-07  0.299E-03    3.70       9.7  T
   5    -21.7373753 -0.139387E-07  0.126E-03    3.70      22.9  T
     SCC iter.                  ...        0 min,  0.002 sec
     gradient                   ...        0 min,  0.091 sec
 * total energy  :   -21.5644884 Eh     change       -0.7110301E-04 Eh
   gradient norm :     0.0031299 Eh/α   predicted    -0.5410838E-04 ( -23.90%)
   displ. norm   :     0.2219478 α      lambda       -0.1843456E-03
   maximum displ.:     0.1467697 α      in ANC's #3, #4, #2, ...

........................................................................
.............................. CYCLE   29 ..............................
........................................................................
   1    -21.7353984 -0.217354E+02  0.411E-01    3.68       0.0  T
   2    -21.7354246 -0.261940E-04  0.262E-01    3.68       1.0  T
   3    -21.7354427 -0.181270E-04  0.182E-02    3.68       1.6  T
   4    -21.7354433 -0.617161E-06  0.106E-02    3.68       2.7  T
   5    -21.7354434 -0.779722E-07  0.324E-03    3.68       8.9  T
   6    -21.7354435 -0.468086E-07  0.128E-03    3.68      22.5  T
   7    -21.7354435 -0.519296E-08  0.648E-04    3.68      44.6  T
   8    -21.7354435 -0.125904E-08  0.293E-04    3.68      98.4  T
     SCC iter.                  ...        0 min,  0.003 sec
     gradient                   ...        0 min,  0.002 sec
 * total energy  :   -21.5645921 Eh     change       -0.1037216E-03 Eh
   gradient norm :     0.0110895 Eh/α   predicted    -0.9671320E-04 (  -6.76%)
   displ. norm   :     0.0457214 α      lambda       -0.9228065E-04
   maximum displ.:     0.0309659 α      in ANC's #3, #1, #20, ...

........................................................................
.............................. CYCLE   30 ..............................
........................................................................
   1    -21.7364923 -0.217365E+02  0.967E-02    3.70       0.0  T
   2    -21.7364938 -0.154034E-05  0.619E-02    3.69       1.0  T
   3    -21.7364946 -0.717525E-06  0.728E-03    3.70       4.0  T
   4    -21.7364949 -0.383199E-06  0.265E-03    3.69      10.9  T
   5    -21.7364950 -0.431017E-08  0.682E-04    3.69      42.3  T
     SCC iter.                  ...        0 min,  0.002 sec
     gradient                   ...        0 min,  0.291 sec
 * total energy  :   -21.5646642 Eh     change       -0.7206267E-04 Eh
   gradient norm :     0.0077600 Eh/α   predicted    -0.4623657E-04 ( -35.84%)
   displ. norm   :     0.1976325 α      lambda       -0.2185669E-03
   maximum displ.:     0.1160661 α      in ANC's #3, #2, #1, ...

........................................................................
.............................. CYCLE   31 ..............................
........................................................................
   1    -21.7373312 -0.217373E+02  0.320E-01    3.68       0.0  T
   2    -21.7373473 -0.161562E-04  0.201E-01    3.68       1.0  T
   3    -21.7373570 -0.971495E-05  0.162E-02    3.69       1.8  T
   4    -21.7373576 -0.567726E-06  0.888E-03    3.69       3.3  T
   5    -21.7373577 -0.705983E-07  0.360E-03    3.69       8.0  T
   6    -21.7373577 -0.239606E-07  0.119E-03    3.69      24.2  T
   7    -21.7373577 -0.665784E-08  0.435E-04    3.69      66.4  T
     SCC iter.                  ...        0 min,  0.002 sec
     gradient                   ...        0 min,  0.001 sec
 * total energy  :   -21.5647747 Eh     change       -0.1104627E-03 Eh
   gradient norm :     0.0091609 Eh/α   predicted    -0.1135545E-03 (   2.80%)
   displ. norm   :     0.1813120 α      lambda       -0.1456383E-03
   maximum displ.:     0.1205187 α      in ANC's #3, #2, #1, ...

........................................................................
.............................. CYCLE   32 ..............................
........................................................................
   1    -21.7365999 -0.217366E+02  0.335E-01    3.70       0.0  T
   2    -21.7366184 -0.185006E-04  0.214E-01    3.70       1.0  T
   3    -21.7366320 -0.135546E-04  0.141E-02    3.70       2.0  T
   4    -21.7366321 -0.145912E-06  0.780E-03    3.70       3.7  T
   5    -21.7366322 -0.977265E-07  0.229E-03    3.70      12.6  T
   6    -21.7366322 -0.205950E-07  0.103E-03    3.70      28.1  T
     SCC iter.                  ...        0 min,  0.002 sec
     gradient                   ...        0 min,  0.091 sec
 * total energy  :   -21.5648504 Eh     change       -0.7574299E-04 Eh
   gradient norm :     0.0088315 Eh/α   predicted    -0.7521199E-04 (  -0.70%)
   displ. norm   :     0.0579067 α      lambda       -0.1859396E-03
   maximum displ.:     0.0296214 α      in ANC's #4, #2, #20, ...

........................................................................
.............................. CYCLE   33 ..............................
........................................................................
   1    -21.7410329 -0.217410E+02  0.830E-02    3.79       0.0  T
   2    -21.7410414 -0.847813E-05  0.504E-02    3.78       1.0  T
   3    -21.7410416 -0.222803E-06  0.189E-02    3.78       1.5  T
   4    -21.7410423 -0.701689E-06  0.426E-03    3.77       6.8  T
   5    -21.7410424 -0.842632E-07  0.204E-03    3.78      14.1  T
   6    -21.7410424 -0.128671E-07  0.896E-04    3.78      32.2  T
     SCC iter.                  ...        0 min,  0.002 sec
     gradient                   ...        0 min,  0.001 sec
 * total energy  :   -21.5647618 Eh     change        0.8864379E-04 Eh
   gradient norm :     0.0196422 Eh/α   predicted    -0.9328137E-04 (-205.23%)
   displ. norm   :     0.1025421 α      lambda       -0.3058512E-03
   maximum displ.:     0.0598483 α      in ANC's #3, #1, #4, ...

........................................................................
.............................. CYCLE   34 ..............................
........................................................................
   1    -21.7382340 -0.217382E+02  0.172E-01    3.71       0.0  T
   2    -21.7382441 -0.100781E-04  0.107E-01    3.72       1.0  T
   3    -21.7382461 -0.199387E-05  0.182E-02    3.72       1.6  T
   4    -21.7382472 -0.116503E-05  0.601E-03    3.72       4.8  T
   5    -21.7382473 -0.775555E-07  0.326E-03    3.72       8.8  T
   6    -21.7382473 -0.220837E-07  0.137E-03    3.72      21.1  T
   7    -21.7382473 -0.281785E-08  0.276E-04    3.72     104.6  T
     SCC iter.                  ...        0 min,  0.002 sec
     gradient                   ...        0 min,  0.091 sec
 * total energy  :   -21.5649245 Eh     change       -0.1627173E-03 Eh
   gradient norm :     0.0019409 Eh/α   predicted    -0.1545333E-03 (  -5.03%)
   displ. norm   :     0.1186101 α      lambda       -0.2475196E-04
   maximum displ.:     0.0721501 α      in ANC's #3, #2, #1, ...

........................................................................
.............................. CYCLE   35 ..............................
........................................................................
   1    -21.7370020 -0.217370E+02  0.191E-01    3.70       0.0  T
   2    -21.7370085 -0.652053E-05  0.121E-01    3.71       1.0  T
   3    -21.7370124 -0.389871E-05  0.105E-02    3.71       2.8  T
   4    -21.7370127 -0.255087E-06  0.567E-03    3.71       5.1  T
   5    -21.7370127 -0.293574E-07  0.187E-03    3.71      15.4  T
   6    -21.7370127 -0.432435E-08  0.564E-04    3.71      51.2  T
   7    -21.7370127 -0.112023E-08  0.286E-04    3.71     101.1  T
     SCC iter.                  ...        0 min,  0.002 sec
     gradient                   ...        0 min,  0.001 sec
 * total energy  :   -21.5649310 Eh     change       -0.6568487E-05 Eh
   gradient norm :     0.0073439 Eh/α   predicted    -0.1245342E-04 (  89.59%)
   displ. norm   :     0.0268722 α      lambda       -0.3121419E-04
   maximum displ.:     0.0215822 α      in ANC's #1, #2, #19, ...

........................................................................
.............................. CYCLE   36 ..............................
........................................................................
   1    -21.7377947 -0.217378E+02  0.363E-02    3.72       0.0  T
   2    -21.7377950 -0.326378E-06  0.228E-02    3.72       1.3  T
   3    -21.7377951 -0.790743E-07  0.362E-03    3.72       8.0  T
   4    -21.7377952 -0.672089E-07  0.142E-03    3.72      20.3  T
   5    -21.7377952 -0.569481E-08  0.598E-04    3.72      48.3  T
     SCC iter.                  ...        0 min,  0.092 sec
     gradient                   ...        0 min,  0.002 sec
 * total energy  :   -21.5649532 Eh     change       -0.2214759E-04 Eh
   gradient norm :     0.0037568 Eh/α   predicted    -0.1561755E-04 ( -29.48%)
   displ. norm   :     0.0468261 α      lambda       -0.2077358E-04
   maximum displ.:     0.0270466 α      in ANC's #2, #1, #6, ...

........................................................................
.............................. CYCLE   37 ..............................
........................................................................
   1    -21.7384591 -0.217385E+02  0.666E-02    3.74       0.0  T
   2    -21.7384598 -0.739934E-06  0.419E-02    3.73       1.0  T
   3    -21.7384602 -0.361158E-06  0.401E-03    3.73       7.2  T
   4    -21.7384602 -0.601541E-07  0.202E-03    3.73      14.3  T
   5    -21.7384603 -0.657969E-08  0.974E-04    3.73      29.6  T
   6    -21.7384603 -0.133114E-08  0.313E-04    3.73      92.2  T
     SCC iter.                  ...        0 min,  0.004 sec
     gradient                   ...        0 min,  0.092 sec
 * total energy  :   -21.5649662 Eh     change       -0.1303335E-04 Eh
   gradient norm :     0.0010152 Eh/α   predicted    -0.1040941E-04 ( -20.13%)
   displ. norm   :     0.1264420 α      lambda       -0.1208978E-04
   maximum displ.:     0.0628537 α      in ANC's #2, #1, #3, ...

........................................................................
.............................. CYCLE   38 ..............................
........................................................................
   1    -21.7381441 -0.217381E+02  0.199E-01    3.74       0.0  T
   2    -21.7381500 -0.582618E-05  0.126E-01    3.74       1.0  T
   3    -21.7381541 -0.415476E-05  0.898E-03    3.74       3.2  T
   4    -21.7381542 -0.806936E-07  0.505E-03    3.74       5.7  T
   5    -21.7381542 -0.213896E-07  0.924E-04    3.74      31.3  T
   6    -21.7381542 -0.143196E-08  0.425E-04    3.74      68.0  T
     SCC iter.                  ...        0 min,  0.002 sec
     gradient                   ...        0 min,  0.002 sec
 * total energy  :   -21.5649727 Eh     change       -0.6439888E-05 Eh
   gradient norm :     0.0021248 Eh/α   predicted    -0.6087017E-05 (  -5.48%)
   displ. norm   :     0.0604437 α      lambda       -0.2089002E-04
   maximum displ.:     0.0322684 α      in ANC's #2, #6, #5, ...

........................................................................
.............................. CYCLE   39 ..............................
........................................................................
   1    -21.7383482 -0.217383E+02  0.880E-02    3.74       0.0  T
   2    -21.7383489 -0.757767E-06  0.546E-02    3.74       1.0  T
   3    -21.7383494 -0.503269E-06  0.384E-03    3.74       7.5  T
   4    -21.7383495 -0.248943E-07  0.236E-03    3.74      12.3  T
   5    -21.7383495 -0.860548E-08  0.826E-04    3.74      34.9  T
   6    -21.7383495 -0.179626E-08  0.271E-04    3.74     106.5  T
     SCC iter.                  ...        0 min,  0.002 sec
     gradient                   ...        0 min,  0.091 sec
 * total energy  :   -21.5649815 Eh     change       -0.8801449E-05 Eh
   gradient norm :     0.0021647 Eh/α   predicted    -0.1048464E-04 (  19.12%)
   displ. norm   :     0.0119749 α      lambda       -0.5207098E-05
   maximum displ.:     0.0082324 α      in ANC's #1, #3, #10, ...

........................................................................
.............................. CYCLE   40 ..............................
........................................................................
   1    -21.7384887 -0.217385E+02  0.183E-02    3.74       0.0  T
   2    -21.7384888 -0.771514E-07  0.116E-02    3.74       2.5  T
   3    -21.7384888 -0.343345E-07  0.121E-03    3.74      23.9  T
   4    -21.7384888 -0.292340E-08  0.532E-04    3.74      54.2  T
   5    -21.7384888 -0.787665E-09  0.252E-04    3.74     114.5  T
     SCC iter.                  ...        0 min,  0.002 sec
     gradient                   ...        0 min,  0.001 sec
 * total energy  :   -21.5649850 Eh     change       -0.3547874E-05 Eh
   gradient norm :     0.0017194 Eh/α   predicted    -0.2603347E-05 ( -26.62%)
   displ. norm   :     0.0264941 α      lambda       -0.5967756E-05
   maximum displ.:     0.0183941 α      in ANC's #1, #6, #5, ...

........................................................................
.............................. CYCLE   41 ..............................
........................................................................
   1    -21.7386813 -0.217387E+02  0.346E-02    3.75       0.0  T
   2    -21.7386814 -0.857118E-07  0.213E-02    3.75       1.4  T
   3    -21.7386814 -0.291044E-07  0.153E-03    3.74      18.9  T
   4    -21.7386814 -0.953243E-08  0.758E-04    3.74      38.1  T
   5    -21.7386814 -0.128392E-08  0.321E-04    3.74      90.0  T
     SCC iter.                  ...        0 min,  0.002 sec
     gradient                   ...        0 min,  0.091 sec
 * total energy  :   -21.5649908 Eh     change       -0.5810509E-05 Eh
   gradient norm :     0.0019013 Eh/α   predicted    -0.2984616E-05 ( -48.63%)
   displ. norm   :     0.0667338 α      lambda       -0.9293230E-05
   maximum displ.:     0.0359745 α      in ANC's #2, #5, #6, ...

........................................................................
.............................. CYCLE   42 ..............................
........................................................................
   1    -21.7383696 -0.217384E+02  0.906E-02    3.74       0.0  T
   2    -21.7383704 -0.772742E-06  0.559E-02    3.74       1.0  T
   3    -21.7383708 -0.394971E-06  0.400E-03    3.74       7.2  T
   4    -21.7383708 -0.411613E-07  0.229E-03    3.74      12.6  T
   5    -21.7383708 -0.491098E-08  0.905E-04    3.74      31.9  T
   6    -21.7383708 -0.134916E-08  0.300E-04    3.74      96.2  T
     SCC iter.                  ...        0 min,  0.002 sec
     gradient                   ...        0 min,  0.001 sec
 * total energy  :   -21.5649984 Eh     change       -0.7609462E-05 Eh
   gradient norm :     0.0020084 Eh/α   predicted    -0.4656869E-05 ( -38.80%)
   displ. norm   :     0.0517610 α      lambda       -0.1316218E-04
   maximum displ.:     0.0384130 α      in ANC's #1, #5, #6, ...
 * RMSD in coord.:     0.5081088 α      energy gain  -0.1387262E-02 Eh

generating ANC from model Hessian ...
Using Lindh-Hessian (1995)
 Shifting diagonal of input Hessian by   6.041259287442178E-003
 Lowest  eigenvalues of input Hessian
   -0.000000   -0.000000   -0.000000    0.000000    0.000000    0.000000
    0.010000    0.013673    0.017721    0.023078    0.027408    0.031906
    0.049694    0.058893    0.063473    0.069202    0.081636    0.092117
 Highest eigenvalues
    1.146707    1.248836    1.293914    1.343840    1.466235    2.215986
 

........................................................................
.............................. CYCLE   43 ..............................
........................................................................
   1    -21.7384764 -0.217385E+02  0.735E-02    3.74       0.0  T
   2    -21.7384767 -0.312703E-06  0.456E-02    3.74       1.0  T
   3    -21.7384769 -0.215749E-06  0.228E-03    3.74      12.6  T
   4    -21.7384769 -0.122396E-08  0.115E-03    3.74      25.2  T
   5    -21.7384769 -0.252822E-08  0.264E-04    3.74     109.4  T
   6    -21.7384769 -0.318447E-09  0.114E-04    3.74     253.5  T
     SCC iter.                  ...        0 min,  0.092 sec
     gradient                   ...        0 min,  0.003 sec
 * total energy  :   -21.5650079 Eh     change       -0.9467477E-05 Eh
   gradient norm :     0.0017161 Eh/α   predicted     0.0000000E+00 (-100.00%)
   displ. norm   :     0.0226944 α      lambda       -0.1058662E-04
   maximum displ.:     0.0128150 α      in ANC's #1, #6, #5, ...

........................................................................
.............................. CYCLE   44 ..............................
........................................................................
   1    -21.7385245 -0.217385E+02  0.311E-02    3.74       0.0  T
   2    -21.7385247 -0.178386E-06  0.195E-02    3.74       1.5  T
   3    -21.7385247 -0.598492E-07  0.201E-03    3.74      14.4  T
   4    -21.7385247 -0.138105E-07  0.942E-04    3.74      30.6  T
   5    -21.7385247 -0.181313E-08  0.486E-04    3.74      59.4  T
     SCC iter.                  ...        0 min,  0.002 sec
     gradient                   ...        0 min,  0.001 sec
 * total energy  :   -21.5650141 Eh     change       -0.6200222E-05 Eh
   gradient norm :     0.0012172 Eh/α   predicted    -0.5294782E-05 ( -14.60%)
   displ. norm   :     0.0342892 α      lambda       -0.1200380E-04
   maximum displ.:     0.0190896 α      in ANC's #1, #4, #2, ...

........................................................................
.............................. CYCLE   45 ..............................
........................................................................
   1    -21.7385641 -0.217386E+02  0.510E-02    3.74       0.0  T
   2    -21.7385645 -0.408550E-06  0.322E-02    3.74       1.0  T
   3    -21.7385647 -0.198883E-06  0.239E-03    3.74      12.1  T
   4    -21.7385647 -0.113166E-07  0.121E-03    3.74      23.9  T
   5    -21.7385647 -0.141307E-08  0.604E-04    3.74      47.8  T
   6    -21.7385647 -0.512923E-09  0.174E-04    3.74     165.5  T
     SCC iter.                  ...        0 min,  0.002 sec
     gradient                   ...        0 min,  0.001 sec
 * total energy  :   -21.5650153 Eh     change       -0.1246760E-05 Eh
   gradient norm :     0.0016112 Eh/α   predicted    -0.6007122E-05 ( 381.82%)
   displ. norm   :     0.0107775 α      lambda       -0.6630781E-05
   maximum displ.:     0.0064737 α      in ANC's #7, #1, #14, ...

........................................................................
.............................. CYCLE   46 ..............................
........................................................................
   1    -21.7385324 -0.217385E+02  0.138E-02    3.74       0.0  T
   2    -21.7385324 -0.515391E-07  0.845E-03    3.74       3.4  T
   3    -21.7385325 -0.712718E-08  0.105E-03    3.74      27.4  T
   4    -21.7385325 -0.303303E-08  0.417E-04    3.74      69.3  T
   5    -21.7385325 -0.387214E-09  0.232E-04    3.74     124.7  T
     SCC iter.                  ...        0 min,  0.002 sec
     gradient                   ...        0 min,  0.001 sec
 * total energy  :   -21.5650212 Eh     change       -0.5811097E-05 Eh
   gradient norm :     0.0003308 Eh/α   predicted    -0.3317651E-05 ( -42.91%)
   displ. norm   :     0.0152821 α      lambda       -0.1320044E-05
   maximum displ.:     0.0124645 α      in ANC's #1, #4, #6, ...

........................................................................
.............................. CYCLE   47 ..............................
........................................................................
   1    -21.7385253 -0.217385E+02  0.220E-02    3.74       0.0  T
   2    -21.7385253 -0.456897E-07  0.138E-02    3.74       2.1  T
   3    -21.7385254 -0.311763E-07  0.794E-04    3.74      36.3  T
   4    -21.7385254 -0.308312E-09  0.393E-04    3.74      73.4  T
     SCC iter.                  ...        0 min,  0.001 sec
     gradient                   ...        0 min,  0.002 sec
 * total energy  :   -21.5650228 Eh     change       -0.1632819E-05 Eh
   gradient norm :     0.0002059 Eh/α   predicted    -0.6618252E-06 ( -59.47%)
   displ. norm   :     0.0288614 α      lambda       -0.1735486E-05
   maximum displ.:     0.0218142 α      in ANC's #1, #4, #2, ...

   *** GEOMETRY OPTIMIZATION CONVERGED AFTER 47 ITERATIONS ***

------------------------------------------------------------------------
 total energy gain   :        -0.1891035 Eh     -118.6642 kcal/mol
 total RMSD          :         1.2834643 a0        0.6792 Å
 total power (kW/mol):       -10.5636424 (step) -170.9814 (real)
------------------------------------------------------------------------

 ANCopt (total)                0 d,  0 h,  0 min,  2.904 sec
 optimizer setup                ...        0 min,  0.000 sec (  0.011%)
 model hessian                  ...        0 min,  0.008 sec (  0.278%)
 ANC generation                 ...        0 min,  0.001 sec (  0.038%)
 coordinate transformation      ...        0 min,  0.002 sec (  0.067%)
 single point calculation       ...        0 min,  2.784 sec ( 95.871%)
 optimization log               ...        0 min,  0.003 sec (  0.109%)
 hessian update                 ...        0 min,  0.095 sec (  3.259%)
 rational function              ...        0 min,  0.003 sec (  0.113%)

================
 final structure:
================
12
 xtb: 6.2.3 (830e466)
C         0.64655261294670    1.77990726095684   -1.24860629964234
C         0.38702690585649    0.27760346588115   -1.18023452412354
C         1.65742853794295   -0.51360174351141   -1.02233854444723
O         1.27812269897433    2.02818304481236   -2.48376416295117
O         1.58563118664340    3.41930490509654   -2.56626752396012
O         1.77168318814255   -1.50049345051658   -0.35445652126102
H         1.93430464292852    3.49691603900725   -3.46387210572422
H         1.29400504502879    2.10886293932979   -0.42567893328116
H        -0.29823351789123    2.33620594028066   -1.19575566947404
H         2.50297716675169   -0.10413581498027   -1.60437530795367
H        -0.06972912899475   -0.03548682651369   -2.12373324716380
H        -0.30086933832936    0.04642424015730   -0.36672716001753
 
 Bond Distances (Angstroems)
 ---------------------------
C1-C2=1.5261         C1-O4=1.4093         C1-H8=1.0975         C1-H9=1.0977         C2-C1=1.5261         C2-C3=1.5049         
C2-H11=1.0940        C2-H12=1.0902        C3-C2=1.5049         C3-O6=1.1971         C3-H10=1.1052        O4-C1=1.4093         
O4-O5=1.4271         O5-O4=1.4271         O5-H7=0.9661         O6-C3=1.1971         H7-O5=0.9661         H8-C1=1.0975         
H9-C1=1.0977         H10-C3=1.1052        H11-C2=1.0940        H12-C2=1.0902        
 C  H  Rav=1.0969 sigma=0.0050  Rmin=1.0902  Rmax=1.1052     5
 C  C  Rav=1.5155 sigma=0.0106  Rmin=1.5049  Rmax=1.5261     2
 O  H  Rav=0.9661 sigma=0.0000  Rmin=0.9661  Rmax=0.9661     1
 O  C  Rav=1.3032 sigma=0.1061  Rmin=1.1971  Rmax=1.4093     2
 O  O  Rav=1.4271 sigma=0.0000  Rmin=1.4271  Rmax=1.4271     1
 
 selected bond angles (degree)
 --------------------
O4-C1-C2=106.79                H8-C1-C2=111.21                H8-C1-O4=109.88                H9-C1-C2=110.51                
H9-C1-O4=109.79                H9-C1-H8=108.65                C3-C2-C1=112.25                H11-C2-C1=108.31               
H11-C2-C3=107.01               H12-C2-C1=110.46               H12-C2-C3=110.05               H12-C2-H11=108.63              
O6-C3-C2=124.93                H10-C3-C2=113.32               H10-C3-O6=121.75               O5-O4-C1=108.60                
H7-O5-O4=102.11                
 
 selected dihedral angles (degree)
 ---------------------------------
C3-C2-C1-O4= 69.99            C3-C2-C1-H8=310.13            C3-C2-C1-H9=189.37            H11-C2-C1-O4=312.08           
H11-C2-C1-H8=192.21           H11-C2-C1-H9= 71.45           H12-C2-C1-O4=193.23           H12-C2-C1-H8= 73.36           
H12-C2-C1-H9=312.60           O6-C3-C2-C1=142.68            O6-C3-C2-H11=261.37           O6-C3-C2-H12= 19.23           
H10-C3-C2-C1=321.84           H10-C3-C2-H11= 80.53          H10-C3-C2-H12=198.38          O5-O4-C1-C2=182.19            
O5-O4-C1-H8=302.92            O5-O4-C1-H9= 62.35            H7-O5-O4-C1=184.89            
           -------------------------------------------------
          |                Final Singlepoint                |
           -------------------------------------------------

          ...................................................
          :                      SETUP                      :
          :.................................................:
          :  # basis functions                  30          :
          :  # atomic orbitals                  30          :
          :  # shells                           18          :
          :  # electrons                        36          :
          :  max. iterations                   100          :
          :  Hamiltonian                  GFN2-xTB          :
          :  restarted?                      false          :
          :  GBSA solvation                  false          :
          :  PC potential                    false          :
          :  electronic temp.          300.0000000     K    :
          :  accuracy                    1.0000000          :
          :  -> integral cutoff          0.2500000E+02      :
          :  -> integral neglect         0.1000000E-07      :
          :  -> SCF convergence          0.1000000E-05 Eh   :
          :  -> wf. convergence          0.1000000E-03 e    :
          :  Broyden damping             0.4000000          :
          ...................................................

 iter      E             dE          RMSdq      gap      omega  full diag
   1    -21.7385254 -0.217385E+02  0.103E-04    3.74       0.0  T
   2    -21.7385254 -0.450839E-10  0.533E-05    3.74     541.5  T
   3    -21.7385254 -0.138201E-10  0.345E-05    3.74     835.8  T

   *** convergence criteria satisfied after 3 iterations ***

         #    Occupation            Energy/Eh            Energy/eV
      -------------------------------------------------------------
         1        2.0000           -0.7354398             -20.0123
       ...           ...                  ...                  ...
        12        2.0000           -0.5348344             -14.5536
        13        2.0000           -0.5172314             -14.0746
        14        2.0000           -0.4974127             -13.5353
        15        2.0000           -0.4910241             -13.3614
        16        2.0000           -0.4804748             -13.0744
        17        2.0000           -0.4249526             -11.5635
        18        2.0000           -0.4090301             -11.1303 (HOMO)
        19                         -0.2716468              -7.3919 (LUMO)
        20                         -0.1642957              -4.4707
        21                          0.0527435               1.4352
        22                          0.0835971               2.2748
        23                          0.0924569               2.5159
       ...                                ...                  ...
        30                          0.6117960              16.6478
      -------------------------------------------------------------
                  HL-Gap            0.1373832 Eh            3.7384 eV
             Fermi-level           -0.3403384 Eh           -9.2611 eV

 SCC (total)                   0 d,  0 h,  0 min,  0.003 sec
 SCC setup                      ...        0 min,  0.000 sec (  2.847%)
 Dispersion                     ...        0 min,  0.000 sec (  1.325%)
 integral evaluation            ...        0 min,  0.001 sec ( 15.822%)
 zeroth order Hamiltonian       ...        0 min,  0.000 sec (  1.837%)
 iterations                     ...        0 min,  0.001 sec ( 30.258%)
 molecular gradient             ...        0 min,  0.001 sec ( 39.822%)
 printout                       ...        0 min,  0.000 sec (  1.898%)

         :::::::::::::::::::::::::::::::::::::::::::::::::::::
         ::                     SUMMARY                     ::
         :::::::::::::::::::::::::::::::::::::::::::::::::::::
         :: total energy             -21.565022781305 Eh    ::
         :: gradient norm              0.000206971219 Eh/a0 ::
         :: HOMO-LUMO gap              3.738388224569 eV    ::
         ::.................................................::
         :: SCC energy               -21.738525363753 Eh    ::
         :: -> isotropic ES            0.047691314863 Eh    ::
         :: -> anisotropic ES         -0.005152141395 Eh    ::
         :: -> anisotropic XC         -0.004174791630 Eh    ::
         :: -> dispersion             -0.005629683959 Eh    ::
         :: repulsion energy           0.173498557070 Eh    ::
         :: add. restraining           0.000000000000 Eh    ::
         :::::::::::::::::::::::::::::::::::::::::::::::::::::

           -------------------------------------------------
          |                Property Printout                |
           -------------------------------------------------

    * Orbital Energies and Occupations

         #    Occupation            Energy/Eh            Energy/eV
      -------------------------------------------------------------
         1        2.0000           -0.7354398             -20.0123
       ...           ...                  ...                  ...
         6        2.0000           -0.6200914             -16.8735
         7        2.0000           -0.6080686             -16.5464
         8        2.0000           -0.5847136             -15.9109
         9        2.0000           -0.5818364             -15.8326
        10        2.0000           -0.5608630             -15.2619
        11        2.0000           -0.5496142             -14.9558
        12        2.0000           -0.5348344             -14.5536
        13        2.0000           -0.5172314             -14.0746
        14        2.0000           -0.4974127             -13.5353
        15        2.0000           -0.4910241             -13.3614
        16        2.0000           -0.4804748             -13.0744
        17        2.0000           -0.4249526             -11.5635
        18        2.0000           -0.4090301             -11.1303 (HOMO)
        19                         -0.2716468              -7.3919 (LUMO)
        20                         -0.1642957              -4.4707
        21                          0.0527435               1.4352
        22                          0.0835971               2.2748
        23                          0.0924569               2.5159
        24                          0.1238856               3.3711
        25                          0.1320842               3.5942
        26                          0.1414775               3.8498
        27                          0.1999042               5.4397
        28                          0.2236052               6.0846
        29                          0.2501747               6.8076
        30                          0.6117960              16.6478
      -------------------------------------------------------------
                  HL-Gap            0.1373832 Eh            3.7384 eV
             Fermi-level           -0.3403384 Eh           -9.2611 eV

     #   Z        covCN         q      C6AA      α(0)
     1   6 C      3.678     0.087    19.344     6.300
     2   6 C      3.802    -0.094    22.290     6.722
     3   6 C      2.758     0.216    23.434     7.927
     4   8 O      1.778    -0.213    17.531     5.654
     5   8 O      1.735    -0.324    19.408     5.948
     6   8 O      0.856    -0.311    19.978     5.993
     7   1 H      0.805     0.324     0.654     1.271
     8   1 H      0.924     0.051     2.305     2.374
     9   1 H      0.924     0.053     2.283     2.363
    10   1 H      0.922     0.038     2.472     2.459
    11   1 H      0.924     0.092     1.855     2.130
    12   1 H      0.925     0.080     1.974     2.197

 Mol. C6AA /au·bohr⁶  :       1231.015537
 Mol. C8AA /au·bohr⁸  :      26147.798080
 Mol. α(0) /au        :         51.338257


Wiberg/Mayer (AO) data.
largest (>0.10) Wiberg bond orders for each atom
          total WBO             WBO to atom ...
     1  C   3.941        C    2 0.985    O    4 0.983    H    8 0.969    H    9 0.968
     2  C   3.993        C    3 1.006    C    1 0.985    H   12 0.965    H   11 0.935
     3  C   3.914        O    6 1.939    C    2 1.006    H   10 0.931
     4  O   2.005        C    1 0.983    O    5 0.974
     5  O   1.901        O    4 0.974    H    7 0.888
     6  O   2.102        C    3 1.939
     7  H   0.895        O    5 0.888
     8  H   0.997        C    1 0.969
     9  H   0.997        C    1 0.968
    10  H   0.999        C    3 0.931
    11  H   0.991        C    2 0.935
    12  H   0.994        C    2 0.965

molecular dipole:
                 x           y           z       tot (Debye)
 q only:       -0.411       0.573      -0.454
   full:       -0.398       0.769      -0.685       2.806
molecular quadrupole (traceless):
                xx          xy          yy          xz          yz          zz
 q only:       -1.105       3.767      -4.270      -2.737      -2.133       5.375
  q+dip:        0.018       4.767      -7.679      -3.871      -3.008       7.661
   full:       -1.103       5.228      -6.773      -3.970      -2.612       7.876

           -------------------------------------------------
          |                Geometry Summary                 |
           -------------------------------------------------

      molecular mass/u    :       90.0780670
   center of mass at/Å    :        1.2387908       0.9947389      -1.5228217
  moments of inertia/u·Å² :        0.4244556E+02   0.3282427E+03   0.3504032E+03
rotational constants/cm⁻¹ :        0.3971589E+00   0.5135722E-01   0.4810924E-01

 * 9 selected distances

     #   Z        #   Z                                     value/Å
     1   6 C      2   6 C                                 1.5260881 (max)
     1   6 C      4   8 O                                 1.4093036
     4   8 O      5   8 O                                 1.4270909
     3   6 C      6   8 O                                 1.1971114
     5   8 O      7   1 H                                 0.9660697 (min)
     1   6 C      8   1 H                                 1.0975500
     1   6 C      9   1 H                                 1.0976713
     2   6 C     11   1 H                                 1.0940025
     2   6 C     12   1 H                                 1.0901556

 * 5 distinct bonds (by element types)

   Z      Z             #   av. dist./Å        max./Å        min./Å
   1 H    6 C           4     1.0948448     1.0976713     1.0901556
   6 C    6 C           1     1.5260881     1.5260881     1.5260881
   1 H    8 O           1     0.9660697     0.9660697     0.9660697
   6 C    8 O           2     1.3032075     1.4093036     1.1971114
   8 O    8 O           1     1.4270909     1.4270909     1.4270909


optimized geometry written to: xtbopt.xyz


           -------------------------------------------------
          | TOTAL ENERGY              -21.565022781305 Eh   |
          | GRADIENT NORM               0.000206971219 Eh/α |
          | HOMO-LUMO GAP               3.738388224569 eV   |
           -------------------------------------------------

------------------------------------------------------------------------
 * finished run on 2020/12/23 at 21:44:06.661     
------------------------------------------------------------------------
 total:
 * wall-time:     0 d,  0 h,  0 min,  3.568 sec
 *  cpu-time:     0 d,  0 h,  0 min, 14.481 sec
 * ratio c/w:     4.058 speedup
 SCF:
 * wall-time:     0 d,  0 h,  0 min,  0.296 sec
 *  cpu-time:     0 d,  0 h,  0 min,  1.210 sec
 * ratio c/w:     4.085 speedup
 ANC optimizer:
 * wall-time:     0 d,  0 h,  0 min,  3.000 sec
 *  cpu-time:     0 d,  0 h,  0 min, 11.987 sec
 * ratio c/w:     3.995 speedup

