12
 energy: -21.375919279654 gnorm: 0.140804108169 xtb: 6.2.3 (830e466)
C         0.67469000000000    1.62512000000000   -1.38081000000000
C         0.07010000000000    0.18939000000000   -1.42563000000000
C         1.53162000000000   -0.22300000000000   -1.36366000000000
O         1.61655000000000    1.88789000000000   -2.43077000000000
O         2.00351000000000    3.30146000000000   -2.21978000000000
O         2.10139000000000   -0.42993000000000   -0.30690000000000
H         1.77089000000000    3.81417000000000   -2.98490000000000
H         1.12935000000000    1.85615000000000   -0.40124000000000
H        -0.15459000000000    2.33339000000000   -1.53956000000000
H         2.02877000000000   -0.56602000000000   -2.27657000000000
H         0.16730000000000   -0.87413000000000   -1.15707000000000
H        -0.55068000000000    0.42520000000000   -0.54892000000000
12
 energy: -21.424091309114 gnorm: 0.111060111860 xtb: 6.2.3 (830e466)
C         0.65069337002838    1.66141067479549   -1.41897702756386
C         0.06848795424608    0.22095552518810   -1.39679500504445
C         1.54861744687534   -0.28198293178681   -1.27887301688426
O         1.61009407384520    1.91722909879033   -2.43555662916579
O         2.01609756512633    3.28466840107441   -2.21962612417932
O         2.16225621246230   -0.46385070715186   -0.25430285313246
H         1.76936343162208    3.77972324108439   -3.00751637148702
H         1.12834423023485    1.86030087339502   -0.44169673105800
H        -0.18297491859039    2.36615637271895   -1.54926623131691
H         2.03556110916786   -0.49333960012364   -2.25245636752631
H         0.07862143805225   -0.89702816768214   -1.33508825301067
H        -0.49626191307028    0.38544721969776   -0.44565538963094
12
 energy: -21.473121108701 gnorm: 0.145575588570 xtb: 6.2.3 (830e466)
C         0.61193584289445    1.72286505368917   -1.49114968285375
C         0.11725912476624    0.26735747526747   -1.30802889036585
C         1.61337744378406   -0.35108391340942   -1.14152664926218
O         1.59377075538445    1.97397385765803   -2.45422603719053
O         2.03381004706437    3.26278309539009   -2.21882936233281
O         2.25977821257969   -0.52430248131985   -0.17480045633107
H         1.75756698015823    3.74921193611938   -3.02638068674398
H         1.11114386740556    1.86578930128680   -0.50447407941051
H        -0.23087988597551    2.40871422454247   -1.56705104756463
H         2.00992754668282   -0.45758351084416   -2.21004963315583
H        -0.06741081061885   -0.91319957183002   -1.62752994693897
H        -0.42137912412550    0.33516453345003   -0.31176352784987
12
 energy: -21.492894970896 gnorm: 0.139599918369 xtb: 6.2.3 (830e466)
C         0.56696871350852    1.73452017466767   -1.52030056878156
C         0.16378183691502    0.25219307808913   -1.27569020675148
C         1.65666039304184   -0.37822026279582   -1.09809366374321
O         1.52981585402839    1.98785206734278   -2.49327397399733
O         2.07676366477435    3.23450550625556   -2.21157406384535
O         2.33924760284688   -0.55044410195354   -0.15549054389200
H         1.78668372214306    3.76969324472464   -2.98655293813430
H         1.08407645383788    1.90245029492574   -0.54632492222350
H        -0.28245802031108    2.41437698579657   -1.57674450217441
H         1.98996000665201   -0.47322113142570   -2.19273710856439
H        -0.14172970185507   -0.85886834000573   -1.68023833572121
H        -0.38087052558180    0.30485248437868   -0.29878917217127
12
 energy: -21.524885281691 gnorm: 0.087842661225 xtb: 6.2.3 (830e466)
C         0.51777534183487    1.71921658518555   -1.51609706270490
C         0.22322301381814    0.21175671943504   -1.24170067130250
C         1.69620203255856   -0.38042022411631   -1.08678163579553
O         1.43941742250443    1.98153693816674   -2.53974946873379
O         2.11472177036014    3.19888463016361   -2.21333680579365
O         2.39365118097527   -0.58511998788595   -0.14932602876536
H         1.83954937503932    3.78745194585440   -2.94963384228111
H         1.05182464253467    1.96200811375330   -0.57002913317013
H        -0.34421995553569    2.38937765967463   -1.58437235276105
H         1.99714870593611   -0.48711378782285   -2.15835964274463
H        -0.23115714604977   -0.71193065020866   -1.74487428201063
H        -0.30923638397603    0.25404205780050   -0.28154907393673
12
 energy: -21.547296163854 gnorm: 0.043433929938 xtb: 6.2.3 (830e466)
C         0.50624859222529    1.69258988351281   -1.48288884957509
C         0.27612316352613    0.18825408456066   -1.19136358967577
C         1.70762738954481   -0.37701857059593   -1.11114428564737
O         1.41307900591280    1.96899287080646   -2.53938241421691
O         2.09364329405306    3.18047673653539   -2.22239862550045
O         2.38071477977014   -0.61882156121301   -0.15691655751507
H         1.88013013194847    3.76937582730473   -2.95731055046241
H         1.02295467040256    2.01965834976954   -0.56093565794017
H        -0.38499759128129    2.32814108415875   -1.60035069157684
H         2.03758420155342   -0.48863730784903   -2.13895273706024
H        -0.30731177532908   -0.52740676842247   -1.84324200162720
H        -0.23689586232628    0.20408537143210   -0.23092403920247
12
 energy: -21.556188016771 gnorm: 0.031178285559 xtb: 6.2.3 (830e466)
C         0.49849558650807    1.68183975061848   -1.45029000823228
C         0.30299341787315    0.18336539042099   -1.16567606061063
C         1.70108392630548   -0.37053358245555   -1.14506910298974
O         1.38596111192158    1.94432137103521   -2.53955037032721
O         2.10893930037071    3.14602400646786   -2.23137253475363
O         2.33731985977290   -0.64768601360886   -0.16867599174562
H         1.91329806081456    3.75110701061163   -2.95347186156438
H         0.99197742747653    2.07929826685160   -0.54681319303777
H        -0.43188936019275    2.26082996922366   -1.61400827857592
H         2.08447102671802   -0.46977949551221   -2.15974025946315
H        -0.31251122113768   -0.37437000174430   -1.86824443171700
H        -0.19123913643056    0.15527332809151   -0.19289790698269
12
 energy: -21.557290416100 gnorm: 0.054601849138 xtb: 6.2.3 (830e466)
C         0.50826863104146    1.69799766390405   -1.39897028335934
C         0.32985478488471    0.21185328511055   -1.14855619399654
C         1.70063981368091   -0.39045467553275   -1.15581936066245
O         1.38410390994552    1.93457801438304   -2.50294776776853
O         2.09883571918455    3.13377040861532   -2.25689679592077
O         2.30201082024839   -0.71054954132151   -0.16649760362799
H         1.91315243197040    3.71116915998726   -3.00170979306040
H         0.96592098631211    2.15931231522335   -0.50752776040553
H        -0.46254929962379    2.20422293491439   -1.60686174989020
H         2.13705563569833   -0.46238508872262   -2.16819577627454
H        -0.34456052452248   -0.26001625688696   -1.96578873590252
H        -0.14383290882009    0.11019178032588   -0.15603817913121
12
 energy: -21.560496510869 gnorm: 0.018394922679 xtb: 6.2.3 (830e466)
C         0.50101946060414    1.71349324868370   -1.39671637926664
C         0.33215399790374    0.21866354555876   -1.16019852629138
C         1.70417613094687   -0.39534882707854   -1.16884528376886
O         1.38434619589527    1.94612577323278   -2.48557870139887
O         2.09789932741798    3.13744884653451   -2.25346199522878
O         2.29085547757954   -0.73175249129337   -0.18097011962332
H         1.91964900395226    3.70321250798659   -3.01265737948604
H         0.94707953562046    2.16537934499849   -0.50552270213661
H        -0.47296577340080    2.19985624845691   -1.59055537458578
H         2.13999075199501   -0.49445824269211   -2.17888671674574
H        -0.30877921853938   -0.22802317434734   -1.92241335135249
H        -0.14652488997508    0.10509321995962   -0.18000347011550
12
 energy: -21.561038219821 gnorm: 0.016111809886 xtb: 6.2.3 (830e466)
C         0.48513917907606    1.73137016146449   -1.38993361971336
C         0.32870574302870    0.22259913609378   -1.15990070303920
C         1.70386241904822   -0.40077198246510   -1.16523051415975
O         1.34526592193206    1.95461145273115   -2.49632996753747
O         2.12791930122401    3.12827863628196   -2.26252983567904
O         2.28573449201997   -0.75104225621590   -0.17950344448461
H         1.94108882587990    3.70173601202536   -3.01927291517295
H         0.94020774070037    2.18905559468000   -0.50587552974649
H        -0.49261064660073    2.20280406189246   -1.57375654122481
H         2.15137262471539   -0.49406568539928   -2.17301405853234
H        -0.28525358136946   -0.22298428704189   -1.93414106318989
H        -0.14253201965448    0.07809915595298   -0.17632180752008
12
 energy: -21.561539379542 gnorm: 0.007936458892 xtb: 6.2.3 (830e466)
C         0.49250129498512    1.74530826194441   -1.37164748551559
C         0.33929441992870    0.23285226391619   -1.16545817142731
C         1.70646301027296   -0.41745977817421   -1.15811557999326
O         1.33579111206848    1.97245942979829   -2.48702199067925
O         2.11250430518924    3.14294983500768   -2.27567885497991
O         2.27183147169094   -0.79399501480584   -0.17131192596837
H         1.93119959026127    3.69182219190542   -3.05364564692933
H         0.94891496130676    2.20000583032531   -0.48972002752209
H        -0.48925703327389    2.20238735601137   -1.54500535946527
H         2.16378315601658   -0.51051998825809   -2.16010624797854
H        -0.27862084772652   -0.19643666229874   -1.95480558648274
H        -0.14550544071963    0.07031627462823   -0.20329312305832
12
 energy: -21.561811773572 gnorm: 0.008614333376 xtb: 6.2.3 (830e466)
C         0.49596564246025    1.75136479361908   -1.36145081893680
C         0.34181483800062    0.23618983578457   -1.16813064143185
C         1.70293469810739   -0.42407122411610   -1.15000114149845
O         1.32076525467735    1.98891430316764   -2.48862850667477
O         2.09803441511581    3.15572731709231   -2.28789159758443
O         2.25069702114082   -0.81920093951718   -0.16023879567936
H         1.94241803006890    3.68636083335310   -3.08552917654447
H         0.96657394066133    2.19499812642589   -0.48300038586768
H        -0.48919104427737    2.20639102125485   -1.51425435581252
H         2.17412195251334   -0.50756428867246   -2.14566655408140
H        -0.26384838772165   -0.18389772909351   -1.97657383010194
H        -0.15138636074678    0.05447795070180   -0.21444419578633
12
 energy: -21.562305491412 gnorm: 0.013852899550 xtb: 6.2.3 (830e466)
C         0.50838161149369    1.75834176482917   -1.33962007474471
C         0.34596245304263    0.24129289326860   -1.17987029256608
C         1.69389106884056   -0.43597803327659   -1.12688495752462
O         1.27340391723423    2.01896421906456   -2.50902322963271
O         2.06927232022454    3.17466521823499   -2.31848406364335
O         2.19661515453918   -0.86883373284146   -0.12786565564569
H         1.95537680282263    3.67172378704429   -3.14572937027721
H         1.02903745456355    2.17209297922386   -0.47165297360089
H        -0.48244732171348    2.22153601353355   -1.43184224319187
H         2.20693812132220   -0.48302452791948   -2.10646315811447
H        -0.22791155294453   -0.16252278323473   -2.02429091866064
H        -0.17962002942520    0.03143220207322   -0.25408306239773
12
 energy: -21.562718320646 gnorm: 0.014934958452 xtb: 6.2.3 (830e466)
C         0.51874996420321    1.75940826232897   -1.32427757492518
C         0.34753148696927    0.24252585510597   -1.19347429193426
C         1.68705540315971   -0.44019904565529   -1.10637173724690
O         1.22760336483986    2.04233169420144   -2.52685168276695
O         2.04120019362084    3.18862241633080   -2.34549902028065
O         2.14567469059980   -0.90344468879538   -0.09955947239881
H         1.96194886787921    3.65405437243087   -3.19416171179935
H         1.09409814977000    2.14107255301580   -0.46960587688392
H        -0.46813285839973    2.24558791652937   -1.35079340198794
H         2.23836451962617   -0.46083049483104   -2.06498555145106
H        -0.18997901584977   -0.14420295955508   -2.06914227382225
H        -0.21521476641856    0.01476411889355   -0.29108740450268
12
 energy: -21.563084217993 gnorm: 0.010570339310 xtb: 6.2.3 (830e466)
C         0.52900859199111    1.75509029239969   -1.31423800975059
C         0.34615938258255    0.24101510220180   -1.20527155471209
C         1.68215979294089   -0.44160462391966   -1.09368097418786
O         1.19821434278334    2.05015118304960   -2.53172081165937
O         2.01971750430315    3.19488873059655   -2.36377678302691
O         2.11113643592863   -0.92326351746423   -0.08484240640052
H         1.95384712988342    3.63531430422937   -3.22102281012379
H         1.13982924897945    2.11631221827820   -0.47300213346551
H        -0.44626526955613    2.26599958113524   -1.29509708546423
H         2.26381780796190   -0.43984428173745   -2.03514289769246
H        -0.16222912521979   -0.12938420649412   -2.09796737567271
H        -0.24649584257853    0.01501521772497   -0.32004715784390
12
 energy: -21.563231937894 gnorm: 0.020723715858 xtb: 6.2.3 (830e466)
C         0.54184026755565    1.75634000334159   -1.29288370664702
C         0.34661736295288    0.24244617364335   -1.21995203207841
C         1.67972870970509   -0.44314041161474   -1.07803299168489
O         1.16055881391884    2.06059371197157   -2.52900422393888
O         1.98447245038044    3.20979375905771   -2.38753974783187
O         2.06966410735270   -0.97309308881095   -0.06839977613998
H         1.95703294778849    3.60940579175782   -3.27325365302319
H         1.18723043796554    2.09857889050901   -0.47081692947836
H        -0.42604785057248    2.28250475919302   -1.22314038258120
H         2.29703538772981   -0.41222239102940   -1.99964038771068
H        -0.12808596228592   -0.10128612488687   -2.13870752686953
H        -0.28114667249104    0.00976892686784   -0.35443864201591
12
 energy: -21.563372094715 gnorm: 0.012389409998 xtb: 6.2.3 (830e466)
C         0.54929089349641    1.75288824641047   -1.29301842313653
C         0.34486000337146    0.23872143446159   -1.22232588036308
C         1.68047491006779   -0.44492200883417   -1.07287264681839
O         1.14868423134525    2.05616299402056   -2.52729684677975
O         1.97212531186627    3.20996827008989   -2.38596975851532
O         2.07070211858348   -0.96770366228616   -0.07442681430297
H         1.95425080855676    3.60039783470282   -3.27321711518422
H         1.20111150325472    2.08952493049052   -0.48288511922541
H        -0.41418675809236    2.28017597295653   -1.20433583735214
H         2.30290250974058   -0.40902616218656   -1.98353656357096
H        -0.12323500370854   -0.08740462299192   -2.14940006455327
H        -0.29808052848183    0.02090677316638   -0.36652493019789
12
 energy: -21.563477667179 gnorm: 0.008670729254 xtb: 6.2.3 (830e466)
C         0.55996115684512    1.75405744633818   -1.29050486927617
C         0.34451620971561    0.24033978759444   -1.22644965400191
C         1.67515845299693   -0.45033360629575   -1.06462374742683
O         1.14622092869035    2.06001793778357   -2.53675988369905
O         1.97079969499483    3.21429181902054   -2.39816311689843
O         2.05080089691220   -0.98745543502604   -0.06195488117916
H         1.93273732145002    3.60305205179435   -3.27554438474883
H         1.22398147959216    2.08572866508283   -0.48499483230915
H        -0.40376296862521    2.27947887184226   -1.19149060888145
H         2.31441980092277   -0.39647982184796   -1.97010670940513
H        -0.12366115742070   -0.08082475847172   -2.15816530911950
H        -0.30227181607409    0.01781704218525   -0.37705200305429
12
 energy: -21.563553418876 gnorm: 0.009507313229 xtb: 6.2.3 (830e466)
C         0.56327194204645    1.75467567107862   -1.28477534149849
C         0.34351965922827    0.23817231534059   -1.22748083821480
C         1.67069986869302   -0.45368649368025   -1.06182986469513
O         1.14663139572981    2.06770881051106   -2.53198184168600
O         1.95400257434821    3.22944595677858   -2.40151135020722
O         2.03982251802621   -0.99964650893708   -0.05991471623341
H         1.94310078619808    3.59992627288267   -3.29870704114358
H         1.23556662998855    2.08099180165582   -0.48051669246250
H        -0.39742686307786    2.28119223677507   -1.17983451555488
H         2.31629459129043   -0.38691551390127   -1.96389620704895
H        -0.11956945267752   -0.08113059228614   -2.16227197474666
H        -0.30701364979366    0.00895604378229   -0.38308961650827
12
 energy: -21.563611165322 gnorm: 0.006951202504 xtb: 6.2.3 (830e466)
C         0.56722864918467    1.75481898872925   -1.28487090661906
C         0.34324498704344    0.23850160308067   -1.22933726768522
C         1.67059241893818   -0.45238632773901   -1.06127953590458
O         1.15125519490778    2.06580799529350   -2.52932700388399
O         1.94991122056446    3.23459200427451   -2.40315962871697
O         2.03724771366013   -1.00325852911416   -0.06122587335180
H         1.93574292731941    3.60082158382760   -3.29916501002604
H         1.23836461899662    2.07770363163485   -0.48244227687465
H        -0.39092025309197    2.28116547463864   -1.17937987625398
H         2.31416423918374   -0.38913509567859   -1.95721563052523
H        -0.11949742006564   -0.07802391352331   -2.16363771952514
H        -0.30843429664083    0.00908258457600   -0.38476927063324
12
 energy: -21.563677186536 gnorm: 0.003721086824 xtb: 6.2.3 (830e466)
C         0.57864927391345    1.75435952711802   -1.27862708522292
C         0.34244420097534    0.23855271629028   -1.23565058468979
C         1.66618990935541   -0.45632389717410   -1.05163738823531
O         1.13821760889188    2.06678838294743   -2.53343584715694
O         1.93063894661428    3.24577884140213   -2.41676866809914
O         2.01352762510234   -1.02010841203665   -0.05475762795579
H         1.92843574235492    3.59347841729708   -3.31873416079719
H         1.26988730894140    2.05747048412030   -0.48690854244775
H        -0.37423920446247    2.28730165568938   -1.14220313965536
H         2.33154097405394   -0.37162220982477   -1.92988367123293
H        -0.10979453451233   -0.06266656771773   -2.18285663530063
H        -0.32659785122819    0.00668106188857   -0.40434664920613
12
 energy: -21.563785802201 gnorm: 0.002317403396 xtb: 6.2.3 (830e466)
C         0.58060752778441    1.75577484528091   -1.27709656179176
C         0.34440095117133    0.24052818306794   -1.23203193622516
C         1.66435197629150   -0.46098299757782   -1.05271776294647
O         1.14796358786924    2.06357656670500   -2.53000171355597
O         1.91721718966059    3.25837079174614   -2.41807331918099
O         2.00425418623417   -1.03900607823167   -0.06107634898478
H         1.92867498885977    3.58885465133360   -3.32639224478118
H         1.26845746370077    2.06451524478134   -0.48320834375483
H        -0.37172238342795    2.28998529780805   -1.14956326881861
H         2.33500495524891   -0.36425855643631   -1.92599381088754
H        -0.10773839688260   -0.06273343789998   -2.17727209295937
H        -0.32257204651015    0.00506548942274   -0.40238259611324
12
 energy: -21.563822527336 gnorm: 0.026551992235 xtb: 6.2.3 (830e466)
C         0.59191361191053    1.76340027204372   -1.26934791006863
C         0.35644877302806    0.25277990622963   -1.21251645609821
C         1.66281682206253   -0.47444937843264   -1.05200356045459
O         1.20679415350759    2.04285877787931   -2.51062627759819
O         1.83456355046769    3.33374519082254   -2.42514774141340
O         1.95330080343351   -1.15365536441369   -0.09997613288509
H         1.93108541270758    3.56035467949384   -3.37166423640461
H         1.25722014240418    2.09609744973078   -0.45959554291675
H        -0.36004947039672    2.30287011677286   -1.19067906876202
H         2.35398538420554   -0.33150207509788   -1.90537909452800
H        -0.09659620794475   -0.05832938603685   -2.15126961995279
H        -0.30258297538575    0.00551981100834   -0.38760435891762
12
 energy: -21.564076476496 gnorm: 0.004206194142 xtb: 6.2.3 (830e466)
C         0.58941503321820    1.75894581492647   -1.27437236202735
C         0.35106946586864    0.24712666303226   -1.22100981821094
C         1.66116273609108   -0.47437516956964   -1.05332486867197
O         1.18386949901546    2.05059778417389   -2.52022091995370
O         1.87145151542180    3.29753347539240   -2.42637697536383
O         1.97132984698714   -1.10941230180605   -0.08646760325059
H         1.92251872190783    3.57731707241159   -3.34965940168853
H         1.26322995569261    2.07872632959959   -0.47035846530625
H        -0.36166756005170    2.29829122115080   -1.17543819623686
H         2.35256026279713   -0.33441844560605   -1.90546901703234
H        -0.10479468468662   -0.06081015888627   -2.16219496309384
H        -0.31124479226157    0.01016771518096   -0.39091740916369
12
 energy: -21.564189094716 gnorm: 0.005083955837 xtb: 6.2.3 (830e466)
C         0.59361054559269    1.76004645700084   -1.27360032063336
C         0.35349549997606    0.24942637483758   -1.21734153067079
C         1.66125462181174   -0.47723327380291   -1.05190542617747
O         1.19837927755108    2.04588362249256   -2.51612751406792
O         1.85337673482308    3.31197122540355   -2.43095144643356
O         1.95856896211254   -1.13844442719783   -0.09765521516182
H         1.91912243101852    3.57358842721800   -3.35883767758344
H         1.26137341689536    2.08210046103737   -0.46525494477488
H        -0.35740696899918    2.30123542548941   -1.18468291783804
H         2.35974341599083   -0.32247742101143   -1.89571268535732
H        -0.10428417112722   -0.06029402644819   -2.15748377907587
H        -0.30833376564550    0.01388715498099   -0.38625654222544
12
 energy: -21.563959189493 gnorm: 0.034679335358 xtb: 6.2.3 (830e466)
C         0.61487113908859    1.76450614663835   -1.26958692019300
C         0.36407277311521    0.25917884392772   -1.20063509545652
C         1.65905627210697   -0.49574906769039   -1.04762081547249
O         1.26858603940914    2.02339936596504   -2.49492301209720
O         1.76150222308390    3.38111629226930   -2.45444166254507
O         1.89894615705536   -1.27652390492599   -0.15629847163538
H         1.90812767822639    3.55028266184474   -3.40611538402885
H         1.25317714938138    2.09354280546384   -0.43961036065206
H        -0.33589275976232    2.31474374834960   -1.22554297525494
H         2.39857911088164   -0.25185403959666   -1.84201437643804
H        -0.10525318397503   -0.05748465816381   -2.13548404730337
H        -0.29687259861121    0.03453180591822   -0.36353687892297
12
 energy: -21.564417302028 gnorm: 0.004832652441 xtb: 6.2.3 (830e466)
C         0.60440234296967    1.76230645059033   -1.27286981830880
C         0.35860856011820    0.25376687483511   -1.21061019896197
C         1.66300648454721   -0.48018900821258   -1.04643840212165
O         1.22993420213455    2.03824317857653   -2.50640023461483
O         1.81421724500189    3.33824011061491   -2.44494341758332
O         1.93040050901328   -1.20291620097609   -0.12829048294612
H         1.90970304159141    3.56763451112626   -3.37777506556193
H         1.25731760974419    2.08527605428798   -0.45360019476233
H        -0.34667268177825    2.30730502887383   -1.20335703219769
H         2.37683415078607   -0.29433419556096   -1.86732239114726
H        -0.10460263786645   -0.06119904758917   -2.14814996069379
H        -0.30424882626175    0.02555624343381   -0.37605280110019
12
 energy: -21.564488405042 gnorm: 0.003131935517 xtb: 6.2.3 (830e466)
C         0.60769958990737    1.76210386884225   -1.27226725106716
C         0.35903556483568    0.25433482332490   -1.20884802003177
C         1.65996153215237   -0.48745821566122   -1.04816600370548
O         1.23900643013140    2.03439094655291   -2.50359868907255
O         1.80155003644698    3.34547970710102   -2.44881567907352
O         1.92317925755997   -1.21884389285892   -0.13739520705805
H         1.90917501240148    3.56281839109461   -3.38474023682058
H         1.25756296420424    2.08433837717652   -0.45033354112927
H        -0.34288935272474    2.30892649614949   -1.20668646356883
H         2.38549808859333   -0.27572263169952   -1.85622369962735
H        -0.10694193142136   -0.05984365121024   -2.14562335538775
H        -0.30393719208671    0.02916578118816   -0.37311185345755
12
 energy: -21.564592126642 gnorm: 0.011097385723 xtb: 6.2.3 (830e466)
C         0.61789455376603    1.76473668363444   -1.26973100648415
C         0.36362505595031    0.25866730828510   -1.20193785329655
C         1.65846720154153   -0.49514584551582   -1.04492801461167
O         1.26669431902395    2.02612511596764   -2.49353999062680
O         1.76138574873185    3.36834002342083   -2.46468956981454
O         1.89491914270436   -1.28232619518309   -0.16949620093379
H         1.90268055474998    3.55193613467688   -3.40611622289495
H         1.25624404922852    2.08797035921162   -0.43902796586727
H        -0.33202922471586    2.31544237116462   -1.21964215188022
H         2.40614274339762   -0.23661051365622   -1.82330918057712
H        -0.10534859360798   -0.05721170436425   -2.13721333417962
H        -0.30177555077028    0.03776626235822   -0.36617850883320
12
 energy: -21.564664189314 gnorm: 0.007765073750 xtb: 6.2.3 (830e466)
C         0.62068542402075    1.76558956096953   -1.26867251569997
C         0.36509286037527    0.25966800151774   -1.20069768077382
C         1.65875239235412   -0.49524976428356   -1.04323977578810
O         1.27329245555074    2.02572321218494   -2.49022522591059
O         1.75051694424260    3.37393926365715   -2.46896238736840
O         1.88936749596560   -1.29280525552148   -0.17825043520946
H         1.90134704248016    3.55021575267790   -3.41045746033865
H         1.25610678733914    2.08939578459969   -0.43569451689795
H        -0.32920264102283    2.31663679300327   -1.22197281361210
H         2.40787500279889   -0.23565399839444   -1.81525722861762
H        -0.10307158403070   -0.05675733398941   -2.13612752652068
H        -0.30186218007371    0.03898798357863   -0.36625243326253
12
 energy: -21.564774651991 gnorm: 0.009175406920 xtb: 6.2.3 (830e466)
C         0.63078771845492    1.76939276154727   -1.26377127212005
C         0.37071032941096    0.26440377933800   -1.19555953361893
C         1.65799980237819   -0.49974738247761   -1.03667409600826
O         1.28878676886020    2.02426164934188   -2.48175484435514
O         1.72005207348277    3.38242797555286   -2.49189740324221
O         1.85890492525493   -1.34789412422760   -0.21077920545391
H         1.88644706222023    3.54541106961382   -3.42707454826285
H         1.26039809940461    2.09502617212896   -0.42661269415391
H        -0.31736922250289    2.32298847763829   -1.22582193880614
H         2.42792691003127   -0.20822947934629   -1.77490787420733
H        -0.09301195356695   -0.05037074171840   -2.13348296469328
H        -0.30273251342820    0.04201984260877   -0.36747362507787
12
 energy: -21.564850394979 gnorm: 0.008839557385 xtb: 6.2.3 (830e466)
C         0.63962469898109    1.77181354378957   -1.25774894508375
C         0.37494188189320    0.26800973815425   -1.19111069914825
C         1.65571697243166   -0.50684821358177   -1.03469158295483
O         1.30800772960809    2.02179053613566   -2.47084460975070
O         1.67952349397345    3.40141518079121   -2.50836267887154
O         1.83487443881382   -1.38974595719939   -0.24172387876193
H         1.88543640760664    3.53126768810675   -3.44685164029044
H         1.26287380943695    2.09827753124444   -0.41549215904839
H        -0.30694032869085    2.32801193021694   -1.22937997976388
H         2.44480377837931   -0.18459562433541   -1.74154307631931
H        -0.08716334882050   -0.04441789223043   -2.13083036585640
H        -0.30279953361280    0.04471153890813   -0.36723038415044
12
 energy: -21.564761751186 gnorm: 0.019668954444 xtb: 6.2.3 (830e466)
C         0.64091050456321    1.77257322651386   -1.25273353197593
C         0.37609440995804    0.26885844562767   -1.19249300439210
C         1.65370647830866   -0.51044420102092   -1.03551891059443
O         1.30482909075615    2.02543078178461   -2.46852540436139
O         1.66792563769445    3.40090534351160   -2.51496120862147
O         1.83009910480118   -1.38434324383596   -0.24943729591816
H         1.88793791571900    3.52434987441179   -3.45068101171910
H         1.26867947442620    2.09755203528878   -0.41331024339084
H        -0.30422846544239    2.32883809181318   -1.21993507080596
H         2.44967475461240   -0.18702538103105   -1.72834192057287
H        -0.08169439024340   -0.03788135048955   -2.13626689696081
H        -0.30503451515344    0.04087637742594   -0.37360550068681
12
 energy: -21.564924468511 gnorm: 0.001943148351 xtb: 6.2.3 (830e466)
C         0.64602633619134    1.77470715831650   -1.25228459568938
C         0.37972295456386    0.27183243952130   -1.18934376073923
C         1.65415862191061   -0.51305473690990   -1.03154753920449
O         1.31567115531298    2.02222842877999   -2.46647387710433
O         1.65455143257417    3.40747867543348   -2.52453561468617
O         1.81400784138334   -1.41724425459850   -0.26321933251938
H         1.87679761353264    3.52606996251676   -3.45746395491887
H         1.26951122943201    2.10069018292325   -0.40987359561451
H        -0.29921211163399    2.33230481912110   -1.22575533932074
H         2.45923590279120   -0.17443297140831   -1.71070701136943
H        -0.07778865121629   -0.03630661530536   -2.13315216684763
H        -0.30378232484182    0.04541691160965   -0.37145321198571
12
 energy: -21.564931036998 gnorm: 0.007358413960 xtb: 6.2.3 (830e466)
C         0.65038089060782    1.77728328197993   -1.24803543673545
C         0.38378353488238    0.27486278501573   -1.18730784459801