[Molden Format]
[Geometries] (XYZ)
12

C        0.841716       1.223431      -2.643417
C        0.267698       0.461555      -1.442660
C        1.300491       0.349098      -0.351169
O        1.177977       2.545141      -2.315320
O        2.249406       2.536734      -1.380956
O        1.129401       0.676537       0.789145
H        1.973451       3.174820      -0.707653
H        1.718998       0.699005      -3.042670
H        0.093972       1.341423      -3.430427
H        2.255847      -0.094371      -0.689759
H       -0.003102      -0.545144      -1.764351
H       -0.616755       0.971370      -1.056553
12

C        0.895351       1.169732      -2.444970
C        0.192749       0.604075      -1.166706
C        1.336110       0.748039      -0.245792
O        1.017324       2.501405      -2.119814
O        2.198554       2.629191      -0.868762
O        1.371672       0.723223       0.944122
H        1.717675       3.360341      -0.484732
H        1.756528       0.616954      -2.804227
H        0.406190       1.837064      -3.279168
H        2.298224       0.247648      -0.803208
H       -0.217992      -0.398610      -1.265632
H       -0.592768       1.328639      -0.978216
12

C        0.935947       1.146563      -2.095473
C        0.209317       0.712826      -0.689753
C        1.353609       1.009464       0.124342
O        0.822055       2.440904      -2.011383
O        2.093174       2.515189      -0.202331
O        1.552240       0.751769       1.276916
H        1.482605       3.254261      -0.182350
H        1.834165       0.579120      -2.345415
H        0.702264       2.181017      -3.046237
H        2.156527       0.338158      -0.883850
H       -0.232529      -0.281391      -0.623252
H       -0.541417       1.470525      -0.671407
12

C        0.930831       0.945205      -2.684860
C        0.392798       0.669505      -1.026776
C        1.293694       0.801295      -0.073008
O        0.556244       2.259211      -2.772587
O        1.917401       2.238796      -0.376396
O        1.547541       0.409050       1.022118
H        1.260938       2.964048      -0.557336
H        1.930675       0.222024      -2.759988
H        0.873077       1.962530      -3.781596
H        1.667313       0.270270      -1.926621
H       -0.025623      -0.365816      -0.891800
H       -0.347463       1.470817      -1.017084
12

C        1.445342       0.946484      -3.012742
C        0.827905       0.604887      -0.509421
C        1.550086       0.753644       0.198453
O        0.493576       2.066010      -2.771567
O        2.057052       2.004048       0.004374
O        1.888543       0.360552       1.279677
H        1.408550       2.589337      -0.186257
H        2.625098       0.218408      -3.059776
H        1.644053       1.935695      -4.149980
H        1.144445      -0.045811      -1.718713
H        0.406025      -0.417114      -0.308537
H        0.105306       1.470766      -0.451887
12

C        1.139791       0.970911      -1.830000
C        0.707527       0.605990      -0.804787
C        1.573305       0.798490      -0.382279
O        0.148830       1.554710      -3.189391
O        2.025592       1.950671      -0.689832
O        2.118348       0.357330       0.587534
H        1.419488       2.627755      -0.827269
H        2.161354       0.123197      -1.669115
H        1.619793       1.974580      -2.771111
H        0.613785      -0.407435      -3.452672
H        0.356538      -0.448068      -0.616180
H       -0.087838       1.372624      -0.622507
12

C        0.952094       1.163819      -2.302638
C        0.289555       0.695480      -1.075809
C        1.448228       0.932348      -0.342564
O        0.064779       1.554377      -3.299254
O        1.912784       2.172367      -0.656760
O        1.932476       0.477253       0.648539
H        1.236446       2.884405      -0.881389
H        1.805745       0.345529      -2.308882
H        1.230114       2.172883      -2.950152
H        0.299678      -0.167811      -2.921834
H       -0.032793      -0.378160      -0.932187
H       -0.516542       1.393316      -1.041237
12

C        1.040508       1.059126      -2.561880
C        0.354584       0.727924      -1.217411
C        1.501633       1.021395      -0.325931
O        0.058538       1.119966      -3.500577
O        1.884486       2.332812      -0.474959
O        1.960321       0.411582       0.590279
H        1.217022       2.914503      -0.884447
H        1.849966       0.318810      -2.691668
H        1.296191       2.071530      -2.941829
H       -0.072888      -0.064659      -3.215019
H        0.043693      -0.318697      -1.097881
H       -0.486935       1.408819      -1.161329
12

C        1.241480       0.955732      -2.521835
C        0.582733       0.825022      -1.135205
C        1.534892       1.302842      -0.055498
O        0.338487       0.692607      -3.562886
O        1.679720       2.636807       0.020090
O        2.141449       0.573676       0.671232
H        1.127693       3.111009      -0.616005
H        2.113583       0.290026      -2.573238
H        1.583185       1.981623      -2.691602
H        0.047188      -0.224303      -3.507857
H        0.336188      -0.220498      -0.942814
H       -0.337496       1.415057      -1.120173
[GEOCONV]
energy
0.0
63.1075075542
106.784039323
150.824284055
376.74033782
623.772085152
160.34038319
1.02948708535
-63.6729322133
max-force
3.69897840335e-05
0.00975787700375
0.00976876255542
0.009983484046
0.00805544052584
0.0325925006304
0.0177078051086
0.00628004652098
8.40134829752e-05
max-step
1000.0
1000.0
1000.0
1000.0
1000.0
1000.0
1000.0
1000.0
1000.0
