[Molden Format]
[Geometries] (XYZ)
12

C        0.841716       1.223431      -2.643417
C        0.267698       0.461555      -1.442660
C        1.300491       0.349098      -0.351169
O        1.177977       2.545141      -2.315320
O        2.249406       2.536734      -1.380956
O        1.129401       0.676537       0.789145
H        1.973451       3.174820      -0.707653
H        1.718998       0.699005      -3.042670
H        0.093972       1.341423      -3.430427
H        2.255847      -0.094371      -0.689759
H       -0.003102      -0.545144      -1.764351
H       -0.616755       0.971370      -1.056553
12

C        0.887312       1.063449      -2.667788
C        0.189194       0.483165      -1.414916
C        1.345885       0.585845      -0.467207
O        1.057757       2.412126      -2.305780
O        2.166659       2.504192      -1.158796
O        1.365291       0.597051       0.727382
H        1.718797       3.245553      -0.745039
H        1.748058       0.508754      -3.020855
H        0.383117       1.665033      -3.486839
H        2.276840       0.104128      -0.996326
H       -0.209461      -0.522085      -1.554160
H       -0.596186       1.206927      -1.204932
12

C        0.933600       0.984028      -2.673845
C        0.212400       0.533719      -1.319609
C        1.374858       0.787875      -0.478789
O        0.878964       2.297259      -2.544034
O        2.126650       2.355617      -0.875820
O        1.536386       0.585084       0.697760
H        1.539099       3.106192      -0.756308
H        1.826215       0.419494      -2.943653
H        0.631527       1.957247      -3.627686
H        2.206117       0.176861      -1.337197
H       -0.227202      -0.464587      -1.302147
H       -0.562487       1.289547      -1.263723
12

C        0.978916       0.946314      -2.859729
C        0.371337       0.636872      -1.259512
C        1.403899       0.831617      -0.268788
O        0.676958       2.270755      -2.891523
O        2.043271       2.254986      -0.623603
O        1.667750       0.493771       0.836366
H        1.405125       2.986534      -0.735876
H        1.977666       0.320224      -2.982870
H        0.830647       2.042177      -3.910586
H        1.835953       0.220591      -1.843952
H       -0.043542      -0.374072      -1.131094
H       -0.384057       1.413822      -1.269021
12

C        1.160512       0.959258      -3.227283
C        0.647728       0.646709      -0.975704
C        1.358687       0.856173      -0.209184
O        0.506547       2.223718      -3.036850
O        1.967427       2.168499      -0.436382
O        1.596808       0.477109       0.884079
H        1.359127       2.789131      -0.630607
H        2.231781       0.334652      -3.235111
H        1.158221       2.015928      -4.244672
H        1.351906       0.139612      -2.155698
H        0.252941      -0.340916      -0.795618
H       -0.107337       1.492847      -0.975741
12

C        1.183891       1.079056      -2.527311
C        0.438522       0.597907      -1.025966
C        1.468069       0.887647      -0.271879
O        0.235960       1.902729      -3.127507
O        2.067082       2.299651      -0.664160
O        1.906014       0.483332       0.765818
H        1.315422       2.892727      -0.829637
H        1.983824       0.281022      -2.344313
H        1.459246       2.161381      -3.273818
H        1.065635      -0.109043      -2.760191
H        0.071237      -0.438867      -0.888641
H       -0.370537       1.343717      -0.917511
12

C        1.125930       1.158318      -2.319514
C        0.403297       0.694215      -1.068390
C        1.552525       0.984384      -0.238497
O        0.300533       1.549847      -3.336860
O        1.971825       2.292642      -0.511740
O        2.015933       0.501444       0.741007
H        1.287066       2.946259      -0.788681
H        2.000229       0.380892      -2.280987
H        1.426594       2.148970      -2.901621
H        0.586250      -0.173402      -3.001707
H        0.107969      -0.366055      -0.943147
H       -0.458101       1.367110      -1.032068
12

C        1.191379       1.122649      -2.398696
C        0.476151       0.802127      -1.114817
C        1.570790       1.114742      -0.171682
O        0.289414       1.130774      -3.441172
O        1.905085       2.416384      -0.281262
O        2.026236       0.492833       0.744370
H        1.238369       2.990317      -0.695039
H        2.041830       0.415703      -2.451224
H        1.463142       2.140247      -2.754154
H        0.204546      -0.046018      -3.219294
H        0.195984      -0.249903      -1.001667
H       -0.400847       1.446907      -1.096815
12

C        1.241480       0.955732      -2.521835
C        0.582733       0.825022      -1.135205
C        1.534892       1.302842      -0.055498
O        0.338487       0.692607      -3.562886
O        1.679720       2.636807       0.020090
O        2.141449       0.573676       0.671232
H        1.127693       3.111009      -0.616005
H        2.113583       0.290026      -2.573238
H        1.583185       1.981623      -2.691602
H        0.047188      -0.224303      -3.507857
H        0.336188      -0.220498      -0.942814
H       -0.337496       1.415057      -1.120173
[GEOCONV]
energy
0.0
42.2031445573
111.102251948
111.262378328
304.977918487
133.122452674
135.224862486
-8.05103424302
-63.6729322133
max-force
3.69897840335e-05
0.00761913844198
0.00935052181532
0.014400181091
0.105916797107
0.0203593280168
0.0172845165655
0.0110446793217
8.40134829752e-05
max-step
1000.0
1000.0
1000.0
1000.0
1000.0
1000.0
1000.0
1000.0
1000.0
