47
	Energy:      61.3719588
C          5.55269       -6.76276        0.13203
C          4.69741       -6.87432        1.44417
C          4.61557       -5.58014        2.29264
H          5.21618       -7.57099        2.14147
H          3.70928       -7.34161        1.24361
C          3.94786       -4.43077        1.59211
H          5.65461       -5.26791        2.52772
H          4.11629       -5.81602        3.25611
C          6.50830       -7.97121        0.04780
H          7.17117       -8.01135        0.93834
H          7.16288       -7.89111       -0.84732
H          5.93689       -8.92299       -0.01455
C          4.73169       -6.76115       -1.19471
H          6.21050       -5.86748        0.19098
C          3.73519       -5.65040       -1.40977
H          4.15950       -7.71173       -1.25113
H          5.45321       -6.75813       -2.04309
C          3.78185       -4.84240       -2.48763
C          2.73986       -3.81316       -2.70540
C          2.94615       -3.64990        2.07698
C          2.40042       -2.57004        1.18815
C          2.41487       -3.84478        3.48457
H          1.63518       -3.10696        3.75680
H          3.24717       -3.71115        4.21012
H          1.98104       -4.85781        3.60908
O          2.88128       -2.44963        0.06789
C          1.27584       -1.63689        1.61264
C          0.78094       -0.67456        0.54592
H          1.63271       -1.04194        2.48080
H          0.40318       -2.24707        1.93027
S         -0.51864        0.50629        0.96438
C         -0.83208        1.10369       -0.73479
H          0.09958        1.50224       -1.19010
H         -1.55185        1.94554       -0.68873
H         -1.27655        0.29646       -1.35426
O          1.24245       -0.68725       -0.58706
C          2.70398       -3.04717       -3.80682
C          1.62588       -2.04690       -3.98056
C          1.51599       -1.31048       -5.08906
H          4.35333       -4.21289        0.61522
H          0.89379       -1.90515       -3.19025
H          2.21444       -1.41759       -5.91294
H          0.70768       -0.59025       -5.17867
H          1.96506       -3.69186       -1.95481
H          3.45708       -3.16590       -4.58320
H          2.92523       -5.54243       -0.69592
H          4.57101       -4.96044       -3.22728
47
	Energy:     124.1251085
C          4.93343       -6.79284       -0.08489
C          4.77038       -6.35084        1.37377
C          5.15750       -4.86951        1.51528
H          5.51635       -6.89026        2.00038
H          3.76468       -6.60982        1.77237
C          4.35125       -3.81853        0.71041
H          6.21784       -4.78915        1.18924
H          5.15186       -4.60771        2.59570
C          5.45122       -8.23158       -0.21847
H          6.42243       -8.32742        0.31890
H          5.66764       -8.44761       -1.28988
H          4.73631       -8.97885        0.17293
C          3.63009       -6.58351       -0.89480
H          5.76847       -6.21505       -0.53913
C          3.09721       -5.13207       -1.03240
H          2.81133       -7.26990       -0.58769
H          3.92691       -6.89749       -1.92260
C          4.17399       -4.04557       -0.84287
C          3.56085       -2.85469       -1.55670
C          3.02173       -3.49926        1.37240
C          1.87950       -3.88363        0.75060
C          3.01768       -2.75208        2.68699
H          2.47523       -1.79008        2.63652
H          4.04950       -2.56008        3.04982
H          2.53250       -3.40361        3.45097
O          1.94990       -4.79855       -0.26876
C          0.52069       -3.27194        1.16735
C          0.41647       -1.78787        0.74704
H          0.36076       -3.35826        2.26198
H         -0.29693       -3.80947        0.64875
S         -1.07265       -0.79308        1.03478
C         -0.85545        0.43412       -0.33479
H          0.17194        0.85727       -0.38127
H         -1.51046        1.31353       -0.14826
H         -1.14351       -0.00183       -1.31408
O          1.35693       -1.22875        0.21636
C          3.46860       -2.79162       -2.89601
C          2.53523       -1.82852       -3.51726
C          2.40932       -1.71173       -4.83973
H          4.94428       -2.88001        0.78584
H          1.87227       -1.24827       -2.88023
H          3.03306       -2.28010       -5.52163
H          1.65984       -1.03932       -5.24686
H          3.03249       -2.13341       -0.97695
H          3.99141       -3.51505       -3.51917
H          2.72158       -5.12945       -2.08040
H          5.14464       -4.25709       -1.34185
