47
	Energy:      61.3719588
C          5.55269       -6.76276        0.13203
C          4.69741       -6.87432        1.44417
C          4.61557       -5.58014        2.29264
H          5.21618       -7.57099        2.14147
H          3.70928       -7.34161        1.24361
C          3.94786       -4.43077        1.59211
H          5.65461       -5.26791        2.52772
H          4.11629       -5.81602        3.25611
C          6.50830       -7.97121        0.04780
H          7.17117       -8.01135        0.93834
H          7.16288       -7.89111       -0.84732
H          5.93689       -8.92299       -0.01455
C          4.73169       -6.76115       -1.19471
H          6.21050       -5.86748        0.19098
C          3.73519       -5.65040       -1.40977
H          4.15950       -7.71173       -1.25113
H          5.45321       -6.75813       -2.04309
C          3.78185       -4.84240       -2.48763
C          2.73986       -3.81316       -2.70540
C          2.94615       -3.64990        2.07698
C          2.40042       -2.57004        1.18815
C          2.41487       -3.84478        3.48457
H          1.63518       -3.10696        3.75680
H          3.24717       -3.71115        4.21012
H          1.98104       -4.85781        3.60908
O          2.88128       -2.44963        0.06789
C          1.27584       -1.63689        1.61264
C          0.78094       -0.67456        0.54592
H          1.63271       -1.04194        2.48080
H          0.40318       -2.24707        1.93027
S         -0.51864        0.50629        0.96438
C         -0.83208        1.10369       -0.73479
H          0.09958        1.50224       -1.19010
H         -1.55185        1.94554       -0.68873
H         -1.27655        0.29646       -1.35426
O          1.24245       -0.68725       -0.58706
C          2.70398       -3.04717       -3.80682
C          1.62588       -2.04690       -3.98056
C          1.51599       -1.31048       -5.08906
H          4.35333       -4.21289        0.61522
H          0.89379       -1.90515       -3.19025
H          2.21444       -1.41759       -5.91294
H          0.70768       -0.59025       -5.17867
H          1.96506       -3.69186       -1.95481
H          3.45708       -3.16590       -4.58320
H          2.92523       -5.54243       -0.69592
H          4.57101       -4.96044       -3.22728
47
	Energy:     116.8037536
C          5.59686       -6.72790        0.10964
C          4.89406       -7.10188        1.40820
C          4.36344       -5.85368        2.12421
H          5.54025       -7.66341        2.11954
H          4.04331       -7.76534        1.13333
C          4.04042       -4.66386        1.17192
H          5.11885       -5.46458        2.84380
H          3.50102       -6.22131        2.71122
C          6.31472       -7.95066       -0.47428
H          7.06787       -8.32443        0.25574
H          6.84674       -7.68322       -1.40979
H          5.59571       -8.77213       -0.68073
C          4.54458       -6.13134       -0.88396
H          6.37402       -5.96551        0.34269
C          3.56065       -5.08812       -0.23121
H          3.91399       -6.94106       -1.31465
H          5.11714       -5.69388       -1.72918
C          3.43590       -3.77275       -1.09067
C          2.43379       -3.80888       -2.21009
C          3.02934       -3.67933        1.77256
C          2.57130       -2.70750        0.93907
C          2.54330       -3.81326        3.20087
H          1.83533       -3.02491        3.51857
H          3.40920       -3.77458        3.89233
H          2.00075       -4.77205        3.32726
O          2.97713       -2.69530       -0.33811
C          1.55382       -1.66424        1.39214
C          1.07524       -0.67187        0.34794
H          1.99209       -1.08275        2.22640
H          0.65006       -2.20460        1.74173
S         -0.14209        0.55714        0.87764
C         -0.72776        1.04976       -0.77722
H          0.08912        1.54350       -1.34309
H         -1.54092        1.79348       -0.64479
H         -1.15122        0.18258       -1.32544
O          1.49144       -0.67515       -0.79387
C          2.62635       -3.03803       -3.29464
C          1.50926       -2.71404       -4.20798
C          1.67419       -1.85532       -5.21883
H          4.99872       -4.12529        0.98377
H          0.51792       -3.11876       -4.02214
H          2.64100       -1.40405       -5.42306
H          0.83012       -1.58140       -5.84438
H          1.43985       -4.20520       -2.01463
H          3.58303       -2.54384       -3.44525
H          2.56886       -5.56511       -0.05562
H          4.44755       -3.47645       -1.44523
