47
	Energy:      61.3719588
C          5.55269       -6.76276        0.13203
C          4.69741       -6.87432        1.44417
C          4.61557       -5.58014        2.29264
H          5.21618       -7.57099        2.14147
H          3.70928       -7.34161        1.24361
C          3.94786       -4.43077        1.59211
H          5.65461       -5.26791        2.52772
H          4.11629       -5.81602        3.25611
C          6.50830       -7.97121        0.04780
H          7.17117       -8.01135        0.93834
H          7.16288       -7.89111       -0.84732
H          5.93689       -8.92299       -0.01455
C          4.73169       -6.76115       -1.19471
H          6.21050       -5.86748        0.19098
C          3.73519       -5.65040       -1.40977
H          4.15950       -7.71173       -1.25113
H          5.45321       -6.75813       -2.04309
C          3.78185       -4.84240       -2.48763
C          2.73986       -3.81316       -2.70540
C          2.94615       -3.64990        2.07698
C          2.40042       -2.57004        1.18815
C          2.41487       -3.84478        3.48457
H          1.63518       -3.10696        3.75680
H          3.24717       -3.71115        4.21012
H          1.98104       -4.85781        3.60908
O          2.88128       -2.44963        0.06789
C          1.27584       -1.63689        1.61264
C          0.78094       -0.67456        0.54592
H          1.63271       -1.04194        2.48080
H          0.40318       -2.24707        1.93027
S         -0.51864        0.50629        0.96438
C         -0.83208        1.10369       -0.73479
H          0.09958        1.50224       -1.19010
H         -1.55185        1.94554       -0.68873
H         -1.27655        0.29646       -1.35426
O          1.24245       -0.68725       -0.58706
C          2.70398       -3.04717       -3.80682
C          1.62588       -2.04690       -3.98056
C          1.51599       -1.31048       -5.08906
H          4.35333       -4.21289        0.61522
H          0.89379       -1.90515       -3.19025
H          2.21444       -1.41759       -5.91294
H          0.70768       -0.59025       -5.17867
H          1.96506       -3.69186       -1.95481
H          3.45708       -3.16590       -4.58320
H          2.92523       -5.54243       -0.69592
H          4.57101       -4.96044       -3.22728
47
	Energy:     148.8172134
C          5.61809       -6.13394        0.40979
C          4.46486       -6.57813        1.37973
C          3.92738       -5.51968        2.38561
H          4.84599       -7.36467        2.07090
H          3.65913       -7.09420        0.81924
C          3.59271       -4.09634        1.93047
H          4.72278       -5.36660        3.14829
H          3.05427       -5.94461        2.92450
C          6.65928       -7.26777        0.32510
H          7.07820       -7.49162        1.32949
H          7.49991       -6.98276       -0.34157
H          6.19262       -8.19866       -0.06939
C          5.15193       -5.84298       -1.06317
H          6.13600       -5.25416        0.84713
C          3.91028       -4.96329       -1.20052
H          4.86087       -6.82230       -1.50963
H          5.99252       -5.43978       -1.66828
C          3.27294       -4.93719       -2.57922
C          1.86871       -4.35456       -2.37468
C          2.43783       -3.84575        0.93107
C          2.87303       -3.04848       -0.35418
C          1.17721       -4.69533        1.06581
H          0.38005       -4.36659        0.37783
H          0.79722       -4.57581        2.10197
H          1.39571       -5.76600        0.88585
O          4.11729       -3.61589       -0.77521
C          3.13411       -1.59947        0.23087
C          2.81366       -0.35697       -0.57544
H          4.18762       -1.53670        0.57872
H          2.52015       -1.46174        1.14953
S          1.80241        0.93357        0.20944
C          0.41834        0.96148       -0.97090
H          0.78813        1.13692       -2.00023
H         -0.23758        1.81718       -0.70444
H         -0.20646        0.05492       -0.88754
O          3.35642       -0.13896       -1.64076
C          1.93991       -2.99869       -1.63956
C          0.55355       -2.45370       -1.42687
C         -0.26800       -2.25837       -2.46742
H          4.53282       -3.59340        1.61611
H          0.21355       -2.20289       -0.42828
H          0.05145       -2.48958       -3.48109
H         -1.26477       -1.86028       -2.31673
H          1.26100       -5.07598       -1.78770
H          2.44786       -2.32455       -2.36227
H          3.18458       -5.52348       -0.59208
H          3.88086       -4.32251       -3.27882
