47
	Energy:      61.3719588
C          5.55269       -6.76276        0.13203
C          4.69741       -6.87432        1.44417
C          4.61557       -5.58014        2.29264
H          5.21618       -7.57099        2.14147
H          3.70928       -7.34161        1.24361
C          3.94786       -4.43077        1.59211
H          5.65461       -5.26791        2.52772
H          4.11629       -5.81602        3.25611
C          6.50830       -7.97121        0.04780
H          7.17117       -8.01135        0.93834
H          7.16288       -7.89111       -0.84732
H          5.93689       -8.92299       -0.01455
C          4.73169       -6.76115       -1.19471
H          6.21050       -5.86748        0.19098
C          3.73519       -5.65040       -1.40977
H          4.15950       -7.71173       -1.25113
H          5.45321       -6.75813       -2.04309
C          3.78185       -4.84240       -2.48763
C          2.73986       -3.81316       -2.70540
C          2.94615       -3.64990        2.07698
C          2.40042       -2.57004        1.18815
C          2.41487       -3.84478        3.48457
H          1.63518       -3.10696        3.75680
H          3.24717       -3.71115        4.21012
H          1.98104       -4.85781        3.60908
O          2.88128       -2.44963        0.06789
C          1.27584       -1.63689        1.61264
C          0.78094       -0.67456        0.54592
H          1.63271       -1.04194        2.48080
H          0.40318       -2.24707        1.93027
S         -0.51864        0.50629        0.96438
C         -0.83208        1.10369       -0.73479
H          0.09958        1.50224       -1.19010
H         -1.55185        1.94554       -0.68873
H         -1.27655        0.29646       -1.35426
O          1.24245       -0.68725       -0.58706
C          2.70398       -3.04717       -3.80682
C          1.62588       -2.04690       -3.98056
C          1.51599       -1.31048       -5.08906
H          4.35333       -4.21289        0.61522
H          0.89379       -1.90515       -3.19025
H          2.21444       -1.41759       -5.91294
H          0.70768       -0.59025       -5.17867
H          1.96506       -3.69186       -1.95481
H          3.45708       -3.16590       -4.58320
H          2.92523       -5.54243       -0.69592
H          4.57101       -4.96044       -3.22728
47
	Energy:     151.1676103
C          4.53817       -4.71325        2.10319
C          3.56148       -5.77677        2.69579
C          2.64697       -5.33503        3.85221
H          4.11867       -6.62832        3.14765
H          2.98937       -6.22296        1.85519
C          1.99101       -3.98574        3.66269
H          3.23058       -5.26750        4.79571
H          1.88118       -6.12558        4.00866
C          5.82133       -5.47858        1.71210
H          6.25583       -5.98472        2.60297
H          6.59968       -4.77693        1.34227
H          5.61277       -6.23884        0.93043
C          4.00433       -3.95855        0.81028
H          4.88772       -3.99906        2.88112
C          3.24596       -2.57967        0.91396
H          3.49826       -4.66219        0.11450
H          4.94257       -3.66098        0.28963
C          3.34350       -1.91441       -0.44516
C          2.28929       -1.49371       -1.14353
C          1.47486       -3.81117        2.24250
C          1.75965       -2.51022        1.46009
C          0.56063       -4.87898        1.60419
H         -0.48615       -4.51447        1.57354
H          0.58598       -5.84547        2.13968
H          0.90220       -5.06697        0.56147
O          0.75962       -2.52314        0.45489
C          1.54066       -1.28749        2.42884
C          1.48785        0.10686        1.85485
H          2.35295       -1.25997        3.18442
H          0.59039       -1.44588        2.98051
S          0.08619        1.15987        2.30730
C         -0.22807        1.90305        0.67696
H          0.68599        2.39243        0.28412
H         -0.99068        2.69691        0.81503
H         -0.65844        1.16817       -0.02867
O          2.43464        0.56830        1.24265
C          0.88210       -1.64968       -0.64322
C         -0.02761       -2.21317       -1.70449
C         -0.28471       -1.58288       -2.85303
H          2.78117       -3.23719        3.85596
H         -0.53195       -3.15824       -1.51487
H          0.16913       -0.62582       -3.08458
H         -0.97401       -2.02851       -3.56376
H          2.46122       -0.98971       -2.09076
H          0.47982       -0.65790       -0.39204
H          3.88465       -1.98719        1.60468
H          4.32854       -1.76218       -0.87966
