47
	Energy:      61.3719588
C          5.55269       -6.76276        0.13203
C          4.69741       -6.87432        1.44417
C          4.61557       -5.58014        2.29264
H          5.21618       -7.57099        2.14147
H          3.70928       -7.34161        1.24361
C          3.94786       -4.43077        1.59211
H          5.65461       -5.26791        2.52772
H          4.11629       -5.81602        3.25611
C          6.50830       -7.97121        0.04780
H          7.17117       -8.01135        0.93834
H          7.16288       -7.89111       -0.84732
H          5.93689       -8.92299       -0.01455
C          4.73169       -6.76115       -1.19471
H          6.21050       -5.86748        0.19098
C          3.73519       -5.65040       -1.40977
H          4.15950       -7.71173       -1.25113
H          5.45321       -6.75813       -2.04309
C          3.78185       -4.84240       -2.48763
C          2.73986       -3.81316       -2.70540
C          2.94615       -3.64990        2.07698
C          2.40042       -2.57004        1.18815
C          2.41487       -3.84478        3.48457
H          1.63518       -3.10696        3.75680
H          3.24717       -3.71115        4.21012
H          1.98104       -4.85781        3.60908
O          2.88128       -2.44963        0.06789
C          1.27584       -1.63689        1.61264
C          0.78094       -0.67456        0.54592
H          1.63271       -1.04194        2.48080
H          0.40318       -2.24707        1.93027
S         -0.51864        0.50629        0.96438
C         -0.83208        1.10369       -0.73479
H          0.09958        1.50224       -1.19010
H         -1.55185        1.94554       -0.68873
H         -1.27655        0.29646       -1.35426
O          1.24245       -0.68725       -0.58706
C          2.70398       -3.04717       -3.80682
C          1.62588       -2.04690       -3.98056
C          1.51599       -1.31048       -5.08906
H          4.35333       -4.21289        0.61522
H          0.89379       -1.90515       -3.19025
H          2.21444       -1.41759       -5.91294
H          0.70768       -0.59025       -5.17867
H          1.96506       -3.69186       -1.95481
H          3.45708       -3.16590       -4.58320
H          2.92523       -5.54243       -0.69592
H          4.57101       -4.96044       -3.22728
47
	Energy:     144.0315856
C          5.65464       -6.90458       -0.37214
C          4.69515       -6.78790        0.86951
C          3.92577       -5.45186        1.28493
H          5.26181       -7.06826        1.78626
H          3.95810       -7.61660        0.77428
C          3.58935       -4.12120        0.46234
H          4.52302       -5.05353        2.13521
H          2.98606       -5.83574        1.72885
C          6.70275       -8.00421       -0.14712
H          7.31032       -7.77975        0.75535
H          7.39052       -8.06386       -1.01777
H          6.21402       -8.99278       -0.00724
C          4.86467       -7.26557       -1.68763
H          6.21181       -5.94697       -0.45919
C          3.66643       -6.40044       -1.71231
H          4.49564       -8.31277       -1.61610
H          5.49189       -7.17271       -2.60078
C          3.89596       -5.10108       -1.69296
C          2.94884       -4.25492       -0.94491
C          2.68922       -3.14657        1.26524
C          2.16014       -2.06667        0.60800
C          2.39610       -3.39287        2.73912
H          1.75906       -2.62449        3.21464
H          3.34675       -3.41602        3.31040
H          1.85825       -4.35209        2.87325
O          2.38904       -1.90921       -0.71950
C          1.26660       -1.03412        1.29189
C          0.81539        0.13110        0.42785
H          1.79894       -0.59598        2.16225
H          0.35757       -1.56533        1.64642
S         -0.35015        1.32460        1.10287
C         -1.29819        1.51336       -0.44699
H         -0.70565        2.09033       -1.18853
H         -2.22943        2.07560       -0.23279
H         -1.59579        0.52297       -0.85228
O          1.24554        0.30402       -0.70157
C          2.86986       -2.85488       -1.60147
C          1.95194       -2.88748       -2.79469
C          2.35204       -2.52873       -4.01680
H          4.56568       -3.60643        0.29623
H          0.91958       -3.19437       -2.64896
H          3.36916       -2.20027       -4.20293
H          1.64768       -2.55282       -4.84218
H          1.93656       -4.70704       -0.81739
H          3.88728       -2.50789       -1.89398
H          2.70509       -6.83009       -1.43736
H          4.90130       -4.71444       -1.85761
