[Molden Format]
[Geometries] (XYZ)
12

C        0.852913       1.317656      -2.577562
C        0.421857       0.276951      -1.537441
C        1.404978       0.303681      -0.390014
O        0.650927       2.631356      -2.113282
O        1.309505       2.833280      -0.882196
O        2.588248       0.152989      -0.520285
H        2.198100       3.149556      -1.111832
H        1.907706       1.152619      -2.840342
H        0.234704       1.273867      -3.475899
H        0.953874       0.464493       0.604431
H        0.453237      -0.710077      -2.000755
H       -0.586949       0.493239      -1.190622
12

C        0.824163       1.337913      -2.607656
C        0.401790       0.299448      -1.561169
C        1.379483       0.462769      -0.425133
O        0.667768       2.644135      -2.103618
O        1.272563       2.793991      -0.853162
O        2.561041       0.313380      -0.577093
H        2.271455       3.036977      -0.996365
H        1.868218       1.159431      -2.901101
H        0.179966       1.321705      -3.488644
H        0.937457       0.593772       0.577657
H        0.489613      -0.702729      -1.979988
H       -0.621123       0.477091      -1.230725
12

C        0.798383       1.349058      -2.630677
C        0.382997       0.312719      -1.574600
C        1.359868       0.597553      -0.452415
O        0.676704       2.643090      -2.085270
O        1.246170       2.737422      -0.834719
O        2.542070       0.454529      -0.625923
H        2.290073       2.864007      -0.886949
H        1.836846       1.163992      -2.938680
H        0.144174       1.352154      -3.503995
H        0.932684       0.708219       0.558850
H        0.511088      -0.698319      -1.955503
H       -0.646982       0.460786      -1.249971
12

C        0.778697       1.353944      -2.651730
C        0.385585       0.321167      -1.585874
C        1.342258       0.709873      -0.474741
O        0.664243       2.633414      -2.077287
O        1.204383       2.669253      -0.820117
O        2.533831       0.580789      -0.656140
H        2.415361       2.698622      -0.793002
H        1.816047       1.177436      -2.970006
H        0.117874       1.358511      -3.519685
H        0.920728       0.793547       0.540304
H        0.561196      -0.693556      -1.936074
H       -0.651363       0.430445      -1.267632
12

C        0.758107       1.356350      -2.675736
C        0.393648       0.333428      -1.597919
C        1.322044       0.803044      -0.490775
O        0.633300       2.618870      -2.081794
O        1.156236       2.592645      -0.808792
O        2.548401       0.691493      -0.670465
H        2.562284       2.529865      -0.718501
H        1.797344       1.193749      -2.999911
H        0.094521       1.352371      -3.540267
H        0.901170       0.860376       0.523670
H        0.616566      -0.682538      -1.922270
H       -0.647671       0.405192      -1.286966
12

C        0.731928       1.348927      -2.704520
C        0.403204       0.340428      -1.609267
C        1.296828       0.885808      -0.506431
O        0.596138       2.601377      -2.100483
O        1.099199       2.517213      -0.798856
O        2.571315       0.790353      -0.679839
H        2.710375       2.332219      -0.628007
H        1.771498       1.199851      -3.040212
H        0.062071       1.328412      -3.561904
H        0.877811       0.913511       0.506480
H        0.675607      -0.674229      -1.908110
H       -0.639682       0.372034      -1.303795
12

C        0.701150       1.335024      -2.734144
C        0.420934       0.343242      -1.617136
C        1.269482       0.970473      -0.519976
O        0.555527       2.585312      -2.132995
O        1.036554       2.464489      -0.796518
O        2.595299       0.868043      -0.678293
H        2.869959       2.098524      -0.501013
H        1.736226       1.202714      -3.093754
H        0.013333       1.288611      -3.574962
H        0.854246       0.956062       0.492203
H        0.753545      -0.662987      -1.885966
H       -0.622145       0.324910      -1.315854
12

C        0.677233       1.320607      -2.752615
C        0.461291       0.341288      -1.610300
C        1.252691       1.065176      -0.524250
O        0.531172       2.578305      -2.165338
O        0.989437       2.463829      -0.804928
O        2.608036       0.895989      -0.652325
H        3.015499       1.844955      -0.330199
H        1.696094       1.203490      -3.157870
H       -0.050971       1.248816      -3.557337
H        0.850822       0.984381       0.491353
H        0.873421      -0.644423      -1.833561
H       -0.581830       0.260745      -1.319902
12

C        0.655048       1.310659      -2.770479
C        0.510316       0.337813      -1.601244
C        1.232658       1.160409      -0.531967
O        0.528464       2.591267      -2.197080
O        0.946415       2.495577      -0.824875
O        2.598677       0.881370      -0.602535
H        3.086258       1.573663      -0.140949
H        1.639156       1.194670      -3.243466
H       -0.135845       1.227045      -3.515586
H        0.854908       0.987897       0.488242
H        1.006092      -0.612635      -1.767678
H       -0.533045       0.191874      -1.328185
[GEOCONV]
energy
0.0
2.71369790205
6.55963247669
23.0108737086
42.5151067506
40.4325018469
10.7143524152
-14.7639649624
-23.2070478977
max-force
1.65769708224e-05
0.00634852275178
0.00590434215775
0.00791909277687
0.00620520631135
0.00702005581577
0.00821439324174
0.00827481803319
7.19872683386e-05
max-step
1000.0
1000.0
1000.0
1000.0
1000.0
1000.0
1000.0
1000.0
1000.0
