[Molden Format]
[Geometries] (XYZ)
12

C        0.852913       1.317656      -2.577562
C        0.421857       0.276951      -1.537441
C        1.404978       0.303681      -0.390014
O        0.650927       2.631356      -2.113282
O        1.309505       2.833280      -0.882196
O        2.588248       0.152989      -0.520285
H        2.198100       3.149556      -1.111832
H        1.907706       1.152619      -2.840342
H        0.234704       1.273867      -3.475899
H        0.953874       0.464493       0.604431
H        0.453237      -0.710077      -2.000755
H       -0.586949       0.493239      -1.190622
12

C        0.829042       1.317209      -2.605907
C        0.400244       0.280370      -1.556201
C        1.386915       0.449653      -0.418179
O        0.687118       2.623390      -2.096104
O        1.284527       2.762319      -0.850285
O        2.570355       0.301524      -0.573169
H        2.225107       2.979035      -0.978143
H        1.870704       1.129185      -2.901384
H        0.183200       1.310657      -3.485538
H        0.949228       0.583984       0.585774
H        0.485432      -0.723235      -1.970320
H       -0.621733       0.462687      -1.225750
12

C        0.805994       1.316843      -2.635664
C        0.385699       0.285902      -1.569020
C        1.372101       0.576085      -0.440196
O        0.715985       2.614823      -2.084603
O        1.269737       2.682654      -0.825867
O        2.559993       0.442398      -0.612653
H        2.221470       2.763807      -0.859076
H        1.836680       1.109239      -2.954219
H        0.143108       1.339353      -3.500899
H        0.947825       0.685905       0.571695
H        0.516193      -0.727062      -1.940277
H       -0.644049       0.439157      -1.248704
12

C        0.785217       1.320664      -2.656471
C        0.380460       0.291346      -1.579958
C        1.349661       0.697930      -0.467623
O        0.707460       2.601891      -2.064228
O        1.234392       2.597852      -0.814584
O        2.546246       0.588324      -0.652914
H        2.298523       2.562536      -0.779483
H        1.816545       1.121596      -2.978803
H        0.121979       1.347472      -3.520940
H        0.936769       0.773059       0.552639
H        0.550653      -0.726600      -1.917894
H       -0.655371       0.411852      -1.262153
12

C        0.764735       1.319552      -2.687311
C        0.392160       0.301904      -1.591937
C        1.326724       0.798508      -0.483729
O        0.690894       2.589500      -2.066913
O        1.193217       2.496849      -0.801271
O        2.563440       0.720598      -0.660524
H        2.422921       2.336555      -0.709564
H        1.793728       1.126345      -3.022244
H        0.093497       1.345060      -3.543719
H        0.915353       0.836645       0.538179
H        0.615147      -0.716088      -1.897960
H       -0.649445       0.383286      -1.283511
12

C        0.743907       1.323520      -2.707839
C        0.400859       0.325387      -1.603817
C        1.303620       0.872795      -0.497174
O        0.631593       2.572983      -2.078067
O        1.132828       2.421760      -0.778511
O        2.609014       0.819705      -0.662632
H        2.596689       2.181830      -0.652285
H        1.782473       1.154852      -3.037846
H        0.082949       1.327230      -3.569962
H        0.890070       0.899669       0.517361
H        0.657814      -0.691367      -1.899756
H       -0.640045       0.377398      -1.292595
12

C        0.726592       1.320743      -2.725184
C        0.427351       0.333520      -1.606315
C        1.285673       0.952682      -0.507334
O        0.597358       2.570512      -2.112153
O        1.073239       2.415220      -0.779377
O        2.626113       0.858963      -0.661576
H        2.849884       2.015672      -0.490717
H        1.763661       1.174661      -3.074053
H        0.049246       1.287729      -3.573864
H        0.873175       0.946115       0.505278
H        0.741773      -0.678133      -1.878063
H       -0.614521       0.333433      -1.301100
12

C        0.693181       1.320812      -2.748163
C        0.457968       0.341933      -1.605867
C        1.257735       1.054247      -0.516909
O        0.562393       2.579166      -2.153229
O        1.015022       2.443966      -0.793608
O        2.617359       0.875015      -0.640256
H        3.007759       1.793138      -0.327162
H        1.714060       1.190069      -3.145483
H       -0.027522       1.261998      -3.559299
H        0.854279       0.983414       0.497843
H        0.855375      -0.651148      -1.830450
H       -0.585865       0.277688      -1.317467
12

C        0.655048       1.310659      -2.770479
C        0.510316       0.337813      -1.601244
C        1.232658       1.160409      -0.531967
O        0.528464       2.591267      -2.197080
O        0.946415       2.495577      -0.824875
O        2.598677       0.881370      -0.602535
H        3.086258       1.573663      -0.140949
H        1.639156       1.194670      -3.243466
H       -0.135845       1.227045      -3.515586
H        0.854908       0.987897       0.488242
H        1.006092      -0.612635      -1.767678
H       -0.533045       0.191874      -1.328185
[GEOCONV]
energy
0.0
1.2056130559
5.03374730148
15.5366007108
33.0340706984
25.4963217727
2.76974618856
-17.0371762891
-23.2070478977
max-force
1.65769708224e-05
0.00206683463136
0.00438946537828
0.00631005769807
0.00409906016088
0.00456744218933
0.0106025449689
0.00674839631298
7.19872683386e-05
max-step
1000.0
1000.0
1000.0
1000.0
1000.0
1000.0
1000.0
1000.0
1000.0
