56
 energy: -94.153367194863 gnorm: 0.000156866377 xtb: 6.4.0 (d4b70c2)
c         0.96554716999974   -2.74177403999975    0.17727162000002
c         1.16832473000018   -4.23932533000001   -0.00732709000009
c        -0.46061281000015   -2.35403843000006   -0.23247500999993
o        -0.76651547000013   -2.21196530999986   -1.41317611000005
o         0.78974222000022   -0.08232139999975   -0.23277365000020
o         1.13933489000016   -1.67997875000005   -3.47719251999990
n         1.87833775000024   -1.99667252000018   -0.67016258000001
c         1.62665881000004   -0.68879063999998   -0.88332230000005
c         2.37922721999985   -0.08253094999992   -2.04904987999982
c         1.46157352000017   -0.33046621999991   -3.28822829999975
n         2.66627241999974    1.31187143000019   -1.80260605999978
n        -1.33469471000015   -2.24546139999986    0.76859922000021
c        -2.73149367999982   -1.90189817000006    0.56162553000010
c        -3.56891233999997   -2.45022377999994    1.70579585000026
c        -2.90516107999983   -0.36998390999976    0.44567554999984
o        -3.52031218999983    0.28546418999994    1.25867307000022
n        -2.33310336000025    0.14155747000007   -0.65984389999975
o        -0.12435088000003    2.47852208999980   -1.42526253999986
o        -0.74487029000024    2.09218530999977    0.71258858999994
c        -2.31928166999980    1.56416543000019   -0.93812610999987
c        -0.92534579000004    2.10978061999980   -0.61017734999978
c        -2.68748764000025    1.83544721999977   -2.38973752999977
h         1.13595318000016   -2.44910077999997    1.21971923000010
h         0.95804688999974   -4.51991736000002   -1.03782475000005
h         0.49839099000004   -4.78977758999985    0.64786629000004
h         2.19326217999990   -4.50971496000007    0.23480977000026
h         0.44076954000011   -1.93833372999997   -2.84620459000008
h         2.40667669000014   -2.50954704999985   -1.36001871000015
h         3.32503996999977   -0.61673320999980   -2.19997117999999
h         1.99583327000015   -0.00862597000007   -4.18793456000020
h         0.56381566999979    0.29166647000004   -3.17294626000024
h         1.81710516000007    1.78003880000006   -1.49465940000000
h         2.96744853000006    1.76219508000006   -2.66061170000012
h        -0.99018959999988   -2.21185341000025    1.71986703000014
h        -3.03182981000008   -2.34691827000014   -0.39498053999977
h        -4.61736501999986   -2.22765621999982    1.53113047000019
h        -3.27527027000016   -1.97537407000008    2.63888434999983
h        -3.44003035000001   -3.52618875000004    1.79034292000024
h        -1.76995086999990   -0.46097822999995   -1.24883763999995
h        -3.03797923000001    2.01625060999982   -0.24373634000014
h        -2.70025139999993    2.90535559000015   -2.57711561000004
h        -3.66832728000007    1.42247481000020   -2.60820543000005
h        -1.95399454999982    1.38066160999975   -3.05122923999977
c         0.51722359000018    2.23847331999974    1.26055915999984
c         0.94182573999997    1.24207740000020    2.15356321000010
c         1.35182380000023    3.29404990999991    0.93955873000014
c         2.21983145999983    1.32383645000026    2.69986159999995
c         3.04958205999986    2.38213519999983    2.38473633000010
c         2.61435277999983    3.36264490999989    1.50796419000002
h         1.02288834000024    4.04841453999992    0.24236526999977
h         4.03869646000010    2.44036060000025    2.81264321000020
h         3.26398492000011    4.18573378000004    1.25238262000009
h         2.53920017000005    0.54118575999993    3.37183802000003
c         0.06254597999988    0.10514940999985    2.41603171999990
o         0.40688003000009   -0.97371238999989    2.84721420000026
h        -0.99395227999993    0.30077797999989    2.17213985000023
56
 energy: -94.081358523455 gnorm: 0.105350545642 xtb: 6.4.0 (d4b70c2)
c         0.93899732224123   -2.69735690322294    0.25720749011777
c         1.18831580161349   -4.14619023197920   -0.13849135398209
c        -0.48699393164478   -2.31319488320347   -0.15647353607058
o        -0.81727116080867   -2.22271455910468   -1.33568792160853
o         0.62067500003584   -0.08381687343372   -0.53713094129592
o         0.85921117290701   -1.70335400303511   -3.58599869104942
n         1.88485573003659   -1.95554023073510   -0.55616053537907
c         1.57068162136421   -0.71299468367425   -0.97652890468960
c         2.40284025170124   -0.27257975668203   -2.16243679554153
c         1.40191499408287   -0.43423142271622   -3.35035124432274
n         2.84830957796405    1.07914307018667   -1.91365982458166
n        -1.41311159598795   -2.23956996744568    0.80000082686080
c        -2.79361869591137   -1.94746135880084    0.45244668959163
c        -3.85071822705998   -2.67606814637952    1.26652865281045
c        -2.79809605018088   -0.40147981038352    0.46938989636826
o        -3.00446846042850    0.31563518384124    1.42445250244168
n        -2.35833150642135    0.09876830682830   -0.69999320474448
o        -0.05052597302725    2.54565753020071   -1.25104541880538
o        -0.73827152108467    1.92904986587912    0.78458962363432
c        -2.28439755273435    1.53612578171757   -0.87314827889230
c        -0.88638954242666    2.06503836625625   -0.53531903128255
c        -2.58353181135226    1.95227070484614   -2.30621744834071
h         1.09078653613874   -2.54830121545069    1.33244481576051
h         0.81825222616403   -4.41641133675902   -1.12586544242935
h         0.74368950668231   -4.89542629338722    0.51115474594492
h         2.24608966350800   -4.39551250800765   -0.17299422885466
h         0.24882740862087   -1.76327186893387   -2.82657251200194
h         2.75659158594114   -2.38693581709386   -0.82459720927459
h         3.21801204719742   -0.99881854990550   -2.26627904157171
h         1.89359398187463   -0.27648844515881   -4.31567756626495
h         0.62557562546867    0.33555244230328   -3.24528851826711
h         2.13143487550339    1.73104526526536   -1.60348075270939
h         3.38175914652096    1.42638249124075   -2.70393095521259
h        -1.15685492622984   -2.22632492507500    1.77922542139911
h        -2.84917061717256   -2.22822221543612   -0.60652789999860
h        -3.81926345470653   -3.72695673189093    0.99460749688010
h        -4.81560788084396   -2.23675098759129    1.02497027020648
h        -3.57068364166379   -2.57862584276891    2.31225568238713
h        -2.05545267917741   -0.53174135831949   -1.43335914124235
h        -2.98188446222642    2.04772504444687   -0.19871330079530
h        -2.41597459352713    3.01538615526393   -2.45348419122443
h        -3.62804412692810    1.84177948640208   -2.58389810056522
h        -2.04350411268538    1.30200901368204   -2.99028115986854
c         0.50097475406850    2.20096661163137    1.33675148277961
c         0.99664709614521    1.23483727929778    2.22638674505011
c         1.17382696761523    3.35380661412785    0.97333656537023
c         2.25552898496619    1.45620709737189    2.77832581999545
c         2.98929552472393    2.52686580889781    2.30603062913182
c         2.46540126605106    3.48940887761708    1.45832856787707
h         0.81745682411542    4.19430335447842    0.39895974004405
h         3.97277553791973    2.79059836031959    2.66387690957277
h         3.09830907042384    4.33555592215130    1.23859692338459
h         2.74862432647486    0.77347420554893    3.45421301776099
c         0.10899027915298    0.16076844315892    2.66578318614543
o         0.52598153021584   -0.87207262160024    3.14305107071310
h        -0.97788505244506    0.33467832943946    2.61679677305591
56
 energy: -94.060627930132 gnorm: 0.104039553800 xtb: 6.4.0 (d4b70c2)
c         0.87881065912843   -2.78945270158730    0.23367683132821
c         1.22759237986150   -4.26979986497445    0.30280626244104
c        -0.50557851070004   -2.50688432346010   -0.36280052373550
o        -0.73386720962463   -2.62211233988294   -1.56380971325546
o         0.68561391111377   -0.31852466534521   -0.42649398194306
o         0.90802033808128   -1.66407463450009   -3.83560877247136
n         1.86212259947856   -2.16423187362244   -0.63160011168725
c         1.57623550551986   -0.90507647214203   -1.02163935816520
c         2.32804610889300   -0.38047915135743   -2.22679880167034
c         1.21356911468399   -0.39825525631168   -3.32075876813946
n         2.79924934800818    0.96182098283918   -1.97443921950344
n        -1.46103984396641   -2.31281722677016    0.54680893037771
c        -2.81361160139252   -1.90920252633540    0.20102579164258
c        -3.94410292992672   -2.56908810368835    0.97406983187006
c        -2.88238881527508   -0.38685090409818    0.46194971086666
o        -3.14077892954536    0.15669262403258    1.51398727882793
n        -2.54361844550704    0.25884577242437   -0.66915961239145
o        -0.17134368474782    2.55383184075976   -1.27266245148522
o        -0.67875586691969    2.00885743141929    0.82820518556767
c        -2.39445658788077    1.69628621560777   -0.78300655798534
c        -0.97102036597237    2.16639116353947   -0.46499056733798
c        -2.71978701277688    2.16786527691061   -2.19301309914035
h         0.95987862993262   -2.29271367550784    1.20736630480786
h         1.71857596359065   -4.49342087994489   -0.64260520731444
h         0.38599927273934   -4.94826557223777    0.41457655574883
h         1.90359845749767   -4.46545801648759    1.13164355565954
h         0.45463500223870   -2.21558614716883   -3.16990358216409
h         2.73312143139773   -2.60058106746277   -0.89436277315719
h         3.08363841756229   -1.10092509573941   -2.56257991571670
h         1.59394360001753    0.05300386930947   -4.24280347092765
h         0.27085733697673   -0.03203248054522   -2.89240894280886
h         2.07092036119312    1.62158809208777   -1.71111220629486
h         3.17599991130393    1.23435326537035   -2.87635788845694
h        -1.11417253757748   -2.00928704777976    1.44807260835498
h        -2.85862132613231   -2.16025311196165   -0.86587981848480
h        -4.37006861136969   -1.89611674307473    1.71228397553983
h        -3.59486703297700   -3.40077612145056    1.58126946175872
h        -4.68246959193608   -2.93296797948063    0.26423499231536
h        -1.96933322224433   -0.24359418762332   -1.33613351432353
h        -2.99998642165670    2.25554699665209   -0.05937313535795
h        -2.32738609991968    3.17820090469098   -2.26526833421282
h        -3.76610648884179    2.02320977389564   -2.44720037281589
h        -2.01529604977387    1.71773742199114   -2.88834808330881
c         0.58024815576590    2.27890287319530    1.33470010170415
c         1.13566409936501    1.34415126688304    2.22256295168054
c         1.29073452758999    3.42370658290386    1.02089416386443
c         2.34396063404014    1.60890479368829    2.86158566750380
c         2.96662609462234    2.81362084500701    2.59941562466113
c         2.50981733513339    3.68729249097744    1.62598008078984
h         0.79413341466988    4.03490558881927    0.28389598889933
h         3.88755629188376    2.93020422254669    3.14999499960481
h         3.04180707260126    4.59651351716088    1.39119687405995
h         2.62242356115448    0.84213767861577    3.56912883235424
c         0.42429067010040    0.15835579526850    2.69422457088851
o         0.98623208286008   -0.76427795793000    3.24321984941248
h        -0.67296347576071    0.22364609786102    2.61864132530508
56
 energy: -94.083179077694 gnorm: 0.110139950620 xtb: 6.4.0 (d4b70c2)
c         0.81729254684932   -2.89080701106749    0.39469667403920
c         1.18986157568871   -4.17880966491681    1.11587402834607
c        -0.51158343168864   -2.83518656652855   -0.36895147920653
o        -0.53046962951645   -3.16597233518666   -1.55133905923831
o         0.79439007966696   -0.44601826598506   -0.30517838792110
o         0.57486330280614   -1.91550267187048   -3.92365302623067
n         1.75110514795477   -2.43015345828253   -0.61639183618423
c         1.44327775142608   -1.18388816862780   -1.03039605295064
c         2.04713397101606   -0.66772444555404   -2.31949011231153
c         0.92827256667043   -0.66208251095426   -3.40909586463646
n         2.57658963992395    0.65442907587634   -2.07643813839340
n        -1.61886601349870   -2.41599765485263    0.24437037996689
c        -2.81944254001026   -1.97232021076757   -0.44387921325164
c        -4.08782510664001   -2.69876230552967   -0.02609426433610
c        -2.90223245373355   -0.49311253193089   -0.00177452640594
o        -3.30166936800104   -0.22177529973927    1.10989733954820
n        -2.36787303971155    0.37814191111572   -0.87725930957949
o        -0.05822501502403    2.55896071735790   -1.24836655529684
o        -0.37576173949913    1.95358351952327    0.86936295852445
c        -2.26770783961195    1.77506100478211   -0.50305422214909
c        -0.78854542753227    2.15740065420661   -0.38389639952373
c        -3.02174875491663    2.87948565041442   -1.22969973001209
h         0.81062413602821   -2.03336172537953    1.07743819330353
h         2.25852890923063   -4.38194735503723    1.07638612188893
h         0.60266554705186   -4.95888904121052    0.63862748485880
h         0.86934761868767   -4.06848138909593    2.14899360671504
h         0.07840995028851   -2.52175164410825   -3.34151656093782
h         2.20067967196293   -3.17240327395376   -1.13120418958862
h         2.72573679637601   -1.45218087208995   -2.67563246101328
h         1.25293656702466   -0.05941061124802   -4.26341773005828
h        -0.02985623086675   -0.16662104611991   -3.20217719810875
h         2.06532675248764    1.22091472395232   -1.40353313926123
h         2.72673376205532    1.13644837166566   -2.95665757609354
h        -1.48603848223886   -2.06126908793287    1.18311859369954
h        -2.59458778429691   -2.09744943946169   -1.51023884977423
h        -4.14603485559676   -2.70528261420557    1.05827949415201
h        -4.32605695549218   -3.67654406280875   -0.43785934868423
h        -4.92973442616068   -2.04896221551506   -0.25061137554880
h        -1.74807024815433    0.01740877334817   -1.59337364197918
h        -2.64450138393539    1.79367958653289    0.52687992045002
h        -2.96247097699682    3.77311091391006   -0.61496611556788
h        -4.07495390614672    2.61373213250674   -1.25102616661573
h        -2.69135144814680    2.93295202915935   -2.26429739082077
c         0.80596371143688    2.41738982254415    1.41978252647015
c         1.47389158045622    1.58411428729553    2.33086566587005
c         1.20463205027127    3.72157586609432    1.18739665267141
c         2.53670985403051    2.15362126528154    3.02692914495949
c         2.97973467947837    3.44810669224177    2.83766000933293
c         2.32480932003491    4.18198518612923    1.86193033585893
h         0.70630362115172    4.36399109716534    0.47865497799297
h         3.81404562036960    3.81802286431982    3.41379290189368
h         2.66384777595184    5.16815197499860    1.58381674516837
h         2.98258346768138    1.58478637916085    3.82924730934607
c         0.96080020906825    0.22715947385045    2.50418300828682
o         1.49817498719007   -0.61688856601671    3.18773136640801
h         0.03159704430173    0.02814756738921    1.94658266338709
56
 energy: -94.075520906517 gnorm: 0.103565445659 xtb: 6.4.0 (d4b70c2)
c         0.51679832388102   -2.92887254135394    0.50222864865524
c         1.01093032179488   -4.23317167204273    1.11255039958514
c        -0.72304593548230   -3.15148441319659   -0.37263915116305
o        -0.65901294029359   -3.73317955386303   -1.45215146690246
o         0.35836517861193   -0.31720845856608   -0.46395276435227
o         0.46643001746834   -2.38102881145314   -3.55266925674001
n         1.43948374878093   -2.28863135074619   -0.41714639519892
c         1.16732614603972   -1.08494006651952   -0.96156526450732
c         1.83680466682807   -0.90094651431227   -2.30721592686422
c         0.79796177356080   -1.02328560285925   -3.46694087806282
n         2.70264573823005    0.25202841796412   -2.39916998669902
n        -1.80694538156477   -2.43285703707921   -0.07819994716146
c        -2.74389573194439   -1.88236652589005   -1.04308616199436
c        -3.95364381756128   -2.76957436217368   -1.28890832986073
c        -2.99636558601707   -0.56955361504041   -0.26646057079900
o        -3.50715131837666   -0.59921020932157    0.83226892171114
n        -2.41900902604366    0.51608337571965   -0.81340628498345
o        -0.18953097893070    2.38096580458223   -1.14448234433968
o        -0.25744638171505    2.15656076194991    1.13591319250631
c        -2.20811597111320    1.69941508969388   -0.00303869307175
c        -0.74606636215627    2.14662606109808   -0.10656120663739
c        -3.05677696201828    2.84619917892023   -0.53313864439554
h         0.32881197416343   -2.16875662554459    1.26922134408725
h         1.12069964369093   -4.13378692405012    2.19095081379939
h         1.99986289274544   -4.46305688376389    0.72492631339167
h         0.40143101049943   -5.12391601653329    0.98093470555407
h         0.09887205233695   -2.87345209793255   -2.79417926924529
h         2.11914591205414   -2.90642199739440   -0.83485186878068
h         2.52429502985864   -1.73269886775509   -2.50280753537953
h         1.27200979829627   -0.68198255876142   -4.39283325002725
h        -0.13854965115413   -0.46815568173978   -3.32173305047785
h         2.35722557327006    1.17132158750559   -2.13330940994984
h         3.02163334542612    0.21848465287614   -3.36187131111564
h        -1.97505167865080   -2.11567110975774    0.86829732025504
h        -2.18168910588742   -1.70665432949145   -1.96849892986262
h        -3.68548583333974   -3.74787126635116   -1.67662446298727
h        -4.42854484065506   -2.21888927791377   -2.09734943354902
h        -4.65134481743407   -2.73308710439995   -0.45623709402277
h        -1.74756639745102    0.36152052010648   -1.55662815659822
h        -2.45429031573756    1.57055049650579    1.05803457056392
h        -2.90227839349096    3.70170171732449    0.11818537764939
h        -4.09983918468253    2.55033381375444   -0.60246197058303
h        -2.71006704697893    3.22356858994014   -1.49219959852027
c         0.94219312276644    2.68714032690633    1.57625784112651
c         1.77240618864165    1.92381250253921    2.41209581597931
c         1.20901239811150    4.03817184262221    1.44449220763784
c         2.84597232176254    2.52599381027549    3.06267912944345
c         3.11851646033639    3.86233923988394    2.84430584282300
c         2.29167592413145    4.64865327449038    2.05843166436128
h         0.62351538650910    4.64822419509926    0.77488584417286
h         3.88793211135454    4.39946652407808    3.37753717988966
h         2.64464623614563    5.66188324444559    1.94182905704393
h         3.50069186045718    1.99833454783139    3.74018105870986
c         1.55030661339378    0.48902281163545    2.57543079432131
o         2.34175720215622   -0.19690312189046    3.18497051480942
h         0.67374516531582    0.11858905007841    2.02012794876367
56
 energy: -94.083427014287 gnorm: 0.091914800980 xtb: 6.4.0 (d4b70c2)
c         0.30879653564822   -3.23115017233168    0.54898454730898
c         0.86638823407911   -4.54526830405870    1.07817291566616
c        -0.85456133180223   -3.29498096409919   -0.44835571841845
o        -0.65053448020352   -3.81122101168727   -1.54365730240711
o         0.16495539415085   -0.68848389934519   -0.56114684239708
o         0.81780077627027   -2.74880711989802   -3.76527659665193
n         1.34690110607758   -2.55594154045154   -0.20794335746529
c         1.04617351430471   -1.45259077862338   -0.92314569809490
c         1.73790023591708   -1.15491595000474   -2.23681790330068
c         0.80636926264800   -1.38008715124889   -3.46997294161641
n         2.24102467249481    0.19591510389545   -2.13879357394619
n        -1.89524084822228   -2.49056847702178   -0.22957624864732
c        -2.56292868375047   -1.74498706927584   -1.28324720604515
c        -3.80530430467470   -2.46206350928466   -1.78659689029816
c        -3.02434435917223   -0.46938762166069   -0.54141994523869
o        -4.08193246357049   -0.43310397542304    0.04949372277701
n        -2.15501537151211    0.55430195092747   -0.62758627378206
o        -0.17411231879945    2.57324846659932   -0.59405263133320
o        -0.23009206292412    2.23045221921188    1.60891620895969
c        -2.18187122406305    1.62585426995868    0.34837469355998
c        -0.75723213536243    2.18933664019883    0.38293761152520
c        -3.01492265712778    2.81371501009458   -0.11136144560263
h        -0.05583816252746   -2.54223854086942    1.31959156137866
h         0.13790720025128   -5.34597693463035    1.19243208805745
h         1.29833048853979   -4.44796728185048    2.07066758729905
h         1.66153093835651   -4.97252787878240    0.47200880856765
h         0.39211966158854   -3.24252806004221   -3.03869430004225
h         2.14128006139923   -3.13967332888370   -0.42312485648690
h         2.59423436376497   -1.83752782916535   -2.29550298166905
h         1.36707769285570   -0.88268229030821   -4.26789552105981
h        -0.20674853521293   -0.96635518744371   -3.37655784048810
h         1.57345134229397    0.76437695827383   -1.62275691180271
h         2.28569506444083    0.59484249742410   -3.07074507944447
h        -2.13164120705905   -2.19358215659573    0.70884674396562
h        -1.74021728992647   -1.55556017760654   -1.98367798005397
h        -4.07414774592105   -2.19127902608584   -2.80330545424558
h        -4.61913954765961   -2.23338383031251   -1.10268179094021
h        -3.50444571359918   -3.50648490311676   -1.77530744611028
h        -1.33046768943831    0.42314985914178   -1.20206331129750
h        -2.55041156826916    1.30841881377607    1.33148052471822
h        -2.92780152204530    3.67834311556250    0.54040962057743
h        -4.08417637282994    2.62155536285145   -0.12095271658911
h        -2.70416730641152    3.07045870059637   -1.12127586436457
c         0.95122395550037    2.90228323219784    1.86908600072391
c         2.01024029401243    2.16312604330390    2.41924861444210
c         1.02306743579932    4.25224902647823    1.57536598888823
c         3.15604466139930    2.90838415336726    2.68410263851310
c         3.20214047057822    4.27264500565954    2.47326227320365
c         2.16285475572520    4.97703264082943    1.88736432931794
h         0.20012718232337    4.66917022441291    1.01653752885331
h         4.12361687890473    4.77492737564019    2.72512613175520
h         2.16078654177992    6.03431367335915    1.67063489326604
h         3.95312018242619    2.31579842079846    3.10789916480631
c         1.96417578435191    0.70566548358972    2.51043245154441
o         2.80703029119003    0.05676052217485    3.09090263323108
h         1.07747946941576    0.28860322813556    2.00667554065459
56
 energy: -94.081414980006 gnorm: 0.118987438612 xtb: 6.4.0 (d4b70c2)
c         0.15020808126537   -3.45977082595148    0.21047229774413
c         0.24587771426937   -4.94107101059344    0.54878040378278
c        -1.04659272816988   -3.20233305668425   -0.71340924978418
o        -1.10907320779707   -3.66200981069610   -1.85033922582907
o         0.78473174295252   -0.88052580682193   -0.00523613680326
o         1.46878486910798   -3.10537589367941   -3.25339400979279
n         1.27121236002798   -2.94253547138022   -0.55262968629377
c         1.39626480464221   -1.61629675744484   -0.76425938229765
c         2.04067397076161   -1.10532000320663   -2.03566427406801
c         1.26448790157363   -1.72013496064397   -3.24341471289233
n         2.02558631005792    0.33812737863705   -1.97467641093244
n        -1.89947183947436   -2.25329793338710   -0.32625641985581
c        -2.82390221977762   -1.66778957237120   -1.28256683022917
c        -3.93813588695988   -2.62188365905950   -1.68162136683704
c        -3.22342331387238   -0.30626665491414   -0.66856005685139
o        -4.39381597916037   -0.01568415249843   -0.54718915505465
n        -2.12397647711759    0.34082057967876   -0.24008292508172
o        -0.15057377725469    2.53424300192276   -0.37789008597279
o        -0.31500815440161    2.40324262374581    1.81732660143706
c        -2.15457535200254    1.51142559234905    0.61443042776385
c        -0.78785340664228    2.20388019761465    0.58474281979006
c        -3.17645680491836    2.53103768649471    0.13225343507272
h         0.10913260023490   -2.80490980551605    1.08846017635749
h         0.30729248018193   -5.49801253547394   -0.38444971212223
h        -0.60658750994726   -5.26196008345567    1.14158772193378
h         1.17129232521586   -5.05705955139605    1.10770083095677
h         0.58186306127001   -3.40927905145246   -2.98154995669352
h         1.78752017068615   -3.59590892319945   -1.12237803158118
h         3.09726301638021   -1.39885772284150   -2.02277056594145
h         1.83459533959294   -1.31572699198595   -4.08598084404200
h         0.29224810310497   -1.22098368511630   -3.35252918724345
h         1.18341571641075    0.76718415981820   -1.59817164731613
h         2.21995004810417    0.69422185324454   -2.90477940513517
h        -2.04560001316392   -2.03593638721577    0.65155963210538
h        -2.21057886349833   -1.38130761482443   -2.14575997524940
h        -4.89299335595461   -2.24519675802505   -1.32714777174700
h        -3.87033199452898   -3.63639561860741   -1.29622523441488
h        -3.96576491295802   -2.68079683622910   -2.76662148980023
h        -1.20754018418964   -0.06507211458874   -0.39008049746411
h        -2.35082710191418    1.35287873910668    1.68187246621122
h        -3.39638814203630    3.30036179300439    0.86692887927606
h        -4.08680151483967    2.04877080258172   -0.21272772308930
h        -2.76223425375656    2.96125362657236   -0.77645293799012
c         0.88918838374210    3.04838538270764    2.03699570483973
c         2.10353081768839    2.38025722094105    2.25953878577676
c         0.85663323997400    4.41611969742128    1.83185223611157
c         3.28310513393461    3.11354173883644    2.16298074352487
c         3.26989617878753    4.48475110539908    1.99746127109783
c         2.04595449011829    5.12566255013273    1.89376694915720
h        -0.06375072007000    4.91484582514959    1.57202746343595
h         4.23299436852006    4.96829336350282    1.93854964044457
h         1.93032841728938    6.19839781580931    1.86752133936162
h         4.23455615114119    2.60654053522779    2.22447521967510
c         2.18457162042689    0.95541029909941    2.57238320096490
o         3.22460343285579    0.41826879427157    2.88581569119760
h         1.24459407095130    0.39061321152959    2.46566464035816
56
 energy: -94.077112138517 gnorm: 0.109345602028 xtb: 6.4.0 (d4b70c2)
c        -0.02213417569117   -3.73760524645025   -0.13000113399359
c         0.29381364909857   -5.20611058954325   -0.37804212271199
c        -1.03970689188722   -3.16188073054935   -1.12259902493383
o        -0.96229631183084   -3.51201610393787   -2.29700489194305
o         0.35335571788815   -0.86603153379795   -0.12996760021966
o         1.80346744804230   -3.25615957705053   -2.96252901630596
n         1.19026926819694   -2.95831308597419   -0.30114222581386
c         1.23005841428231   -1.62640093230851   -0.51033404163765
c         2.31051402720846   -1.31402172323805   -1.52417116883163
c         1.76795583714337   -1.85857296026785   -2.88366296057114
n         2.64252716054065    0.08900215099861   -1.43047596508513
n        -1.99958126462996   -2.39443621751842   -0.60527137627481
c        -3.05699761681029   -1.62184195686376   -1.23526341291179
c        -4.39670413480323   -2.32926071851570   -1.10955791764835
c        -3.26111780413506   -0.23833244266276   -0.57601953812604
o        -4.31114479474289    0.35138572969671   -0.71263539313073
n        -2.26564437032815    0.23162451010923    0.19810643453576
o        -0.09742687351825    2.07666006353815   -0.23485603555644
o        -0.30638790807267    2.43980876429313    1.93000104514373
c        -2.21312160361030    1.51371764427101    0.87258699959745
c        -0.79879999012638    2.08848121434618    0.73975313537761
c        -3.20192333566195    2.57713898222531    0.41678947450221
h        -0.35139067343274   -3.57697071817510    0.90304270919094
h         1.22120425610702   -5.30067451263050   -0.94007273912650
h        -0.47245783705017   -5.64620327889880   -1.01068239067025
h         0.40121227860048   -5.81472762287050    0.51654629211347
h         0.90089052938005   -3.52909218182274   -2.71004275737287
h         1.91207657308340   -3.51883655506904   -0.72880033516619
h         3.24396676418030   -1.83027761831838   -1.26950100475801
h         2.53550040251336   -1.49581540503347   -3.57487080056048
h         0.73534444261274   -1.51904169497109   -3.04095383301148
h         1.83418227227338    0.66514581803826   -1.20746501402829
h         2.99873800153093    0.41876006017737   -2.32156837099249
h        -1.96979148331720   -2.33270815114778    0.40469196071421
h        -2.72434086150336   -1.64001654443161   -2.28041844429417
h        -4.44072319739979   -3.04425073780642   -0.29337844259289
h        -4.70823026697504   -2.78330833799316   -2.04719019854288
h        -5.20710413315795   -1.64367298124942   -0.87571888616901
h        -1.43060367159311   -0.32491795664758    0.33977913416677
h        -2.26218970747056    1.54549867788841    1.96787995232185
h        -2.93180168727280    3.56863946419439    0.76883843992670
h        -4.17456160808216    2.27471704753816    0.79472677528701
h        -3.09565593358367    2.63708427871276   -0.66373222920966
c         0.87538677729901    3.15707641864996    1.87093567858065
c         2.12760756032357    2.55910660675250    2.08288722377736
c         0.77940510447224    4.51118472672092    1.60444163562085
c         3.23638973823975    3.39779668182684    2.00787870591343