56
 energy: -94.153367194863 gnorm: 0.000156866377 xtb: 6.4.0 (d4b70c2)
c         0.96554716999974   -2.74177403999975    0.17727162000002
c         1.16832473000018   -4.23932533000001   -0.00732709000009
c        -0.46061281000015   -2.35403843000006   -0.23247500999993
o        -0.76651547000013   -2.21196530999986   -1.41317611000005
o         0.78974222000022   -0.08232139999975   -0.23277365000020
o         1.13933489000016   -1.67997875000005   -3.47719251999990
n         1.87833775000024   -1.99667252000018   -0.67016258000001
c         1.62665881000004   -0.68879063999998   -0.88332230000005
c         2.37922721999985   -0.08253094999992   -2.04904987999982
c         1.46157352000017   -0.33046621999991   -3.28822829999975
n         2.66627241999974    1.31187143000019   -1.80260605999978
n        -1.33469471000015   -2.24546139999986    0.76859922000021
c        -2.73149367999982   -1.90189817000006    0.56162553000010
c        -3.56891233999997   -2.45022377999994    1.70579585000026
c        -2.90516107999983   -0.36998390999976    0.44567554999984
o        -3.52031218999983    0.28546418999994    1.25867307000022
n        -2.33310336000025    0.14155747000007   -0.65984389999975
o        -0.12435088000003    2.47852208999980   -1.42526253999986
o        -0.74487029000024    2.09218530999977    0.71258858999994
c        -2.31928166999980    1.56416543000019   -0.93812610999987
c        -0.92534579000004    2.10978061999980   -0.61017734999978
c        -2.68748764000025    1.83544721999977   -2.38973752999977
h         1.13595318000016   -2.44910077999997    1.21971923000010
h         0.95804688999974   -4.51991736000002   -1.03782475000005
h         0.49839099000004   -4.78977758999985    0.64786629000004
h         2.19326217999990   -4.50971496000007    0.23480977000026
h         0.44076954000011   -1.93833372999997   -2.84620459000008
h         2.40667669000014   -2.50954704999985   -1.36001871000015
h         3.32503996999977   -0.61673320999980   -2.19997117999999
h         1.99583327000015   -0.00862597000007   -4.18793456000020
h         0.56381566999979    0.29166647000004   -3.17294626000024
h         1.81710516000007    1.78003880000006   -1.49465940000000
h         2.96744853000006    1.76219508000006   -2.66061170000012
h        -0.99018959999988   -2.21185341000025    1.71986703000014
h        -3.03182981000008   -2.34691827000014   -0.39498053999977
h        -4.61736501999986   -2.22765621999982    1.53113047000019
h        -3.27527027000016   -1.97537407000008    2.63888434999983
h        -3.44003035000001   -3.52618875000004    1.79034292000024
h        -1.76995086999990   -0.46097822999995   -1.24883763999995
h        -3.03797923000001    2.01625060999982   -0.24373634000014
h        -2.70025139999993    2.90535559000015   -2.57711561000004
h        -3.66832728000007    1.42247481000020   -2.60820543000005
h        -1.95399454999982    1.38066160999975   -3.05122923999977
c         0.51722359000018    2.23847331999974    1.26055915999984
c         0.94182573999997    1.24207740000020    2.15356321000010
c         1.35182380000023    3.29404990999991    0.93955873000014
c         2.21983145999983    1.32383645000026    2.69986159999995
c         3.04958205999986    2.38213519999983    2.38473633000010
c         2.61435277999983    3.36264490999989    1.50796419000002
h         1.02288834000024    4.04841453999992    0.24236526999977
h         4.03869646000010    2.44036060000025    2.81264321000020
h         3.26398492000011    4.18573378000004    1.25238262000009
h         2.53920017000005    0.54118575999993    3.37183802000003
c         0.06254597999988    0.10514940999985    2.41603171999990
o         0.40688003000009   -0.97371238999989    2.84721420000026
h        -0.99395227999993    0.30077797999989    2.17213985000023
56
 energy: -94.080578747443 gnorm: 0.103479401737 xtb: 6.4.0 (d4b70c2)
c         0.88681305438400   -2.61696551263152    0.15136730986149
c         1.03025556487504   -4.12392306296394   -0.01098563724219
c        -0.50949780753558   -2.18134522884323   -0.30984245424229
o        -0.72267395565287   -2.00996761695063   -1.50692304792201
o         0.99252049761950   -0.00382444532535   -0.17595878493899
o         1.46829983928780   -1.83396699508456   -3.47030608398735
n         1.84776982507357   -2.01015864007336   -0.75132596534175
c         1.70481790284396   -0.67764611592824   -0.90400042375495
c         2.44040479589295   -0.02671705189781   -2.05640403906914
c         1.76868759446330   -0.46835966778136   -3.39538543171551
n         2.44996223757718    1.40480161215487   -1.86108258339275
n        -1.35224722683089   -2.10618099570925    0.72073093913942
c        -2.78013592406316   -1.83668689814538    0.70004332830012
c        -3.41509133309034   -2.24189978320299    2.02053220115803
c        -3.12014806906748   -0.35669635617973    0.40955094971683
o        -3.83382530437821    0.27728912917398    1.15635433083173
n        -2.44522260454721    0.12554192956647   -0.65017531123892
o        -0.12716305501853    2.53954461968638   -1.31729485199360
o        -0.80928421454336    1.95073508109161    0.69090352842492
c        -2.37679322983154    1.53204787963735   -0.99441926056167
c        -0.98665365621701    2.06243948266683   -0.62767639178627
c        -2.62383301432536    1.80103664170898   -2.47190414220024
h         1.00462897623914   -2.23923069380499    1.17353592740692
h         0.79791148770768   -4.35461808189883   -1.04909455402285
h         0.38144925958882   -4.75233849517584    0.59335838337846
h         2.03746521948396   -4.37572529047047    0.31206534602097
h         0.69034045935020   -2.04092541431457   -2.91818831790153
h         2.32385516351346   -2.58274647221380   -1.43218551435025
h         3.49831418204169   -0.31394076059417   -2.08867359059274
h         2.38838715064914   -0.11544994779749   -4.22599555149406
h         0.82777984075487    0.09570570346525   -3.44859300753696
h         3.15848948076557    1.69706669394678   -1.19200326452489
h         1.52611144905118    1.65694086696431   -1.52552687404518
h        -0.96125129534514   -2.29823802957958    1.63449239409442
h        -3.32163341429304   -2.33609080088819   -0.11280110361743
h        -4.08008460965539   -1.43435675370224    2.31200352940173
h        -2.70009735558968   -2.28702677524818    2.83852317280368
h        -3.86830141973733   -3.22963343940877    1.99950281968355
h        -1.78545547343051   -0.46604632442124   -1.14194182372803
h        -3.05190049964680    2.12198448536057   -0.36252580744671
h        -3.68010063997099    1.81957910850600   -2.72475244363921
h        -2.19462291726343    1.11108529284636   -3.19306062216187
h        -2.26243083722801    2.78935901400985   -2.74580322226813
c         0.40430513552988    2.15254511246431    1.32417014723508
c         0.95716417867445    1.15445073631368    2.14191259574325
c         1.25631813398017    3.19066028941026    0.99215872883531
c         2.23278603768397    1.27925406309822    2.68563883291479
c         3.05671238433083    2.31544969561509    2.29164607554661
c         2.53282800072241    3.33483751245683    1.51322017185070
h         1.00326643668298    3.93401014278242    0.25274062145915
h         4.12787278812423    2.36817797498683    2.41279450191559
h         3.15398170571219    4.19217615113800    1.30355923019712
h         2.58021877705898    0.44043116857399    3.27023910148279
c         0.16701180707877   -0.04185271928737    2.42324028627805
o         0.59678705926046   -1.11045388004915    2.79981948092999
h        -0.93040912692900    0.00171736914017    2.33542604028543
56
 energy: -94.060657957509 gnorm: 0.106291623087 xtb: 6.4.0 (d4b70c2)
c         0.90234647403253   -2.70033837062867   -0.00363492945867
c         0.87568155816407   -4.19597471413471   -0.28685958919550
c        -0.53026668171126   -2.22652057362241   -0.27800649532665
o        -0.93471012982687   -2.09406509389032   -1.42982998680109
o         1.00551371922332    0.00521588466025   -0.36239483017085
o         1.54496497384334   -1.85736362220488   -3.50554064517932
n         1.81816481461319   -2.03876098525521   -0.91473304946791
c         1.72889760862493   -0.69960285960713   -1.04897633195823
c         2.69677311207873   -0.21575048454988   -2.10819052879437
c         2.24548417816324   -0.64542458307348   -3.54026658848577
n         2.79821555113330    1.21927627640925   -1.97441784186401
n        -1.32344191573005   -2.17126748143835    0.79240366927513
c        -2.73008120876506   -1.80704137938392    0.81743225102965
c        -3.28867492808731   -2.06439166113737    2.20768424542841
c        -3.02485745265394   -0.32152819132189    0.50642804239288
o        -3.74286473318212    0.41533980629692    1.14711453115674
n        -2.28683803942432    0.17566112646258   -0.50314018694263
o        -0.49900909067597    3.05063928064753   -1.17281280777869
o        -0.85544996179147    1.84437885252535    0.75488198829455
c        -2.37114750473347    1.55264254849382   -0.94840359945134
c        -1.12048471338899    2.29916372589463   -0.47211352035286
c        -2.65296256034939    1.66423228802972   -2.43987037830235
h         1.12932891669998   -2.57653901093044    1.06151555855679
h         0.61959670039830   -4.39861063848983   -1.32523972864401
h         0.16042697686474   -4.62788023243999    0.40809061085863
h         1.88145578912423   -4.60798460835583   -0.25679910395619
h         0.64245685250313   -1.82295282159605   -3.13516030049119
h         2.17873929142783   -2.61017978447867   -1.66409972024394
h         3.69532776219276   -0.61826861641969   -1.89943512316683
h         3.15216280440439   -0.83099592065029   -4.12505982536894
h         1.75521802342771    0.22769370045669   -3.99150017746799
h         3.74811631720704    1.54572015738493   -1.81249256517526
h         2.21721974107200    1.49466471518984   -1.18938459775521
h        -0.80268622132216   -2.04497845870842    1.65123328729865
h        -3.34097839399433   -2.39854091980556    0.12441508995847
h        -3.53672976409922   -1.16327469373524    2.76063482894941
h        -2.57133065862433   -2.77527773278968    2.61069820914753
h        -4.27224951954679   -2.50687649227717    2.07260060371328
h        -1.79870647579331   -0.47703568304958   -1.10548400507301
h        -3.16467799616826    2.03368047044149   -0.36359917464861
h        -1.70630262307559    1.47825200109989   -2.93909344751960
h        -3.18390205818619    2.59019085450643   -2.64241621200637
h        -3.34922687254768    0.85519076881808   -2.64743042418054
c         0.35439783416541    2.12712451901666    1.36387786937834
c         0.89706069198267    1.11795273000759    2.17482620833782
c         1.06374010560122    3.25087931664427    0.97936610700177
c         2.20949922689043    1.22566708522899    2.62685239390122
c         2.89248094092402    2.37696714011437    2.28651384543873
c         2.34415184777643    3.37411716348107    1.49620999163306
h         0.62460714105259    3.96278546508404    0.29841451148301
h         3.88173562965603    2.36997267705251    2.71798574200013
h         2.86674753608830    4.26870009283615    1.19382903896110
h         2.66736239488615    0.41257349982869    3.17029592618495
c         0.02734196813708   -0.00914331289690    2.50326431217592
o         0.46299363116686   -1.05115985207704    2.94239546600288
h        -1.06688457550193    0.08376955175259    2.41394591307028
56
 energy: -94.070490105434 gnorm: 0.111231040657 xtb: 6.4.0 (d4b70c2)
c         0.76924073515719   -2.96168232673237   -0.26675659283393
c         0.61215267966551   -4.37926335788287   -0.79933774853821
c        -0.58928050871232   -2.25162160175162   -0.31571952420004
o        -1.14257801823462   -2.09924657285868   -1.40128852785974
o         1.03810487914573   -0.17602180246086   -0.77389188251449
o         1.86924801721800   -1.77067687874277   -3.88534781406899
n         1.74102251420117   -2.26572223581707   -1.09003505630945
c         1.84597853392452   -0.93533651600893   -1.28597511695344
c         3.05789964265787   -0.51031630968783   -2.08811970814951
c         3.03781387747717   -1.07967808056090   -3.54226796313577
n         3.40992269747593    0.88869310189583   -2.00849576880542
n        -1.17802110439467   -2.02417163432141    0.85884798975264
c        -2.58932255485308   -1.73994718899416    1.05725641963929
c        -2.93391901947198   -2.07767376266818    2.49887036998906
c        -2.99128180417345   -0.28048320059351    0.74299575277248
o        -3.52624916047455    0.41998379900721    1.57494768651829
n        -2.48359592277723    0.22373384692342   -0.39679288859724
o        -1.08351025598068    3.40451465395050   -0.97887514595851
o        -0.99402702841134    1.96154973841189    0.77130323327438
c        -2.64273301616659    1.58489796596759   -0.86939538012477
c        -1.50644715795631    2.47263402002910   -0.35066347253864
c        -2.61236845233434    1.55494477672866   -2.39075200995440
h         1.11825991110233   -3.00534330560537    0.77135333893780
h         0.09749178807037   -4.24592331633572   -1.74918967887137
h        -0.03260034413838   -5.03662291490481   -0.22205165684587
h         1.56290903085836   -4.90629021226620   -0.77604289694882
h         1.12716201946207   -1.17978137678544   -3.65504911475759
h         2.22011701666419   -2.84712951167688   -1.76124133109111
h         3.85403469762574   -1.02669748488771   -1.53836473847288
h         3.87659245892516   -1.78150286123079   -3.59103740460383
h         3.25395117488408   -0.28230043785925   -4.26599565031679
h         3.24491497943791    1.20129368874554   -1.05447784535628
h         2.73383683112016    1.36532084406082   -2.59620829931123
h        -0.56113217810490   -2.21311696452355    1.63889379339546
h        -3.19734462946226   -2.22018535513444    0.28071257778494
h        -2.79971207645293   -3.14392195689544    2.65507737291099
h        -3.97882028843646   -1.81250245257506    2.64109407356008
h        -2.47416246879356   -1.39595659041338    3.20974659653811
h        -1.93743482011756   -0.35249247207141   -1.02669361500689
h        -3.60182669877758    1.95398146689043   -0.48598822029075
h        -1.63867670198182    1.83267790473599   -2.78415520043428
h        -3.20374734314899    2.38254190297894   -2.77242575105451
h        -3.00183243129288    0.57467987606987   -2.65497139891508
c         0.25786868217451    2.27034236432654    1.27325667699696
c         0.68812226015704    1.26603422553737    2.15461655330064
c         1.00522244344821    3.40902523840347    1.03096648429175
c         2.00260758938640    1.42139995271720    2.58637461418613
c         2.72001091269107    2.59747087045173    2.48649479938332
c         2.19376836976271    3.61926090648054    1.71282357342423
h         0.57927762009765    4.11319344850757    0.33378541367384
h         3.63760588240850    2.75851282950564    3.03140468474065
h         2.76206643869309    4.52818010083167    1.58743464679268
h         2.39326795501166    0.61982364361309    3.19543186046002
c        -0.15125643403667    0.13110730625003    2.53146173578408
o         0.36106314349303   -0.89533046612530    2.92182213436425
h        -1.24295126005282    0.21851312528685    2.41102490970486
56
 energy: -94.072634475726 gnorm: 0.120597890451 xtb: 6.4.0 (d4b70c2)
c         0.45470110900053   -3.16055273943123   -0.73132714720941
c        -0.05576566571649   -4.38764735009255   -1.47396958716648
c        -0.77393871130019   -2.25948210542986   -0.55617170875345
o        -1.46633486265109   -1.98409588763545   -1.53216674663099
o         1.24882533979740   -0.49728254671401   -0.78693685120200
o         2.96056855502489   -1.50219796043105   -4.29297932946425
n         1.55784286665829   -2.59229301295329   -1.48409990048848
c         1.96578235843273   -1.31433696218096   -1.34357192899505
c         3.33080849866286   -1.02530397215070   -1.93178484143113
c         3.80209785455257   -1.78761111560577   -3.21080695123486
n         3.43798978401520    0.38849337096929   -2.20959190322330
n        -1.07946561136884   -2.04424548950305    0.72378309025190
c        -2.44592120935417   -1.72303819495080    1.10000928815582
c        -2.48963678024505   -2.04402129362712    2.58530909438375
c        -2.80684019836168   -0.22576732703240    0.96479273511610
o        -3.19386990487912    0.48276611191750    1.86877086220410
n        -2.67612756546773    0.16397291837955   -0.31665747644590
o        -1.71925445029967    3.63730669190464   -0.48038338065825
o        -1.02304394131382    1.80528880839554    0.68924839498077
c        -2.84777715232241    1.53678365551247   -0.74952301066130
c        -1.76384257366206    2.47047062038701   -0.20032530466821
c        -2.94987226301347    1.57002455785505   -2.26768532887395
h         0.84490343150906   -3.44776460336675    0.25185359424535
h        -0.35384002040324   -4.00648092934233   -2.44902749600327
h        -0.87819651739115   -4.81855357046458   -0.90915581408252
h         0.74811706058742   -5.08208566907051   -1.70584363610889
h         2.84675667462309   -0.53609376885920   -4.37407285319601
h         2.02082693022793   -3.26984029387035   -2.07117677308321
h         4.06738092916711   -1.26440017897546   -1.15525079551706
h         3.76949202294859   -2.87874355071562   -3.12802496539053
h         4.84153889809703   -1.44231872316620   -3.29231570075902
h         3.84511538738588    0.89554174148467   -1.42712940321893
h         2.59928033602492    0.89845451774090   -2.46684316551046
h        -0.32325279191805   -2.17699061096069    1.38351381324030
h        -3.15232636426824   -2.35040027270557    0.54256113644933
h        -3.51111216766924   -1.81305463876935    2.87260645628383
h        -1.88014336787777   -1.41750511387620    3.23211456715514
h        -2.40648599183055   -3.12676457492041    2.63234445629065
h        -2.14768218258805   -0.44749448011729   -0.92817749406523
h        -3.75896815862426    1.81031134626775   -0.20363115663317
h        -3.06015934324686    0.58794179643398   -2.71860394172017
h        -2.21519108738562    2.15931717230727   -2.80925584726782
h        -3.81640594181775    2.11732864350884   -2.63099095097456
c         0.06333729270308    2.37951618927587    1.32532368112196
c         0.64822338109541    1.65147362679505    2.37337450369589
c         0.68424803631144    3.59268046962269    1.08753561283141
c         1.90188046012424    1.94641487284919    2.90231573365885
c         2.53638115021460    3.12223574361009    2.55211511833341
c         1.87805963617998    3.97411374247171    1.68006584884281
h         0.39315572138144    4.25178641166465    0.28492241865367
h         3.53201796262991    3.42820659384142    2.83483584030052
h         2.36375573523430    4.88639444093261    1.36916005802608
h         2.36596755988881    1.36343380333140    3.68388280014791
c        -0.01385927562040    0.40587847758593    2.75385746417506
o         0.62168051884748   -0.60445581339383    2.96300068312425
h        -1.10899642569984    0.52012087598593    2.79342630686012
56
 energy: -94.066985999709 gnorm: 0.101502722733 xtb: 6.4.0 (d4b70c2)
c         0.19932380963456   -3.38921957947944   -1.17808071847804
c        -0.43892270985635   -4.42660067816592   -2.09150128442586
c        -0.90343277857423   -2.39625104990225   -0.79064696967005
o        -1.70710614151432   -2.02842795103994   -1.64307385562234
o         1.37692071306527   -0.97870306927006   -0.61248325625578
o         4.36078383002866   -1.43887052020699   -4.13329589521293
n         1.39269947890171   -2.86661478470879   -1.81780440207138
c         1.97186139505584   -1.73659222711962   -1.36288147158190
c         3.35708401631737   -1.41629130680349   -1.88383870367973
c         4.06226718366222   -2.22853623285643   -3.01613648120438
n         3.29753573293977   -0.03372726920124   -2.29911955922892
n        -1.02116036651002   -2.17963177099276    0.51976291397356
c        -2.28811288596499   -1.74252728788837    1.08162780063974
c        -2.31913414272166   -2.29969715264832    2.49571978200188
c        -2.67084280038157   -0.24477071085722    1.05694764158542
o        -2.94764932096963    0.31101647655636    2.09784476280888
n        -2.68330112436552    0.29545060969179   -0.17557155931503
o        -2.03213919285679    3.80120477923506    0.03289040921996
o        -1.00006339806584    1.89015032334498    0.68832958827641
c        -3.04593509744071    1.67162919289757   -0.45138767064291
c        -1.95989578872445    2.60421458236510    0.09551874740779
c        -3.30377117520162    1.94588101527519   -1.92605768094853
h         0.58195715462424   -3.92747488459766   -0.30328598878227
h        -0.81317964856013   -3.90470304243970   -2.97038050660181
h        -1.30985522034204   -4.93691681876361   -1.68883359033345
h         0.26525708744031   -5.20348711142809   -2.37927875290157
h         3.71736904693740   -0.71365109965854   -4.01945029410499
h         1.82860214664534   -3.52035740453824   -2.45080776337619
h         3.92731174533889   -1.59160133024054   -0.96361167343282
h         3.53825676729296   -3.16243477736813   -3.24358444355515
h         5.01328606719823   -2.50987630989840   -2.54420530410670
h         4.22762574278386    0.33860701699091   -2.12192864307370
h         2.66028446182779    0.37871980399374   -1.62571748983985
h        -0.11347806613637   -2.23860040714964    0.96401425916772
h        -3.03764798914805   -2.22387890767731    0.44144220164700
h        -1.52692505478744   -1.81225215471016    3.05616556086457
h        -2.30956150967525   -3.36468891509306    2.27648709305380
h        -3.29037475242236   -2.13146306083581    2.95381186842294
h        -2.51659213940744   -0.33544491360297   -0.95099568236227
h        -3.94789367686135    1.78456935353489    0.16245235276877
h        -4.33529830359636    2.21641991551675   -2.13278905800113
h        -3.11785627364837    1.05287977220167   -2.51623160477762
h        -2.75243975251861    2.83723859152306   -2.21576214648916
c         0.07479242294004    2.56708184828810    1.23696558497714
c         0.74509315472203    1.87252504621688    2.25619846619202
c         0.51922196533337    3.80484782421646    0.80771231569553
c         1.73547730224569    2.54588666240483    2.96623251054719
c         2.12545326260790    3.82369749255179    2.61565527129966
c         1.51661441090562    4.43781997558774    1.53319419796834
h         0.22421021650740    4.17025001069810   -0.16326271544245
h         2.97918648136884    4.24080628074309    3.12751619784035
h         1.83667743205351    5.34660557408085    1.04689438003041
h         2.19911222216732    1.96945919132107    3.75291209503720
c         0.32447323401609    0.52101331474193    2.61830709992445
o         0.95776995184642   -0.28212077354385    3.26818240313710
h        -0.65315370279036    0.33166988570319    2.14678090285253
56
 energy: -94.074085979355 gnorm: 0.111009002791 xtb: 6.4.0 (d4b70c2)
c        -0.01230091865585   -3.50958030336755   -1.56596990056357
c        -0.58970678244138   -4.46265063883702   -2.60332939144708
c        -1.03753201622507   -2.48904051166692   -1.05649638383012
o        -1.73024598711560   -1.90166745747566   -1.88290825052048
o         1.45005026485797   -1.38206783213191   -0.41852667466352
o         4.99088051243570   -1.77900628146750   -3.46002297265574
n         1.18650419684434   -2.86353707493356   -2.06796801926405
c         1.94395781931129   -2.02411411776357   -1.33246309061560
c         3.33595374403920   -1.59725469958107   -1.74835877335708
c         3.91149818622025   -2.47634998391335   -2.90380823304961
n         3.33667236229725   -0.21622072116207   -2.17289633595220
n        -1.21563711192897   -2.45603569835404    0.26454375566335
c        -2.40005058931644   -1.98784922445964    0.96446328022599
c        -2.26806474075391   -2.54388196919848    2.37317334727310
c        -2.60147800218903   -0.45494589225890    0.96376766915767
o        -2.81144276083891    0.08777629907089    2.02694945901770
n        -2.52196303420275    0.22065325987712   -0.19741322556330
o        -2.43387670362218    3.68651697516307    0.66239762759438
o        -0.78662221949758    2.12129911632104    0.48840616034715
c        -3.00400020795373    1.58699387693323   -0.24430632198697
c        -2.01700290096372    2.61269195432057    0.32321760240447
c        -3.67726679112476    1.98350579627028   -1.55038273810317
h         0.30276075054921   -4.17087610484544   -0.75060686091229
h        -0.98507577619985   -3.92313645537697   -3.46209705116309
h        -1.41545237743054   -5.02827472764948   -2.17989004727528
h         0.10931646579651   -5.23999535871911   -2.90222615775198
h         4.67844996348951   -0.90647172549212   -3.76654738075999
h         1.57932857397753   -3.33700229732447   -2.86772016966146
h         3.85812566715473   -1.77363356565417   -0.80023534498491
h         3.08432247873049   -2.61105789691986   -3.60816617500723
h         4.31796365479301   -3.43537873273940   -2.55544366227115
h         4.17869173457227    0.27179482712771   -1.87634773983767
h         2.62589625938633    0.32373450898789   -1.69028075443500
h        -0.34971163655384   -2.61217578020028    0.76506056476042
h        -3.28825384575168   -2.31505949704403    0.41005523454552
h        -2.37492142877331   -3.62453340304142    2.36471952673954
h        -3.16551885901673   -2.23377373593257    2.90305168656946
h        -1.40112532047462   -2.22521874178166    2.94617350906443
h        -2.16490319972130   -0.23308915512200   -1.03031762486792
h        -3.81422157402455    1.53389791646799    0.49312606095928
h        -3.63397476034448    3.06140004492643   -1.67784714165033
h        -4.71775898872875    1.68418021862118   -1.46037703882201
h        -3.21074934215987    1.36662923503390   -2.31473745304291
c         0.17299141645033    2.89163002810201    1.12108692439844
c         0.90679158981837    2.19693507476440    2.09550184004999
c         0.42064815263843    4.21202151698243    0.79082444808193
c         1.84093875271197    2.91767444398919    2.83464257859113
c         2.02520649762941    4.26868806117021    2.61420234187875
c         1.37049828898455    4.87365655966112    1.55357822106474
h        -0.16370006112216    4.63052414005540   -0.01337454392397
h         2.68295811538121    4.81927588651385    3.26922728302641
h         1.64322977805382    5.89971432253781    1.35956230940011
h         2.39261508481328    2.33013764879527    3.55335292379190
c         0.83125050833959    0.77599318228374    2.42693157389314
o         1.18554890490159    0.34298828430239    3.50182993922339
h         0.36133648944199    0.17744119932199    1.63015134662338
56
 energy: -94.081582786357 gnorm: 0.097465823848 xtb: 6.4.0 (d4b70c2)
c        -0.07606273018036   -3.54847875255072   -1.77303024755742
c        -0.64887208509056   -4.19992279789155   -3.02417587818536
c        -1.08581713090184   -2.53888977187788   -1.21330742645192
o        -1.84499283148796   -1.90097696431174   -1.93755586739684
o         1.52791848094962   -2.06052300119576   -0.11555271398384
o         5.20579024941395   -2.56989173355731   -2.83763071258481
n         1.13477838760307   -2.83960883814423   -2.14434531059568
c         1.90725038465616   -2.16001242471756   -1.27212395156356
c         3.21772061957344   -1.59830669409257   -1.78201144294709
c         3.86908114652181   -2.21682289056049   -3.05962270970544
n         3.10999836262387   -0.15795111204762   -1.81749686051748
n        -1.22079309160965   -2.61638534481506    0.11097867670211
c        -2.40045707393125   -2.13369467988321    0.80906447348596
c        -2.49224996975943   -2.88506815021180    2.12742280249996
c        -2.38380703116891   -0.61904589177408    1.11878676527890
o        -2.51027903214966   -0.14131753630223    2.22547937184853
n        -2.40530261939781    0.13668226333751    0.00545358092545
o        -2.51963714279561    3.63827993614763    0.96675160327723
o        -0.81965898039662    2.22862168291658    0.46946619022434
c        -2.99208955418630    1.46202865488585    0.02960912775907
c        -2.10289703478403    2.57653288475042    0.59132132085041
c        -3.36856645969150    1.92358534559075   -1.37095352205445
h         0.12143746681520   -4.29524776417655   -0.99539113982255
h        -0.85506859661390   -3.33365516484289   -3.65022497477875
h        -1.57197289964145   -4.74385007193205   -2.84219983908817
h         0.10513101944686   -4.72536428970657   -3.60523365908317
h         5.74395426422091   -1.79051557553373   -2.60132813260663
h         1.38354074889171   -2.82785569645323   -3.12213002708748
h         3.89119817703225   -1.84581359007338   -0.95262650908061
h         3.81669855155718   -1.56595857498262   -3.93832498489051
h         3.38725863696401   -3.16621108652149   -3.32946954257468
h         2.56856015860255    0.13398166847621   -1.00711621519637
h         2.86882968802837    0.22293350267011   -2.72658249908987
h        -0.40712433283167   -2.90157102017797    0.64138983551580
h        -3.27565269305965   -2.33774366812639    0.17998856798039
h        -3.44405757047432   -2.54276307557195    2.52262763988434
h        -1.68278794856421   -2.73964952783244    2.83875023941773
h        -2.59367350454721   -3.94774151723870    1.92273285845267
h        -2.33744727538985   -0.36170199213007   -0.87438300326234
h        -3.93113457509861    1.43087160853016    0.59556676175755
h        -2.48228871650959    1.93218181935415   -1.99897839717286
h        -3.77676843310631    2.92931744160864   -1.32410337110153
h        -4.15339317322084    1.33006522582732   -1.83376476540327
c         0.12542567982934    3.06733213493521    1.03332145252179
c         1.03437454336250    2.53634822002296    1.96198514231569
c         0.19345350509878    4.42547153396242    0.77901763979901
c         1.98448286621072    3.34042892359090    2.58582295111655