[Molden Format]
[Geometries] (XYZ)
9

C       -2.503271      -0.034660       1.177910
C       -1.161452      -0.081035       1.843332
C       -0.014168      -0.019742       1.193621
H       -1.164803      -0.170377       2.921598
H       -3.305510      -0.100338       1.907655
H       -2.619350       0.892759       0.618232
H       -2.607933      -0.858777       0.473143
H        0.023453       0.069434       0.119732
H        0.934243      -0.055654       1.701667
9

C       -2.641774       0.050924       1.085496
C       -1.225524       0.213808       1.502614
C       -0.024488      -0.030952       1.011387
H       -1.016683       0.053794       2.567720
H       -3.250411      -0.184710       1.949946
H       -3.029161       0.984202       0.670476
H       -2.734481      -0.717692       0.323929
H        0.467490       0.088576       0.061085
H        0.969644      -0.122818       1.906398
9

C       -2.734816       0.066831       1.053323
C       -1.276589       0.272842       1.204046
C       -0.010452      -0.089569       0.910387
H       -0.837239      -0.082971       2.141397
H       -3.136746      -0.231819       2.016438
H       -3.247527       0.987318       0.765918
H       -2.936683      -0.676352       0.283022
H        0.651716      -0.034685       0.067516
H        0.893332      -0.005435       2.277233
9

C       -2.739229       0.080407       1.127173
C       -1.292846       0.263281       1.025458
C       -0.031198      -0.076455       0.786221
H       -0.464893      -0.136178       2.074673
H       -3.000806      -0.202670       2.143193
H       -3.261968       1.027391       0.901717
H       -3.080436      -0.660832       0.413600
H        0.710347      -0.008009       0.034351
H        0.580982       0.055770       2.831812
9

C       -2.736920       0.008629       1.157058
C       -1.323393       0.255141       0.897647
C       -0.098632      -0.055861       0.672746
H       -0.157307      -0.095806       2.250392
H       -2.896398      -0.262022       2.203021
H       -3.328553       0.901416       0.952769
H       -3.089121      -0.788339       0.498849
H        0.781449      -0.170239       0.105738
H        0.535027      -0.199670       3.075480
9

C       -2.761120       0.026536       1.128948
C       -1.373904       0.101684       0.740321
C       -0.210999       0.041210       0.499233
H        0.110289      -0.172889       2.596864
H       -2.849889      -0.119218       2.205289
H       -3.273266       0.951954       0.859654
H       -3.244832      -0.799578       0.608882
H        0.747381       0.051077       0.071643
H        0.560429      -0.224268       3.303826
9

C       -2.833082      -0.022826       1.011145
C       -1.435629       0.017625       0.644648
C       -0.275832       0.049075       0.352184
H        0.312815      -0.162189       2.923709
H       -2.931870      -0.111939       2.092926
H       -3.330022       0.890192       0.683895
H       -3.316438      -0.878114       0.539472
H        0.737758       0.078355       0.084946
H        0.653509      -0.218568       3.623965
[GEOCONV]
energy
0.0
31.5511980596
103.591743949
140.750203407
85.7240691186
48.7489351915
46.0195238624
max-force
3.68404252626e-05
0.00861112839815
0.00896901468822
0.00737259079222
0.00969524962092
0.00343820343042
5.29862046431e-05
max-step
1000.0
1000.0
1000.0
1000.0
1000.0
1000.0
1000.0
