
                                 *****************
                                 * O   R   C   A *
                                 *****************

                                            #,                                       
                                            ###                                      
                                            ####                                     
                                            #####                                    
                                            ######                                   
                                           ########,                                 
                                     ,,################,,,,,                         
                               ,,#################################,,                 
                          ,,##########################################,,             
                       ,#########################################, ''#####,          
                    ,#############################################,,   '####,        
                  ,##################################################,,,,####,       
                ,###########''''           ''''###############################       
              ,#####''   ,,,,##########,,,,          '''####'''          '####       
            ,##' ,,,,###########################,,,                        '##       
           ' ,,###''''                  '''############,,,                           
         ,,##''                                '''############,,,,        ,,,,,,###''
      ,#''                                            '''#######################'''  
     '                                                          ''''####''''         
             ,#######,   #######,   ,#######,      ##                                
            ,#'     '#,  ##    ##  ,#'     '#,    #''#        ######   ,####,        
            ##       ##  ##   ,#'  ##            #'  '#       #        #'  '#        
            ##       ##  #######   ##           ,######,      #####,   #    #        
            '#,     ,#'  ##    ##  '#,     ,#' ,#      #,         ##   #,  ,#        
             '#######'   ##     ##  '#######'  #'      '#     #####' # '####'        



                  #######################################################
                  #                        -***-                        #
                  #          Department of theory and spectroscopy      #
                  #    Directorship and core code : Frank Neese         #
                  #        Max Planck Institute fuer Kohlenforschung    #
                  #                Kaiser Wilhelm Platz 1               #
                  #                 D-45470 Muelheim/Ruhr               #
                  #                      Germany                        #
                  #                                                     #
                  #                  All rights reserved                #
                  #                        -***-                        #
                  #######################################################


                         Program Version 5.0.1 -  RELEASE  -


 With contributions from (in alphabetic order):
   Daniel Aravena         : Magnetic Suceptibility
   Michael Atanasov       : Ab Initio Ligand Field Theory (pilot matlab implementation)
   Alexander A. Auer      : GIAO ZORA, VPT2 properties, NMR spectrum
   Ute Becker             : Parallelization
   Giovanni Bistoni       : ED, misc. LED, open-shell LED, HFLD
   Martin Brehm           : Molecular dynamics
   Dmytro Bykov           : SCF Hessian
   Vijay G. Chilkuri      : MRCI spin determinant printing, contributions to CSF-ICE
   Dipayan Datta          : RHF DLPNO-CCSD density
   Achintya Kumar Dutta   : EOM-CC, STEOM-CC
   Dmitry Ganyushin       : Spin-Orbit,Spin-Spin,Magnetic field MRCI
   Miquel Garcia          : C-PCM and meta-GGA Hessian, CC/C-PCM, Gaussian charge scheme
   Yang Guo               : DLPNO-NEVPT2, F12-NEVPT2, CIM, IAO-localization
   Andreas Hansen         : Spin unrestricted coupled pair/coupled cluster methods
   Benjamin Helmich-Paris : MC-RPA, TRAH-SCF, COSX integrals
   Lee Huntington         : MR-EOM, pCC
   Robert Izsak           : Overlap fitted RIJCOSX, COSX-SCS-MP3, EOM
   Marcus Kettner         : VPT2
   Christian Kollmar      : KDIIS, OOCD, Brueckner-CCSD(T), CCSD density, CASPT2, CASPT2-K
   Simone Kossmann        : Meta GGA functionals, TD-DFT gradient, OOMP2, MP2 Hessian
   Martin Krupicka        : Initial AUTO-CI
   Lucas Lang             : DCDCAS
   Marvin Lechner         : AUTO-CI (C++ implementation), FIC-MRCC
   Dagmar Lenk            : GEPOL surface, SMD
   Dimitrios Liakos       : Extrapolation schemes; Compound Job, initial MDCI parallelization
   Dimitrios Manganas     : Further ROCIS development; embedding schemes
   Dimitrios Pantazis     : SARC Basis sets
   Anastasios Papadopoulos: AUTO-CI, single reference methods and gradients
   Taras Petrenko         : DFT Hessian,TD-DFT gradient, ASA, ECA, R-Raman, ABS, FL, XAS/XES, NRVS
   Peter Pinski           : DLPNO-MP2, DLPNO-MP2 Gradient
   Christoph Reimann      : Effective Core Potentials
   Marius Retegan         : Local ZFS, SOC
   Christoph Riplinger    : Optimizer, TS searches, QM/MM, DLPNO-CCSD(T), (RO)-DLPNO pert. Triples
   Tobias Risthaus        : Range-separated hybrids, TD-DFT gradient, RPA, STAB
   Michael Roemelt        : Original ROCIS implementation
   Masaaki Saitow         : Open-shell DLPNO-CCSD energy and density
   Barbara Sandhoefer     : DKH picture change effects
   Avijit Sen             : IP-ROCIS
   Kantharuban Sivalingam : CASSCF convergence, NEVPT2, FIC-MRCI
   Bernardo de Souza      : ESD, SOC TD-DFT
   Georgi Stoychev        : AutoAux, RI-MP2 NMR, DLPNO-MP2 response
   Willem Van den Heuvel  : Paramagnetic NMR
   Boris Wezisla          : Elementary symmetry handling
   Frank Wennmohs         : Technical directorship


 We gratefully acknowledge several colleagues who have allowed us to
 interface, adapt or use parts of their codes:
   Stefan Grimme, W. Hujo, H. Kruse, P. Pracht,  : VdW corrections, initial TS optimization,
                  C. Bannwarth, S. Ehlert          DFT functionals, gCP, sTDA/sTD-DF
   Ed Valeev, F. Pavosevic, A. Kumar             : LibInt (2-el integral package), F12 methods
   Garnet Chan, S. Sharma, J. Yang, R. Olivares  : DMRG
   Ulf Ekstrom                                   : XCFun DFT Library
   Mihaly Kallay                                 : mrcc  (arbitrary order and MRCC methods)
   Jiri Pittner, Ondrej Demel                    : Mk-CCSD
   Frank Weinhold                                : gennbo (NPA and NBO analysis)
   Christopher J. Cramer and Donald G. Truhlar   : smd solvation model
   Lars Goerigk                                  : TD-DFT with DH, B97 family of functionals
   V. Asgeirsson, H. Jonsson                     : NEB implementation
   FAccTs GmbH                                   : IRC, NEB, NEB-TS, DLPNO-Multilevel, CI-OPT
                                                   MM, QMMM, 2- and 3-layer-ONIOM, Crystal-QMMM,
                                                   LR-CPCM, SF, NACMEs, symmetry and pop. for TD-DFT,
                                                   nearIR, NL-DFT gradient (VV10), updates on ESD,
                                                   ML-optimized integration grids
   S Lehtola, MJT Oliveira, MAL Marques          : LibXC Library
   Liviu Ungur et al                             : ANISO software


 Your calculation uses the libint2 library for the computation of 2-el integrals
 For citations please refer to: http://libint.valeyev.net

 Your ORCA version has been built with support for libXC version: 5.1.0
 For citations please refer to: https://tddft.org/programs/libxc/

 This ORCA versions uses:
   CBLAS   interface :  Fast vector & matrix operations
   LAPACKE interface :  Fast linear algebra routines
   SCALAPACK package :  Parallel linear algebra routines
   Shared memory     :  Shared parallel matrices
   BLAS/LAPACK       :  OpenBLAS 0.3.15  USE64BITINT DYNAMIC_ARCH NO_AFFINITY Zen SINGLE_THREADED
        Core in use  :  Zen
   Copyright (c) 2011-2014, The OpenBLAS Project


Your calculation utilizes the atom-pairwise dispersion correction
with the Becke-Johnson damping scheme (D3BJ)
Cite in your paper:
S.Grimme, S.Ehrlich, L.Goerigk, J Comput Chem, (2011), 32, 1456–1465 
S.Grimme, J.Antony, S.Ehrlich and H.Krieg, J.Chem.Phys., 132, (2010), 154104 
   

Your calculation employs the composite approach B97-3c by Grimme and coworkers.
For the correct reference, please check the publication list of the Grimme group:
http://www.thch.uni-bonn.de/tc/index.php?section=publikationen&subsection=grimme#2017
   

XCFun DFT library Copyright 2009-2010 Ulf Ekstrom and contributors.
See http://admol.org/xcfun for more information.
This is free software; see the source code for copying conditions.
There is ABSOLUTELY NO WARRANTY; not even for MERCHANTABILITY or FITNESS FOR A PARTICULAR PURPOSE.
For details see the documentation.
Scientific users of this library should cite U. Ekstrom, L. Visscher, R. Bast, A. J. Thorvaldsen and K. Ruud;
J.Chem.Theor.Comp. 2010, DOI: 10.1021/ct100117s
XCFun Version 0.99 

================================================================================

----- Orbital basis set information -----
Your calculation utilizes the basis: def2-mTZVP
----- AuxJ basis set information -----
Your calculation utilizes the basis: def2-mTZVP/J
================================================================================
                                        WARNINGS
                       Please study these warnings very carefully!
================================================================================


WARNING: Geometry Optimization
  ===> : Switching off AutoStart
         For restart on a previous wavefunction, please use MOREAD

INFO   : the flag for use of the SHARK integral package has been found!


WARNING: TRAH does not support fractional occupations!
  ===> : Turning TRAH off
================================================================================
                                       INPUT FILE
================================================================================
NAME = XSASRUDTFFBDDK-UHFFFAOYSA-N.in
|  1> ! B97-3c Opt Freq tightscf 
|  2> 
|  3> %scf
|  4> smeartemp 5000
|  5> end
|  6> 
|  7> %pal
|  8> nproc 4
|  9> end
| 10> 
| 11> %maxcore 4000
| 12> 
| 13> %base "XSASRUDTFFBDDK-UHFFFAOYSA-N"
| 14> 
| 15> * xyz 0 1
| 16>   O   -0.89738471       1.29692524      -0.22437532     
| 17>   O   -1.56302948       0.17921955       0.35057654     
| 18>   C   -1.04880282      -0.99974914      -0.20897618     
| 19>   C    0.42057336      -1.22232353       0.16926079     
| 20>   C    1.27735402      -0.11352258      -0.38481842     
| 21>   O    2.04362896       0.54694936       0.25807217     
| 22>   H   -0.71508267       1.86967202       0.53390010     
| 23>   H   -1.68756019      -1.77842524       0.21295082     
| 24>   H   -1.16191307      -0.97968672      -1.30025754     
| 25>   H    0.75448917      -2.16496837      -0.26702786     
| 26>   H    0.53223665      -1.26290037       1.25413929     
| 27>   H    1.15835247       0.03467558      -1.47455020     
| 28> *
| 29> 
| 30>                          ****END OF INPUT****
================================================================================

                       *****************************
                       * Geometry Optimization Run *
                       *****************************

Geometry optimization settings:
Update method            Update   .... BFGS
Choice of coordinates    CoordSys .... Z-matrix Internals
Initial Hessian          InHess   .... Almoef's Model

Convergence Tolerances:
Energy Change            TolE     ....  5.0000e-06 Eh
Max. Gradient            TolMAXG  ....  3.0000e-04 Eh/bohr
RMS Gradient             TolRMSG  ....  1.0000e-04 Eh/bohr
Max. Displacement        TolMAXD  ....  4.0000e-03 bohr
RMS Displacement         TolRMSD  ....  2.0000e-03 bohr
Strict Convergence                ....  False
------------------------------------------------------------------------------
                        ORCA OPTIMIZATION COORDINATE SETUP
------------------------------------------------------------------------------

The optimization will be done in new redundant internal coordinates
Making redundant internal coordinates   ...  (new redundants) done
Evaluating the initial hessian          ...  (Almloef) done
Evaluating the coordinates              ...  done
Calculating the B-matrix                .... done
Calculating the G-matrix                .... done
Diagonalizing the G-matrix              .... done
Small eigenvalue found = 2.832e-02
The first mode is                       ....   17
The number of degrees of freedom        ....   30

    -----------------------------------------------------------------
                    Redundant Internal Coordinates


    -----------------------------------------------------------------
         Definition                    Initial Value    Approx d2E/dq
    -----------------------------------------------------------------
      1. B(O   1,O   0)                  1.4223         0.445133   
      2. B(C   2,O   1)                  1.4027         0.534139   
      3. B(C   3,C   2)                  1.5335         0.368782   
      4. B(C   4,C   3)                  1.5068         0.406775   
      5. B(O   5,C   4)                  1.1986         1.130310   
      6. B(H   6,O   0)                  0.9676         0.505635   
      7. B(H   7,C   2)                  1.0920         0.357521   
      8. B(H   8,C   2)                  1.0973         0.350557   
      9. B(H   9,C   3)                  1.0911         0.358691   
     10. B(H  10,C   3)                  1.0914         0.358299   
     11. B(H  11,C   4)                  1.1062         0.339317   
     12. A(O   1,O   0,H   6)          103.6828         0.345986   
     13. A(O   0,O   1,C   2)          109.1282         0.390885   
     14. A(O   1,C   2,H   7)          103.3431         0.341643   
     15. A(H   7,C   2,H   8)          109.6949         0.289290   
     16. A(O   1,C   2,C   3)          112.0164         0.383167   
     17. A(C   3,C   2,H   7)          111.2044         0.323251   
     18. A(O   1,C   2,H   8)          110.0945         0.340520   
     19. A(C   3,C   2,H   8)          110.2864         0.322210   
     20. A(C   4,C   3,H  10)          109.5549         0.328626   
     21. A(C   4,C   3,H   9)          108.3425         0.328685   
     22. A(C   2,C   3,C   4)          110.3236         0.367873   
     23. A(C   2,C   3,H  10)          110.4025         0.323366   
     24. A(C   2,C   3,H   9)          108.6637         0.323424   
     25. A(H   9,C   3,H  10)          109.5155         0.290432   
     26. A(O   5,C   4,H  11)          121.5560         0.384837   
     27. A(C   3,C   4,H  11)          113.5569         0.325691   
     28. A(C   3,C   4,O   5)          124.8723         0.445382   
     29. D(C   2,O   1,O   0,H   6)   -136.2901         0.014685   
     30. D(H   8,C   2,O   1,O   0)    -57.1935         0.022673   
     31. D(C   3,C   2,O   1,O   0)     65.9103         0.022673   
     32. D(H   7,C   2,O   1,O   0)   -174.2960         0.022673   
     33. D(H  10,C   3,C   2,H   7)    -56.9263         0.010876   
     34. D(C   4,C   3,C   2,H   8)     59.9121         0.010876   
     35. D(C   4,C   3,C   2,H   7)   -178.1635         0.010876   
     36. D(H   9,C   3,C   2,H   8)    -58.7289         0.010876   
     37. D(C   4,C   3,C   2,O   1)    -63.0832         0.010876   
     38. D(H  10,C   3,C   2,O   1)     58.1541         0.010876   
     39. D(H   9,C   3,C   2,H   7)     63.1955         0.010876   
     40. D(H  10,C   3,C   2,H   8)   -178.8506         0.010876   
     41. D(H   9,C   3,C   2,O   1)    178.2758         0.010876   
     42. D(O   5,C   4,C   3,H   9)   -113.8564         0.012262   
     43. D(O   5,C   4,C   3,C   2)    127.3065         0.012262   
     44. D(H  11,C   4,C   3,H  10)   -175.8181         0.012262   
     45. D(H  11,C   4,C   3,H   9)     64.7592         0.012262   
     46. D(H  11,C   4,C   3,C   2)    -54.0778         0.012262   
     47. D(O   5,C   4,C   3,H  10)      5.5662         0.012262   
    -----------------------------------------------------------------

Number of atoms                         .... 12
Number of degrees of freedom            .... 47

         *************************************************************
         *                GEOMETRY OPTIMIZATION CYCLE   1            *
         *************************************************************
---------------------------------
CARTESIAN COORDINATES (ANGSTROEM)
---------------------------------
  O     -0.897385    1.296925   -0.224375
  O     -1.563029    0.179220    0.350577
  C     -1.048803   -0.999749   -0.208976
  C      0.420573   -1.222324    0.169261
  C      1.277354   -0.113523   -0.384818
  O      2.043629    0.546949    0.258072
  H     -0.715083    1.869672    0.533900
  H     -1.687560   -1.778425    0.212951
  H     -1.161913   -0.979687   -1.300258
  H      0.754489   -2.164968   -0.267028
  H      0.532237   -1.262900    1.254139
  H      1.158352    0.034676   -1.474550

----------------------------
CARTESIAN COORDINATES (A.U.)
----------------------------
  NO LB      ZA    FRAG     MASS         X           Y           Z
   0 O     8.0000    0    15.999   -1.695811    2.450834   -0.424008
   1 O     8.0000    0    15.999   -2.953698    0.338676    0.662494
   2 C     6.0000    0    12.011   -1.981950   -1.889252   -0.394908
   3 C     6.0000    0    12.011    0.794768   -2.309857    0.319857
   4 C     6.0000    0    12.011    2.413849   -0.214527   -0.727201
   5 O     8.0000    0    15.999    3.861899    1.033584    0.487686
   6 H     1.0000    0     1.008   -1.351310    3.533168    1.008925
   7 H     1.0000    0     1.008   -3.189027   -3.360737    0.402419
   8 H     1.0000    0     1.008   -2.195697   -1.851340   -2.457131
   9 H     1.0000    0     1.008    1.425778   -4.091197   -0.504610
  10 H     1.0000    0     1.008    1.005782   -2.386536    2.369980
  11 H     1.0000    0     1.008    2.188969    0.065527   -2.786496

--------------------------------
INTERNAL COORDINATES (ANGSTROEM)
--------------------------------
 O      0   0   0     0.000000000000     0.00000000     0.00000000
 O      1   0   0     1.422293433369     0.00000000     0.00000000
 C      2   1   0     1.402674401390   109.12818751     0.00000000
 C      3   2   1     1.533515217698   112.01637301    65.91028105
 C      4   3   2     1.506823286595   110.32359211   296.91683210
 O      5   4   3     1.198627872991   124.87234197   127.30653637
 H      1   2   3     0.967602459879   103.68280628   223.70990125
 H      3   2   1     1.091956885490   103.34306654   185.70400766
 H      3   2   1     1.097311002421   110.09450892   302.80649435
 H      4   3   2     1.091066839687   108.66373481   178.27582754
 H      4   3   2     1.091364526655   110.40253189    58.15405732
 H      5   4   3     1.106182361038   113.55692294   305.92216701

---------------------------
INTERNAL COORDINATES (A.U.)
---------------------------
 O      0   0   0     0.000000000000     0.00000000     0.00000000
 O      1   0   0     2.687745071142     0.00000000     0.00000000
 C      2   1   0     2.650670473689   109.12818751     0.00000000
 C      3   2   1     2.897923783649   112.01637301    65.91028105
 C      4   3   2     2.847483343880   110.32359211   296.91683210
 O      5   4   3     2.265078416437   124.87234197   127.30653637
 H      1   2   3     1.828503655681   103.68280628   223.70990125
 H      3   2   1     2.063499463626   103.34306654   185.70400766
 H      3   2   1     2.073617278315   110.09450892   302.80649435
 H      4   3   2     2.061817520812   108.66373481   178.27582754
 H      4   3   2     2.062380067654   110.40253189    58.15405732
 H      5   4   3     2.090381716536   113.55692294   305.92216701

---------------------
BASIS SET INFORMATION
---------------------
There are 3 groups of distinct atoms

 Group   1 Type O   : 11s6p2d contracted to 5s3p2d pattern {62111/411/11}
 Group   2 Type C   : 11s6p1d contracted to 5s3p1d pattern {62111/411/1}
 Group   3 Type H   : 5s contracted to 3s pattern {311}

Atom   0O    basis set group =>   1
Atom   1O    basis set group =>   1
Atom   2C    basis set group =>   2
Atom   3C    basis set group =>   2
Atom   4C    basis set group =>   2
Atom   5O    basis set group =>   1
Atom   6H    basis set group =>   3
Atom   7H    basis set group =>   3
Atom   8H    basis set group =>   3
Atom   9H    basis set group =>   3
Atom  10H    basis set group =>   3
Atom  11H    basis set group =>   3
---------------------------------
AUXILIARY/J BASIS SET INFORMATION
---------------------------------
There are 3 groups of distinct atoms

 Group   1 Type O   : 8s3p3d contracted to 6s3p3d pattern {311111/111/111}
 Group   2 Type C   : 8s3p3d contracted to 6s3p3d pattern {311111/111/111}
 Group   3 Type H   : 5s2p contracted to 3s1p pattern {311/2}

Atom   0O    basis set group =>   1
Atom   1O    basis set group =>   1
Atom   2C    basis set group =>   2
Atom   3C    basis set group =>   2
Atom   4C    basis set group =>   2
Atom   5O    basis set group =>   1
Atom   6H    basis set group =>   3
Atom   7H    basis set group =>   3
Atom   8H    basis set group =>   3
Atom   9H    basis set group =>   3
Atom  10H    basis set group =>   3
Atom  11H    basis set group =>   3


           ************************************************************
           *        Program running with 4 parallel MPI-processes     *
           *              working on a common directory               *
           ************************************************************
------------------------------------------------------------------------------
                           ORCA GTO INTEGRAL CALCULATION
                           -- RI-GTO INTEGRALS CHOSEN --
------------------------------------------------------------------------------
------------------------------------------------------------------------------
                   ___                                                        
                  /   \      - P O W E R E D   B Y -                         
                 /     \                                                     
                 |  |  |   _    _      __       _____    __    __             
                 |  |  |  | |  | |    /  \     |  _  \  |  |  /  |          
                  \  \/   | |  | |   /    \    | | | |  |  | /  /          
                 / \  \   | |__| |  /  /\  \   | |_| |  |  |/  /          
                |  |  |   |  __  | /  /__\  \  |    /   |      \           
                |  |  |   | |  | | |   __   |  |    \   |  |\   \          
                \     /   | |  | | |  |  |  |  | |\  \  |  | \   \       
                 \___/    |_|  |_| |__|  |__|  |_| \__\ |__|  \__/        
                                                                              
                      - O R C A' S   B I G   F R I E N D -                    
                                      &                                       
                       - I N T E G R A L  F E E D E R -                       
                                                                              
 v1 FN, 2020, v2 2021                                                         
------------------------------------------------------------------------------


Reading SHARK input file XSASRUDTFFBDDK-UHFFFAOYSA-N.SHARKINP.tmp ... ok
----------------------
SHARK INTEGRAL PACKAGE
----------------------

Number of atoms                             ...     12
Number of basis functions                   ...    147
Number of shells                            ...     75
Maximum angular momentum                    ...      2
Integral batch strategy                     ... SHARK/LIBINT Hybrid
RI-J (if used) integral strategy            ... SPLIT-RIJ (Revised 2003 algorithm where possible)
Printlevel                                  ...      1
Contraction scheme used                     ... SEGMENTED contraction
Coulomb Range Separation                    ... NOT USED
Exchange Range Separation                   ... NOT USED
Finite Nucleus Model                        ... NOT USED
Auxiliary Coulomb fitting basis             ... AVAILABLE
   # of basis functions in Aux-J            ...    216
   # of shells in Aux-J                     ...     96
   Maximum angular momentum in Aux-J        ...      2
Auxiliary J/K fitting basis                 ... NOT available
Auxiliary Correlation fitting basis         ... NOT available
Auxiliary 'external' fitting basis          ... NOT available
Integral threshold                          ...     2.500000e-11
Primitive cut-off                           ...     2.500000e-12
Primitive pair pre-selection threshold      ...     2.500000e-12

Calculating pre-screening integrals         ... done (  0.6 sec) Dimension = 75
Organizing shell pair data                  ... done (  0.0 sec)
Shell pair information
Total number of shell pairs                 ...      2850
Shell pairs after pre-screening             ...      2717
Total number of primitive shell pairs       ...     10161
Primitive shell pairs kept                  ...      7247
          la=0 lb=0:   1078 shell pairs
          la=1 lb=0:    840 shell pairs
          la=1 lb=1:    170 shell pairs
          la=2 lb=0:    422 shell pairs
          la=2 lb=1:    162 shell pairs
          la=2 lb=2:     45 shell pairs

Calculating one electron integrals          ... done (  0.0 sec)
Calculating RI/J V-Matrix + Cholesky decomp.... done (  0.1 sec)
Calculating Nuclear repulsion               ... done (  0.0 sec) ENN=    247.153819942216 Eh

SHARK setup successfully completed in   0.7 seconds

Maximum memory used throughout the entire GTOINT-calculation: 7.7 MB


           ************************************************************
           *        Program running with 4 parallel MPI-processes     *
           *              working on a common directory               *
           ************************************************************
-------------------------------------------------------------------------------
                                 ORCA SCF
-------------------------------------------------------------------------------

------------
SCF SETTINGS
------------
Hamiltonian:
 Density Functional     Method          .... DFT(GTOs)
 Exchange Functional    Exchange        .... B973C
 Correlation Functional Correlation     .... B973C
 Gradients option       PostSCFGGA      .... off
   Density functional embedding theory  .... OFF
 RI-approximation to the Coulomb term is turned on
   Number of AuxJ basis functions       .... 216


General Settings:
 Integral files         IntName         .... XSASRUDTFFBDDK-UHFFFAOYSA-N
 Hartree-Fock type      HFTyp           .... RHF
 Total Charge           Charge          ....    0
 Multiplicity           Mult            ....    1
 Number of Electrons    NEL             ....   48
 Basis Dimension        Dim             ....  147
 Nuclear Repulsion      ENuc            ....    247.1538199422 Eh

Convergence Acceleration:
 DIIS                   CNVDIIS         .... on
   Start iteration      DIISMaxIt       ....    12
   Startup error        DIISStart       ....  0.200000
   # of expansion vecs  DIISMaxEq       ....     5
   Bias factor          DIISBfac        ....   1.050
   Max. coefficient     DIISMaxC        ....  10.000
 Trust-Rad. Augm. Hess. CNVTRAH         .... off
 SOSCF                  CNVSOSCF        .... on
   Start iteration      SOSCFMaxIt      ....   150
   Startup grad/error   SOSCFStart      ....  0.003300
 Level Shifting         CNVShift        .... on
   Level shift para.    LevelShift      ....    0.2500
   Turn off err/grad.   ShiftErr        ....    0.0010
 Zerner damping         CNVZerner       .... off
 Static damping         CNVDamp         .... on
   Fraction old density DampFac         ....    0.7000
   Max. Damping (<1)    DampMax         ....    0.9800
   Min. Damping (>=0)   DampMin         ....    0.0000
   Turn off err/grad.   DampErr         ....    0.1000
 Fernandez-Rico         CNVRico         .... off

SCF Procedure:
 Maximum # iterations   MaxIter         ....   125
 SCF integral mode      SCFMode         .... Direct
   Integral package                     .... SHARK and LIBINT hybrid scheme
 Reset frequency        DirectResetFreq ....    20
 Integral Threshold     Thresh          ....  2.500e-11 Eh
 Primitive CutOff       TCut            ....  2.500e-12 Eh

Convergence Tolerance:
 Convergence Check Mode ConvCheckMode   .... Total+1el-Energy
 Convergence forced     ConvForced      .... 0
 Energy Change          TolE            ....  1.000e-08 Eh
 1-El. energy change                    ....  1.000e-05 Eh
 Orbital Gradient       TolG            ....  1.000e-05
 Orbital Rotation angle TolX            ....  1.000e-05
 DIIS Error             TolErr          ....  5.000e-07


Diagonalization of the overlap matrix:
Smallest eigenvalue                        ... 2.169e-04
Time for diagonalization                   ...    0.004 sec
Threshold for overlap eigenvalues          ... 1.000e-08
Number of eigenvalues below threshold      ... 0
Time for construction of square roots      ...    0.003 sec
Total time needed                          ...    0.007 sec

--------------------------------
INITIAL GUESS: MINIMAL BASIS EHT
--------------------------------
The minimal basis has 36 functions
EHT matrix was diagonalized
Basis set overlap was calculated now projecting the orbitals
Using GuessMode=FMatrix for the initial guess
C*T matrix was formed
Effective Fockian was calculated
Effective Fockian was diagonalized
Initial density was built
                      ------------------
                      INITIAL GUESS DONE
                      ------------------
-------------------
DFT GRID GENERATION
-------------------

General Integration Accuracy     IntAcc      ... 4.388
Radial Grid Type                 RadialGrid  ... OptM3 with GC (2021)
Angular Grid (max. ang.)         AngularGrid ... 4 (Lebedev-302)
Angular grid pruning method      GridPruning ... 4 (adaptive)
Weight generation scheme         WeightScheme... Becke
Basis function cutoff            BFCut       ... 1.0000e-11
Integration weight cutoff        WCut        ... 1.0000e-14
Angular grids for H and He will be reduced by one unit
Partially contracted basis set               ... off
Rotationally invariant grid construction     ... off

Total number of grid points                  ...    56647
Total number of batches                      ...      892
Average number of points per batch           ...       63
Average number of grid points per atom       ...     4721
Time for grid setup =    0.344 sec


Warning: Fractional occupation numbers cannot be used with CNVRico or SOSCF

--------------
SCF ITERATIONS
--------------
ITER       Energy         Delta-E        Max-DP      RMS-DP      [F,P]     Damp
               ***  Starting incremental Fock matrix formation  ***
  0   -342.1493287907   0.000000000000 1.98888826  0.02015748  0.4382066 0.7000
  1   -342.5636436013  -0.414314810589 0.41337435  0.00498136  0.3111404 0.7000
  2   -342.7691445724  -0.205500971061 0.38005245  0.00412503  0.2180285 0.7000
                               ***Turning on DIIS***
  3   -342.9261745548  -0.157029982414 0.27348076  0.00303940  0.1517306 0.7000
  4   -343.0373085780  -0.111134023198 0.18162697  0.00209858  0.1056338 0.7000
  5   -343.1150396526  -0.077731074547 0.48657064  0.00548011  0.0741266 0.0000
  6   -343.2934882347  -0.178448582186 0.04796640  0.00101964  0.0336332 0.0000
  7   -343.2908771925   0.002611042282 0.02552065  0.00057300  0.0496216 0.0000
  8   -343.2957101078  -0.004832915316 0.00469475  0.00010407  0.0062191 0.0000
  9   -343.2957653051  -0.000055197309 0.00239856  0.00006141  0.0025019 0.0000
 10   -343.2957775069  -0.000012201832 0.00300279  0.00004891  0.0008961 0.0000
 11   -343.2957785619  -0.000001054983 0.00032230  0.00001107  0.0008458 0.0000
 12   -343.2957798628  -0.000001300951 0.00005040  0.00000265  0.0001400 0.0000
 13   -343.2957799092  -0.000000046376 0.00001709  0.00000089  0.0000243 0.0000
 14   -343.2957799114  -0.000000002155 0.00002964  0.00000062  0.0000173 0.0000
 15   -343.2957799116  -0.000000000196 0.00000869  0.00000022  0.0000090 0.0000
 16   -343.2957799100   0.000000001563 0.00000628  0.00000013  0.0000045 0.0000
                 **** Energy Check signals convergence ****
Fermi smearing:E(HOMO(Eh)) = -0.209688 MUE = -0.129442 gap=   4.253 eV

N_FOD =  0.040131

               *****************************************************
               *                     SUCCESS                       *
               *           SCF CONVERGED AFTER  17 CYCLES          *
               *****************************************************


----------------
TOTAL SCF ENERGY
----------------

Total Energy       :         -343.29577991 Eh           -9341.55309 eV

Components:
Nuclear Repulsion  :          247.15381994 Eh            6725.39735 eV
Electronic Energy  :         -590.44959985 Eh          -16066.95044 eV
One Electron Energy:         -959.15929037 Eh          -26100.05119 eV
Two Electron Energy:          368.70969052 Eh           10033.10075 eV

Virial components:
Potential Energy   :         -685.44474375 Eh          -18651.89972 eV
Kinetic Energy     :          342.14896384 Eh            9310.34664 eV
Virial Ratio       :            2.00335180


DFT components:
N(Alpha)           :       24.000019318995 electrons
N(Beta)            :       24.000019318995 electrons
N(Total)           :       48.000038637991 electrons
E(XC)              :      -43.951708974632 Eh       
DFET-embed. en.    :        0.000000000000 Eh       

---------------
SCF CONVERGENCE
---------------

  Last Energy change         ...    2.0896e-09  Tolerance :   1.0000e-08
  Last MAX-Density change    ...    6.4295e-06  Tolerance :   1.0000e-07
  Last RMS-Density change    ...    1.2643e-07  Tolerance :   5.0000e-09
  Last DIIS Error            ...    1.0624e-06  Tolerance :   5.0000e-07

             **** THE GBW FILE WAS UPDATED (XSASRUDTFFBDDK-UHFFFAOYSA-N.gbw) ****
             **** DENSITY XSASRUDTFFBDDK-UHFFFAOYSA-N.scfp WAS UPDATED ****
             **** ENERGY FILE WAS UPDATED (XSASRUDTFFBDDK-UHFFFAOYSA-N.en.tmp) ****
             **** THE GBW FILE WAS UPDATED (XSASRUDTFFBDDK-UHFFFAOYSA-N.gbw) ****
             **** DENSITY XSASRUDTFFBDDK-UHFFFAOYSA-N.scfp WAS UPDATED ****
----------------
ORBITAL ENERGIES
----------------

  NO   OCC          E(Eh)            E(eV) 
   0   2.0000     -18.816222      -512.0154 
   1   2.0000     -18.813685      -511.9464 
   2   2.0000     -18.736098      -509.8351 
   3   2.0000      -9.975143      -271.4374 
   4   2.0000      -9.963856      -271.1303 
   5   2.0000      -9.909504      -269.6513 
   6   2.0000      -1.064290       -28.9608 
   7   2.0000      -0.968180       -26.3455 
   8   2.0000      -0.862644       -23.4737 
   9   2.0000      -0.717427       -19.5222 
  10   2.0000      -0.601452       -16.3663 
  11   2.0000      -0.528434       -14.3794 
  12   2.0000      -0.509769       -13.8715 
  13   2.0000      -0.457604       -12.4520 
  14   2.0000      -0.429522       -11.6879 
  15   2.0000      -0.413126       -11.2417 
  16   2.0000      -0.409281       -11.1371 
  17   2.0000      -0.370160       -10.0726 
  18   2.0000      -0.351827        -9.5737 
  19   2.0000      -0.344386        -9.3712 
  20   2.0000      -0.331452        -9.0193 
  21   1.9999      -0.287793        -7.8312 
  22   1.9925      -0.217933        -5.9303 
  23   1.9875      -0.209688        -5.7059 
  24   0.0163      -0.053409        -1.4533 
  25   0.0036      -0.029179        -0.7940 
  26   0.0002       0.020787         0.5656 
  27   0.0000       0.041202         1.1212 
  28   0.0000       0.057183         1.5560 
  29   0.0000       0.069218         1.8835 
  30   0.0000       0.087219         2.3733 
  31   0.0000       0.092612         2.5201 
  32   0.0000       0.115429         3.1410 
  33   0.0000       0.130421         3.5489 
  34   0.0000       0.143265         3.8984 
  35   0.0000       0.172558         4.6956 
  36   0.0000       0.195170         5.3108 
  37   0.0000       0.204758         5.5717 
  38   0.0000       0.235101         6.3974 
  39   0.0000       0.244711         6.6589 
  40   0.0000       0.260648         7.0926 
  41   0.0000       0.279416         7.6033 
  42   0.0000       0.290420         7.9027 
  43   0.0000       0.297510         8.0957 
  44   0.0000       0.305529         8.3139 
  45   0.0000       0.318154         8.6574 
  46   0.0000       0.354249         9.6396 
  47   0.0000       0.356329         9.6962 
  48   0.0000       0.368031        10.0146 
  49   0.0000       0.372773        10.1437 
  50   0.0000       0.387365        10.5407 
  51   0.0000       0.396957        10.8018 
  52   0.0000       0.397456        10.8153 
  53   0.0000       0.404246        11.0001 
  54   0.0000       0.415204        11.2983 
  55   0.0000       0.417846        11.3702 
  56   0.0000       0.442438        12.0393 
  57   0.0000       0.448566        12.2061 
  58   0.0000       0.464857        12.6494 
  59   0.0000       0.475131        12.9290 
  60   0.0000       0.482491        13.1293 
  61   0.0000       0.509430        13.8623 
  62   0.0000       0.518578        14.1112 
  63   0.0000       0.520259        14.1570 
  64   0.0000       0.546230        14.8637 
  65   0.0000       0.562169        15.2974 
  66   0.0000       0.626459        17.0468 
  67   0.0000       0.639101        17.3908 
  68   0.0000       0.667369        18.1600 
  69   0.0000       0.679593        18.4927 
  70   0.0000       0.718470        19.5506 
  71   0.0000       0.764958        20.8156 
  72   0.0000       0.768885        20.9224 
  73   0.0000       0.787119        21.4186 
  74   0.0000       0.824639        22.4396 
  75   0.0000       0.842666        22.9301 
  76   0.0000       0.851446        23.1690 
  77   0.0000       0.891397        24.2561 
  78   0.0000       0.900377        24.5005 
  79   0.0000       0.959864        26.1192 
  80   0.0000       1.087940        29.6044 
  81   0.0000       1.305722        35.5305 
  82   0.0000       1.313680        35.7470 
  83   0.0000       1.370403        37.2906 
  84   0.0000       1.387685        37.7608 
  85   0.0000       1.416677        38.5497 
  86   0.0000       1.458520        39.6883 
  87   0.0000       1.481685        40.3187 
  88   0.0000       1.490482        40.5581 
  89   0.0000       1.536972        41.8231 
  90   0.0000       1.573031        42.8044 
  91   0.0000       1.601616        43.5822 
  92   0.0000       1.606201        43.7069 
  93   0.0000       1.669338        45.4250 
  94   0.0000       1.677705        45.6527 
  95   0.0000       1.698129        46.2084 
  96   0.0000       1.724875        46.9362 
  97   0.0000       1.740054        47.3493 
  98   0.0000       1.761776        47.9404 
  99   0.0000       1.798209        48.9318 
 100   0.0000       1.861492        50.6538 
 101   0.0000       1.882797        51.2335 
 102   0.0000       1.918737        52.2115 
 103   0.0000       1.939091        52.7654 
 104   0.0000       1.955530        53.2127 
 105   0.0000       1.981496        53.9192 
 106   0.0000       2.023607        55.0651 
 107   0.0000       2.072560        56.3972 
 108   0.0000       2.119706        57.6801 
 109   0.0000       2.153529        58.6005 
 110   0.0000       2.161214        58.8096 
 111   0.0000       2.234848        60.8133 
 112   0.0000       2.298015        62.5322 
 113   0.0000       2.317466        63.0615 
 114   0.0000       2.326340        63.3029 
 115   0.0000       2.365590        64.3710 
 116   0.0000       2.432164        66.1825 
 117   0.0000       2.470092        67.2146 
 118   0.0000       2.470947        67.2379 
 119   0.0000       2.480954        67.5102 
 120   0.0000       2.558341        69.6160 
 121   0.0000       2.592139        70.5357 
 122   0.0000       2.636354        71.7388 
 123   0.0000       2.685032        73.0634 
 124   0.0000       2.731839        74.3371 
 125   0.0000       2.755021        74.9679 
 126   0.0000       2.784505        75.7702 
 127   0.0000       2.813765        76.5664 
 128   0.0000       2.833510        77.1037 
 129   0.0000       2.892745        78.7156 
 130   0.0000       2.932996        79.8109 
 131   0.0000       2.950273        80.2810 
 132   0.0000       3.041225        82.7559 
 133   0.0000       3.089102        84.0587 
 134   0.0000       3.122576        84.9696 
 135   0.0000       3.150588        85.7318 
 136   0.0000       3.229993        87.8926 
 137   0.0000       3.499455        95.2250 
 138   0.0000       3.716222       101.1235 
 139   0.0000       3.921369       106.7059 
 140   0.0000       4.289781       116.7309 
 141   0.0000      21.673046       589.7536 
 142   0.0000      21.854178       594.6824 
 143   0.0000      22.006546       598.8285 
 144   0.0000      43.176410      1174.8899 
 145   0.0000      43.305604      1178.4054 
 146   0.0000      43.698261      1189.0901 

                    ********************************
                    * MULLIKEN POPULATION ANALYSIS *
                    ********************************

------------------------------------------
FOD BASED MULLIKEN REDUCED ORBITAL CHARGES
------------------------------------------
  0 O s       :    -0.000113  s :    -0.000113
      pz      :     0.000641  p :     0.004317
      px      :     0.002558
      py      :     0.001117
      dz2     :     0.000025  d :     0.000236
      dxz     :     0.000037
      dyz     :    -0.000005
      dx2y2   :     0.000028
      dxy     :     0.000151
  1 O s       :    -0.000012  s :    -0.000012
      pz      :     0.001905  p :     0.005256
      px      :     0.002677
      py      :     0.000673
      dz2     :     0.000010  d :     0.000038
      dxz     :    -0.000004
      dyz     :     0.000013
      dx2y2   :    -0.000006
      dxy     :     0.000025
  2 C s       :     0.000129  s :     0.000129
      pz      :     0.000131  p :     0.001027
      px      :     0.000519
      py      :     0.000376
      dz2     :     0.000027  d :     0.000082
      dxz     :     0.000003
      dyz     :     0.000011
      dx2y2   :     0.000018
      dxy     :     0.000023
  3 C s       :    -0.000422  s :    -0.000422
      pz      :     0.000152  p :     0.001822
      px      :     0.000959
      py      :     0.000712
      dz2     :     0.000003  d :     0.000135
      dxz     :     0.000005
      dyz     :     0.000001
      dx2y2   :     0.000120
      dxy     :     0.000007
  4 C s       :     0.000082  s :     0.000082
      pz      :     0.000480  p :     0.009823
      px      :     0.005419
      py      :     0.003924
      dz2     :     0.000151  d :     0.000361
      dxz     :     0.000048
      dyz     :     0.000033
      dx2y2   :     0.000077
      dxy     :     0.000052
  5 O s       :    -0.000014  s :    -0.000014
      pz      :     0.005614  p :     0.013137
      px      :     0.003077
      py      :     0.004445
      dz2     :     0.000006  d :    -0.000026
      dxz     :     0.000027
      dyz     :    -0.000034
      dx2y2   :    -0.000021
      dxy     :    -0.000003
  6 H s       :     0.000723  s :     0.000723
  7 H s       :     0.000661  s :     0.000661
  8 H s       :     0.000235  s :     0.000235
  9 H s       :     0.000839  s :     0.000839
 10 H s       :     0.000162  s :     0.000162
 11 H s       :     0.001653  s :     0.001653


                     *******************************
                     * LOEWDIN POPULATION ANALYSIS *
                     *******************************

----------------------
LOEWDIN ATOMIC CHARGES
----------------------
   0 O :   -0.342640
   1 O :   -0.483588
   2 C :    0.053831
   3 C :   -0.254401
   4 C :    0.212757
   5 O :   -0.456496
   6 H :    0.384212
   7 H :    0.199247
   8 H :    0.177372
   9 H :    0.180643
  10 H :    0.180855
  11 H :    0.148208

-------------------------------
LOEWDIN REDUCED ORBITAL CHARGES
-------------------------------
  0 O s       :     3.520548  s :     3.520548
      pz      :     1.501426  p :     4.445471
      px      :     1.674692
      py      :     1.269353
      dz2     :     0.051734  d :     0.376621
      dxz     :     0.041051
      dyz     :     0.106704
      dx2y2   :     0.083216
      dxy     :     0.093916
  1 O s       :     3.471079  s :     3.471079
      pz      :     1.648058  p :     4.404311
      px      :     1.601189
      py      :     1.155063
      dz2     :     0.091295  d :     0.608198
      dxz     :     0.053317
      dyz     :     0.154822
      dx2y2   :     0.157038
      dxy     :     0.151727
  2 C s       :     2.865344  s :     2.865344
      pz      :     1.047416  p :     2.954363
      px      :     1.011653
      py      :     0.895295
      dz2     :     0.033025  d :     0.126462
      dxz     :     0.011408
      dyz     :     0.022654
      dx2y2   :     0.025300
      dxy     :     0.034075
  3 C s       :     2.944103  s :     2.944103
      pz      :     1.125092  p :     3.238677
      px      :     1.038925
      py      :     1.074660
      dz2     :     0.019289  d :     0.071620
      dxz     :     0.010657
      dyz     :     0.010245
      dx2y2   :     0.015898
      dxy     :     0.015531
  4 C s       :     2.871045  s :     2.871045
      pz      :     1.015080  p :     2.732761
      px      :     0.840877
      py      :     0.876804
      dz2     :     0.059689  d :     0.183437
      dxz     :     0.033002
      dyz     :     0.026601
      dx2y2   :     0.024810
      dxy     :     0.039334
  5 O s       :     3.555827  s :     3.555827
      pz      :     1.707640  p :     4.643546
      px      :     1.435221
      py      :     1.500685
      dz2     :     0.063853  d :     0.257123
      dxz     :     0.052743
      dyz     :     0.039866
      dx2y2   :     0.033613
      dxy     :     0.067048
  6 H s       :     0.615788  s :     0.615788
  7 H s       :     0.800753  s :     0.800753
  8 H s       :     0.822628  s :     0.822628
  9 H s       :     0.819357  s :     0.819357
 10 H s       :     0.819145  s :     0.819145
 11 H s       :     0.851792  s :     0.851792


                      *****************************
                      * MAYER POPULATION ANALYSIS *
                      *****************************

  NA   - Mulliken gross atomic population
  ZA   - Total nuclear charge
  QA   - Mulliken gross atomic charge
  VA   - Mayer's total valence
  BVA  - Mayer's bonded valence
  FA   - Mayer's free valence

  ATOM       NA         ZA         QA         VA         BVA        FA
  0 O      8.4533     8.0000    -0.4533     1.8634     1.8546     0.0088
  1 O      8.0814     8.0000    -0.0814     1.8746     1.8641     0.0105
  2 C      6.2648     6.0000    -0.2648     3.8411     3.8386     0.0025
  3 C      6.2235     6.0000    -0.2235     3.4757     3.4726     0.0031
  4 C      5.9023     6.0000     0.0977     4.0002     3.9798     0.0204
  5 O      8.3110     8.0000    -0.3110     2.1380     2.1120     0.0260
  6 H      0.5590     1.0000     0.4410     0.7850     0.7836     0.0014
  7 H      0.8076     1.0000     0.1924     0.9464     0.9450     0.0013
  8 H      0.8256     1.0000     0.1744     0.9376     0.9372     0.0005
  9 H      0.8253     1.0000     0.1747     0.9524     0.9507     0.0017
 10 H      0.8360     1.0000     0.1640     0.9839     0.9836     0.0003
 11 H      0.9103     1.0000     0.0897     0.9405     0.9373     0.0033

  Mayer bond orders larger than 0.100000
B(  0-O ,  1-O ) :   0.9505 B(  0-O ,  6-H ) :   0.7615 B(  1-O ,  2-C ) :   0.9272 
B(  2-C ,  3-C ) :   0.9510 B(  2-C ,  7-H ) :   0.9383 B(  2-C ,  8-H ) :   0.9382 
B(  3-C ,  4-C ) :   0.8988 B(  3-C ,  9-H ) :   0.9090 B(  3-C , 10-H ) :   0.9297 
B(  4-C ,  5-O ) :   2.0936 B(  4-C , 11-H ) :   0.8994 

-------
TIMINGS
-------

Total SCF time: 0 days 0 hours 0 min 4 sec 

Total time                  ....       4.642 sec
Sum of individual times     ....       4.405 sec  ( 94.9%)

Fock matrix formation       ....       3.849 sec  ( 82.9%)
  Split-RI-J                ....       0.919 sec  ( 23.9% of F)
  XC integration            ....       2.838 sec  ( 73.7% of F)
    Basis function eval.    ....       0.967 sec  ( 34.1% of XC)
    Density eval.           ....       0.621 sec  ( 21.9% of XC)
    XC-Functional eval.     ....       0.329 sec  ( 11.6% of XC)
    XC-Potential eval.      ....       0.675 sec  ( 23.8% of XC)
Diagonalization             ....       0.083 sec  (  1.8%)
Density matrix formation    ....       0.039 sec  (  0.8%)
Population analysis         ....       0.007 sec  (  0.2%)
Initial guess               ....       0.008 sec  (  0.2%)
Orbital Transformation      ....       0.000 sec  (  0.0%)
Orbital Orthonormalization  ....       0.000 sec  (  0.0%)
DIIS solution               ....       0.074 sec  (  1.6%)
Grid generation             ....       0.344 sec  (  7.4%)

Maximum memory used throughout the entire SCF-calculation: 16.3 MB


-------------------------------------------------------------------------------
                          DFT DISPERSION CORRECTION                            
                                                                               
                              DFTD3 V3.1  Rev 1                                
                          USING Becke-Johnson damping                          
-------------------------------------------------------------------------------
The B97-3c composite method is recognized
Using three-body term ABC
Active option DFTDOPT                   ...         4   

molecular C6(AA) [au] = 1154.022759 


            DFT-D V3
 parameters
 s6 scaling factor         :     1.0000 
 a1 scaling factor         :     0.3700 
 s8 scaling factor         :     1.5000 
 a2 scaling factor         :     4.1000 
 Damping factor alpha9(ATM):    16.0000 
 ad hoc parameters k1-k3   :    16.0000     1.3333    -4.0000 

 Edisp/kcal,au: -12.085251525106  -0.019259072150 
 E6   /kcal   :  -6.312547961 
 E8   /kcal   :  -5.787877836 
 E6(ABC)      :   0.015174271 
 % E8         :  47.892075921 
 % E6(ABC)    :  -0.125560243 

-------------------------   ----------------
Dispersion correction           -0.019259072
-------------------------   ----------------

------------------   -----------------
SRB correction            -0.029339992
------------------   -----------------

-------------------------   --------------------
FINAL SINGLE POINT ENERGY      -343.344378972370
-------------------------   --------------------



           ************************************************************
           *        Program running with 4 parallel MPI-processes     *
           *              working on a common directory               *
           ************************************************************
------------------------------------------------------------------------------
                         ORCA SCF GRADIENT CALCULATION
------------------------------------------------------------------------------

Gradient of the Kohn-Sham DFT energy:
Kohn-Sham wavefunction type      ... RKS
Hartree-Fock exchange scaling    ...    0.000
Number of operators              ...    1
Number of atoms                  ...   12
Basis set dimensions             ...  147
Integral neglect threshold       ... 2.5e-11
Integral primitive cutoff        ... 2.5e-12
SHARK Integral package           ... ON

Nuc. rep. gradient       (SHARK) ... done (  0.0 sec)
HCore & Overlap gradient (SHARK) ... done (  0.0 sec)
RI-J gradient            (SHARK) ... done (  0.9 sec)
Exchange-correlation gradient    ... done
Dispersion correction            ... done
SRB correction                   ... done

------------------
CARTESIAN GRADIENT
------------------

   1   O   :   -0.007947960   -0.012433684    0.020687068
   2   O   :    0.021614414    0.006420650   -0.021258579
   3   C   :   -0.013801210    0.001530661    0.004522015
   4   C   :    0.006451269   -0.005318946   -0.002023589
   5   C   :    0.010338657    0.012391463    0.006897001
   6   O   :   -0.014505999   -0.009529820   -0.009829290
   7   H   :   -0.000130484    0.004695680   -0.005479645
   8   H   :   -0.000564526   -0.001544626    0.002045772
   9   H   :    0.001473375    0.001929453   -0.001352590
  10   H   :   -0.000238963    0.001415519    0.000469860
  11   H   :   -0.000949915    0.001204415    0.002213094
  12   H   :   -0.001738658   -0.000760765    0.003108884

Difference to translation invariance:
           :   -0.0000000000    0.0000000000    0.0000000000

Difference to rotation invariance:
           :    0.0000645559   -0.0000341584    0.0002340395

Norm of the cartesian gradient     ...    0.0518526021
RMS gradient                       ...    0.0086421004
MAX gradient                       ...    0.0216144144

-------
TIMINGS
-------

Total SCF gradient time            ...        1.925 sec

One electron gradient       ....       0.032 sec  (  1.7%)
RI-J Coulomb gradient       ....       0.931 sec  ( 48.4%)
XC gradient                 ....       0.857 sec  ( 44.5%)

Maximum memory used throughout the entire SCFGRAD-calculation: 27.3 MB
------------------------------------------------------------------------------
                         ORCA GEOMETRY RELAXATION STEP
------------------------------------------------------------------------------

Reading the OPT-File                    .... done
Getting information on internals        .... done
Copying old internal coords+grads       .... done
Making the new internal coordinates     .... (new redundants).... done
Validating the new internal coordinates .... (new redundants).... done
Calculating the B-matrix                .... done
Calculating the G,G- and P matrices     .... done
Transforming gradient to internals      .... done
Projecting the internal gradient        .... done
Number of atoms                         ....  12
Number of internal coordinates          ....  47
Current Energy                          ....  -343.344378972 Eh
Current gradient norm                   ....     0.051852602 Eh/bohr
Maximum allowed component of the step   ....  0.300
Current trust radius                    ....  0.300
Evaluating the initial hessian          ....  (Almloef) done
Projecting the Hessian                  .... done
Forming the augmented Hessian           .... done
Diagonalizing the augmented Hessian     .... done
Last element of RFO vector              ....  0.941115902
Lowest eigenvalues of augmented Hessian:
 -0.006548137  0.010921197  0.012264906  0.012570116  0.016025669
Length of the computed step             ....  0.359237476
Warning: the length of the step is outside the trust region - taking restricted step instead
The input lambda is                     ....    -0.006548
   iter:   1  x=   -0.010203  g=   10.684680 f(x)=     0.039052
   iter:   2  x=   -0.011404  g=    6.703021 f(x)=     0.008050
   iter:   3  x=   -0.011495  g=    5.844801 f(x)=     0.000532
   iter:   4  x=   -0.011495  g=    5.786107 f(x)=     0.000003
   iter:   5  x=   -0.011495  g=    5.785810 f(x)=     0.000000
   iter:   6  x=   -0.011495  g=    5.785810 f(x)=     0.000000
The output lambda is                    ....    -0.011495 (6 iterations)
The final length of the internal step   ....  0.300000000
Converting the step to cartesian space:
 Initial RMS(Int)=    0.0437594974
Transforming coordinates:
 Iter   0:  RMS(Cart)=    0.0831504142 RMS(Int)=    0.9128351131
 Iter   1:  RMS(Cart)=    0.0071912935 RMS(Int)=    0.0056640389
 Iter   2:  RMS(Cart)=    0.0014225822 RMS(Int)=    0.0010691999
 Iter   3:  RMS(Cart)=    0.0003660603 RMS(Int)=    0.0002486983
 Iter   4:  RMS(Cart)=    0.0000743144 RMS(Int)=    0.0000640409
 Iter   5:  RMS(Cart)=    0.0000191129 RMS(Int)=    0.0000109003
 Iter   6:  RMS(Cart)=    0.0000037137 RMS(Int)=    0.0000034696
 Iter   7:  RMS(Cart)=    0.0000009613 RMS(Int)=    0.0000005003
 Iter   8:  RMS(Cart)=    0.0000001904 RMS(Int)=    0.0000001767
 Iter   9:  RMS(Cart)=    0.0000000471 RMS(Int)=    0.0000000262
done
Storing new coordinates                 .... done

                                .--------------------.
          ----------------------|Geometry convergence|-------------------------
          Item                value                   Tolerance       Converged
          ---------------------------------------------------------------------
          RMS gradient        0.0059529013            0.0001000000      NO
          MAX gradient        0.0197998801            0.0003000000      NO
          RMS step            0.0437594974            0.0020000000      NO
          MAX step            0.2020187854            0.0040000000      NO
          ........................................................
          Max(Bonds)      0.0185      Max(Angles)    2.61
          Max(Dihed)       11.57      Max(Improp)    0.00
          ---------------------------------------------------------------------

The optimization has not yet converged - more geometry cycles are needed


    ---------------------------------------------------------------------------
                         Redundant Internal Coordinates
                            (Angstroem and degrees)

        Definition                    Value    dE/dq     Step     New-Value
    ----------------------------------------------------------------------------
     1. B(O   1,O   0)                1.4223 -0.015996  0.0185    1.4408   
     2. B(C   2,O   1)                1.4027 -0.008481  0.0082    1.4109   
     3. B(C   3,C   2)                1.5335 -0.000327  0.0005    1.5340   
     4. B(C   4,C   3)                1.5068 -0.001886  0.0024    1.5092   
     5. B(O   5,C   4)                1.1986 -0.019800  0.0092    1.2078   
     6. B(H   6,O   0)                0.9676 -0.001538  0.0016    0.9692   
     7. B(H   7,C   2)                1.0920  0.002222 -0.0032    1.0888   
     8. B(H   8,C   2)                1.0973  0.001227 -0.0018    1.0955   
     9. B(H   9,C   3)                1.0911 -0.001484  0.0021    1.0932   
    10. B(H  10,C   3)                1.0914  0.002059 -0.0029    1.0884   
    11. B(H  11,C   4)                1.1062 -0.002977  0.0045    1.1107   
    12. A(O   1,O   0,H   6)          103.68  0.011697   -1.87    101.81   
    13. A(O   0,O   1,C   2)          109.13  0.014521   -2.07    107.06   
    14. A(O   1,C   2,H   7)          103.34  0.004417   -0.96    102.38   
    15. A(H   7,C   2,H   8)          109.69  0.000510   -0.89    108.80   
    16. A(O   1,C   2,C   3)          112.02 -0.010919    1.98    114.00   
    17. A(C   3,C   2,H   7)          111.20  0.003486   -0.98    110.23   
    18. A(O   1,C   2,H   8)          110.09  0.003002    0.26    110.36   
    19. A(C   3,C   2,H   8)          110.29 -0.000093    0.46    110.75   
    20. A(C   4,C   3,H  10)          109.55  0.004069   -0.16    109.39   
    21. A(C   4,C   3,H   9)          108.34  0.004631   -0.92    107.42   
    22. A(C   2,C   3,C   4)          110.32 -0.014328    2.61    112.94   
    23. A(C   2,C   3,H  10)          110.40  0.002405    0.06    110.47   
    24. A(C   2,C   3,H   9)          108.66  0.004635   -0.98    107.68   
    25. A(H   9,C   3,H  10)          109.52 -0.001329   -0.66    108.86   
    26. A(O   5,C   4,H  11)          121.56  0.001463   -0.27    121.29   
    27. A(C   3,C   4,H  11)          113.56 -0.001971    0.27    113.83   
    28. A(C   3,C   4,O   5)          124.87  0.000557   -0.12    124.75   
    29. D(C   2,O   1,O   0,H   6)   -136.29 -0.005289   11.57   -124.72   
    30. D(H   8,C   2,O   1,O   0)    -57.19  0.000733    3.11    -54.09   
    31. D(C   3,C   2,O   1,O   0)     65.91 -0.004868    5.28     71.19   
    32. D(H   7,C   2,O   1,O   0)   -174.30 -0.003570    4.53   -169.76   
    33. D(H  10,C   3,C   2,H   7)    -56.93 -0.000772   -0.32    -57.24   
    34. D(C   4,C   3,C   2,H   8)     59.91 -0.000951   -0.40     59.51   
    35. D(C   4,C   3,C   2,H   7)   -178.16  0.001993   -1.88   -180.04   
    36. D(H   9,C   3,C   2,H   8)    -58.73 -0.000986   -0.22    -58.94   
    37. D(C   4,C   3,C   2,O   1)    -63.08  0.002930   -2.47    -65.55   
    38. D(H  10,C   3,C   2,O   1)     58.15  0.000165   -0.91     57.25   
    39. D(H   9,C   3,C   2,H   7)     63.20  0.001957   -1.70     61.50   
    40. D(H  10,C   3,C   2,H   8)   -178.85 -0.003716    1.16   -177.69   
    41. D(H   9,C   3,C   2,O   1)    178.28  0.002894   -2.28    175.99   
    42. D(O   5,C   4,C   3,H   9)   -113.86 -0.002615    3.95   -109.90   
    43. D(O   5,C   4,C   3,C   2)    127.31 -0.002705    4.18    131.49   
    44. D(H  11,C   4,C   3,H  10)   -175.82  0.003194   -3.01   -178.83   
    45. D(H  11,C   4,C   3,H   9)     64.76 -0.000316   -1.58     63.18   
    46. D(H  11,C   4,C   3,C   2)    -54.08 -0.000407   -1.35    -55.43   
    47. D(O   5,C   4,C   3,H  10)      5.57  0.000896    2.52      8.08   
    ----------------------------------------------------------------------------

         *************************************************************
         *                GEOMETRY OPTIMIZATION CYCLE   2            *
         *************************************************************
---------------------------------
CARTESIAN COORDINATES (ANGSTROEM)
---------------------------------
  O     -1.058853    1.315455   -0.260011
  O     -1.629762    0.167890    0.398130
  C     -1.056048   -0.976947   -0.194188
  C      0.419494   -1.192179    0.165698
  C      1.320470   -0.108507   -0.374314
  O      2.156295    0.475964    0.272666
  H     -0.700697    1.815742    0.488815
  H     -1.664699   -1.781641    0.214997
  H     -1.190088   -0.950638   -1.281156
  H      0.736959   -2.136453   -0.284437
  H      0.541758   -1.258519    1.245191
  H      1.238034    0.035699   -1.472495

----------------------------
CARTESIAN COORDINATES (A.U.)
----------------------------
  NO LB      ZA    FRAG     MASS         X           Y           Z
   0 O     8.0000    0    15.999   -2.000942    2.485850   -0.491350
   1 O     8.0000    0    15.999   -3.079804    0.317265    0.752356
   2 C     6.0000    0    12.011   -1.995641   -1.846161   -0.366963
   3 C     6.0000    0    12.011    0.792728   -2.252891    0.313123
   4 C     6.0000    0    12.011    2.495326   -0.205049   -0.707350
   5 O     8.0000    0    15.999    4.074806    0.899441    0.515263
   6 H     1.0000    0     1.008   -1.324125    3.431255    0.923726
   7 H     1.0000    0     1.008   -3.145825   -3.366813    0.406286
   8 H     1.0000    0     1.008   -2.248940   -1.796446   -2.421034
   9 H     1.0000    0     1.008    1.392650   -4.037312   -0.537508
  10 H     1.0000    0     1.008    1.023774   -2.378257    2.353070
  11 H     1.0000    0     1.008    2.339545    0.067462   -2.782613

--------------------------------
INTERNAL COORDINATES (ANGSTROEM)
--------------------------------
 O      0   0   0     0.000000000000     0.00000000     0.00000000
 O      1   0   0     1.440830619791     0.00000000     0.00000000
 C      2   1   0     1.410899908623   107.06055804     0.00000000
 C      3   2   1     1.533970537088   113.98511038    71.19970806
 C      4   3   2     1.509209659833   112.92658965   294.42998267
 O      5   4   3     1.207804258357   124.67540027   131.49252073
 H      1   2   3     0.969176214090   101.80803731   235.28472485
 H      3   2   1     1.088770875238   102.39305679   190.23460365
 H      3   2   1     1.095517136946   110.32232010   305.90598494
 H      4   3   2     1.093188122991   107.69408959   175.98559273
 H      4   3   2     1.088418733729   110.44402140    57.24243578
 H      5   4   3     1.110673010181   113.74740020   304.57963710

---------------------------
INTERNAL COORDINATES (A.U.)
---------------------------
 O      0   0   0     0.000000000000     0.00000000     0.00000000
 O      1   0   0     2.722775276772     0.00000000     0.00000000
 C      2   1   0     2.666214429672   107.06055804     0.00000000
 C      3   2   1     2.898784212600   113.98511038    71.19970806
 C      4   3   2     2.851992935752   112.92658965   294.42998267
 O      5   4   3     2.282419271679   124.67540027   131.49252073
 H      1   2   3     1.831477620141   101.80803731   235.28472485
 H      3   2   1     2.057478776789   102.39305679   190.23460365
 H      3   2   1     2.070227363846   110.32232010   305.90598494
 H      4   3   2     2.065826165308   107.69408959   175.98559273
 H      4   3   2     2.056813325777   110.44402140    57.24243578
 H      5   4   3     2.098867813581   113.74740020   304.57963710



           ************************************************************
           *        Program running with 4 parallel MPI-processes     *
           *              working on a common directory               *
           ************************************************************
------------------------------------------------------------------------------
                   ___                                                        
                  /   \      - P O W E R E D   B Y -                         
                 /     \                                                     
                 |  |  |   _    _      __       _____    __    __             
                 |  |  |  | |  | |    /  \     |  _  \  |  |  /  |          
                  \  \/   | |  | |   /    \    | | | |  |  | /  /          
                 / \  \   | |__| |  /  /\  \   | |_| |  |  |/  /          
                |  |  |   |  __  | /  /__\  \  |    /   |      \           
                |  |  |   | |  | | |   __   |  |    \   |  |\   \          
                \     /   | |  | | |  |  |  |  | |\  \  |  | \   \       
                 \___/    |_|  |_| |__|  |__|  |_| \__\ |__|  \__/        
                                                                              
                      - O R C A' S   B I G   F R I E N D -                    
                                      &                                       
                       - I N T E G R A L  F E E D E R -                       
                                                                              
 v1 FN, 2020, v2 2021                                                         
------------------------------------------------------------------------------


Reading SHARK input file XSASRUDTFFBDDK-UHFFFAOYSA-N.SHARKINP.tmp ... ok
----------------------
SHARK INTEGRAL PACKAGE
----------------------

Number of atoms                             ...     12
Number of basis functions                   ...    147
Number of shells                            ...     75
Maximum angular momentum                    ...      2
Integral batch strategy                     ... SHARK/LIBINT Hybrid
RI-J (if used) integral strategy            ... SPLIT-RIJ (Revised 2003 algorithm where possible)
Printlevel                                  ...      1
Contraction scheme used                     ... SEGMENTED contraction
Coulomb Range Separation                    ... NOT USED
Exchange Range Separation                   ... NOT USED
Finite Nucleus Model                        ... NOT USED
Auxiliary Coulomb fitting basis             ... AVAILABLE
   # of basis functions in Aux-J            ...    216
   # of shells in Aux-J                     ...     96
   Maximum angular momentum in Aux-J        ...      2
Auxiliary J/K fitting basis                 ... NOT available
Auxiliary Correlation fitting basis         ... NOT available
Auxiliary 'external' fitting basis          ... NOT available
Integral threshold                          ...     2.500000e-11
Primitive cut-off                           ...     2.500000e-12
Primitive pair pre-selection threshold      ...     2.500000e-12

Calculating pre-screening integrals         ... done (  0.0 sec) Dimension = 75
Organizing shell pair data                  ... done (  0.0 sec)
Shell pair information
Total number of shell pairs                 ...      2850
Shell pairs after pre-screening             ...      2711
Total number of primitive shell pairs       ...     10161
Primitive shell pairs kept                  ...      7220
          la=0 lb=0:   1076 shell pairs
          la=1 lb=0:    840 shell pairs
          la=1 lb=1:    169 shell pairs
          la=2 lb=0:    419 shell pairs
          la=2 lb=1:    162 shell pairs
          la=2 lb=2:     45 shell pairs

Calculating one electron integrals          ... done (  0.0 sec)
Calculating RI/J V-Matrix + Cholesky decomp.... done (  0.0 sec)
Calculating Nuclear repulsion               ... done (  0.0 sec) ENN=    243.390130261015 Eh

SHARK setup successfully completed in   0.1 seconds

Maximum memory used throughout the entire GTOINT-calculation: 7.7 MB


           ************************************************************
           *        Program running with 4 parallel MPI-processes     *
           *              working on a common directory               *
           ************************************************************

Diagonalization of the overlap matrix:
Smallest eigenvalue                        ... 2.300e-04
Time for diagonalization                   ...    0.003 sec
Threshold for overlap eigenvalues          ... 1.000e-08
Number of eigenvalues below threshold      ... 0
Time for construction of square roots      ...    0.002 sec
Total time needed                          ...    0.005 sec

-------------------
DFT GRID GENERATION
-------------------

General Integration Accuracy     IntAcc      ... 4.388
Radial Grid Type                 RadialGrid  ... OptM3 with GC (2021)
Angular Grid (max. ang.)         AngularGrid ... 4 (Lebedev-302)
Angular grid pruning method      GridPruning ... 4 (adaptive)
Weight generation scheme         WeightScheme... Becke
Basis function cutoff            BFCut       ... 1.0000e-11
Integration weight cutoff        WCut        ... 1.0000e-14
Angular grids for H and He will be reduced by one unit
Partially contracted basis set               ... off
Rotationally invariant grid construction     ... off

Total number of grid points                  ...    56696
Total number of batches                      ...      891
Average number of points per batch           ...       63
Average number of grid points per atom       ...     4725
Time for grid setup =    0.298 sec


Warning: Fractional occupation numbers cannot be used with CNVRico or SOSCF

--------------
SCF ITERATIONS
--------------
ITER       Energy         Delta-E        Max-DP      RMS-DP      [F,P]     Damp
               ***  Starting incremental Fock matrix formation  ***
  0   -343.2827217089   0.000000000000 0.00916674  0.00044445  0.0582924 0.7000
  1   -343.2879661025  -0.005244393584 0.00741890  0.00035508  0.0431217 0.7000
                               ***Turning on DIIS***
  2   -343.2914357062  -0.003469603729 0.02102008  0.00090248  0.0304767 0.0000
  3   -343.2996072685  -0.008171562233 0.00832070  0.00013495  0.0019372 0.0000
  4   -343.2996263481  -0.000019079600 0.00151183  0.00005263  0.0009540 0.0000
  5   -343.2996303879  -0.000004039854 0.00135640  0.00002590  0.0005228 0.0000
  6   -343.2996314719  -0.000001084021 0.00033551  0.00000906  0.0003172 0.0000
  7   -343.2996317332  -0.000000261265 0.00011791  0.00000310  0.0001595 0.0000
  8   -343.2996317859  -0.000000052689 0.00015592  0.00000230  0.0000860 0.0000
  9   -343.2996318021  -0.000000016232 0.00007879  0.00000107  0.0000329 0.0000
 10   -343.2996318044  -0.000000002266 0.00001269  0.00000020  0.0000051 0.0000
 11   -343.2996318040   0.000000000356 0.00000410  0.00000011  0.0000025 0.0000
                 **** Energy Check signals convergence ****
Fermi smearing:E(HOMO(Eh)) = -0.214977 MUE = -0.137128 gap=   4.153 eV

N_FOD =  0.042958

               *****************************************************
               *                     SUCCESS                       *
               *           SCF CONVERGED AFTER  12 CYCLES          *
               *****************************************************

Total Energy       :         -343.29963180 Eh           -9341.65790 eV
  Last Energy change         ...   -1.3534e-10  Tolerance :   1.0000e-08
  Last MAX-Density change    ...    4.9754e-06  Tolerance :   1.0000e-07
             **** THE GBW FILE WAS UPDATED (XSASRUDTFFBDDK-UHFFFAOYSA-N.gbw) ****
             **** DENSITY XSASRUDTFFBDDK-UHFFFAOYSA-N.scfp WAS UPDATED ****
             **** ENERGY FILE WAS UPDATED (XSASRUDTFFBDDK-UHFFFAOYSA-N.en.tmp) ****
             **** THE GBW FILE WAS UPDATED (XSASRUDTFFBDDK-UHFFFAOYSA-N.gbw) ****
             **** DENSITY XSASRUDTFFBDDK-UHFFFAOYSA-N.scfp WAS UPDATED ****
Total SCF time: 0 days 0 hours 0 min 2 sec 

Maximum memory used throughout the entire SCF-calculation: 16.3 MB


-------------------------------------------------------------------------------
                          DFT DISPERSION CORRECTION                            
                                                                               
                              DFTD3 V3.1  Rev 1                                
                          USING Becke-Johnson damping                          
-------------------------------------------------------------------------------
-------------------------   ----------------
Dispersion correction           -0.018898539
-------------------------   ----------------

------------------   -----------------
SRB correction            -0.028874421
------------------   -----------------

-------------------------   --------------------
FINAL SINGLE POINT ENERGY      -343.347404764012
-------------------------   --------------------



           ************************************************************
           *        Program running with 4 parallel MPI-processes     *
           *              working on a common directory               *
           ************************************************************
------------------------------------------------------------------------------
                         ORCA SCF GRADIENT CALCULATION
------------------------------------------------------------------------------

Gradient of the Kohn-Sham DFT energy:
Kohn-Sham wavefunction type      ... RKS
Hartree-Fock exchange scaling    ...    0.000
Number of operators              ...    1
Number of atoms                  ...   12
Basis set dimensions             ...  147
Integral neglect threshold       ... 2.5e-11
Integral primitive cutoff        ... 2.5e-12
SHARK Integral package           ... ON

Nuc. rep. gradient       (SHARK) ... done (  0.0 sec)
HCore & Overlap gradient (SHARK) ... done (  0.0 sec)
RI-J gradient            (SHARK) ... done (  0.1 sec)
Exchange-correlation gradient    ... done
Dispersion correction            ... done
SRB correction                   ... done

------------------
CARTESIAN GRADIENT
------------------

   1   O   :   -0.004494577   -0.008032290    0.008095857
   2   O   :    0.005848339    0.004765256   -0.007688264
   3   C   :   -0.007335849    0.002929364    0.001595781
   4   C   :    0.006942093   -0.008687992   -0.001885719
   5   C   :   -0.000148577    0.012570006    0.005202111
   6   O   :   -0.000947699   -0.004858302   -0.003170801
   7   H   :   -0.000546094    0.001508321   -0.001977091
   8   H   :    0.000264743    0.001657223    0.001065455
   9   H   :    0.000917920    0.000063624   -0.001235297
  10   H   :   -0.000312803    0.000338427    0.000424478
  11   H   :   -0.000886226    0.000888597    0.000107458
  12   H   :    0.000698730   -0.003142234   -0.000533967

Difference to translation invariance:
           :    0.0000000000    0.0000000000   -0.0000000000

Difference to rotation invariance:
           :    0.0000052584    0.0002539155    0.0001409070

Norm of the cartesian gradient     ...    0.0265241565
RMS gradient                       ...    0.0044206928
MAX gradient                       ...    0.0125700061

-------
TIMINGS
-------

Total SCF gradient time            ...        1.114 sec

One electron gradient       ....       0.033 sec  (  2.9%)
RI-J Coulomb gradient       ....       0.141 sec  ( 12.7%)
XC gradient                 ....       0.862 sec  ( 77.4%)

Maximum memory used throughout the entire SCFGRAD-calculation: 27.3 MB
------------------------------------------------------------------------------
                         ORCA GEOMETRY RELAXATION STEP
------------------------------------------------------------------------------

Reading the OPT-File                    .... done
Getting information on internals        .... done
Copying old internal coords+grads       .... done
Making the new internal coordinates     .... (new redundants).... done
Validating the new internal coordinates .... (new redundants).... done
Calculating the B-matrix                .... done
Calculating the G,G- and P matrices     .... done
Transforming gradient to internals      .... done
Projecting the internal gradient        .... done
Number of atoms                         ....  12
Number of internal coordinates          ....  47
Current Energy                          ....  -343.347404764 Eh
Current gradient norm                   ....     0.026524157 Eh/bohr
Maximum allowed component of the step   ....  0.300
Current trust radius                    ....  0.300
Updating the Hessian (BFGS)             .... done
Forming the augmented Hessian           .... done
Diagonalizing the augmented Hessian     .... done
Last element of RFO vector              ....  0.936918552
Lowest eigenvalues of augmented Hessian:
 -0.002852663  0.010882031  0.012261013  0.013458335  0.017749519
Length of the computed step             ....  0.373082321
Warning: the length of the step is outside the trust region - taking restricted step instead
The input lambda is                     ....    -0.002853
   iter:   1  x=   -0.005566  g=   18.128577 f(x)=     0.049190
   iter:   2  x=   -0.006556  g=   10.950118 f(x)=     0.010841
   iter:   3  x=   -0.006647  g=    9.296911 f(x)=     0.000849
   iter:   4  x=   -0.006648  g=    9.161954 f(x)=     0.000006
   iter:   5  x=   -0.006648  g=    9.160966 f(x)=     0.000000
   iter:   6  x=   -0.006648  g=    9.160966 f(x)=    -0.000000
The output lambda is                    ....    -0.006648 (6 iterations)
The final length of the internal step   ....  0.300000000
Converting the step to cartesian space:
 Initial RMS(Int)=    0.0437594974
Transforming coordinates:
 Iter   0:  RMS(Cart)=    0.0529651703 RMS(Int)=    0.0437937295
 Iter   1:  RMS(Cart)=    0.0033159770 RMS(Int)=    0.0030020179
 Iter   2:  RMS(Cart)=    0.0004138576 RMS(Int)=    0.0002641786
 Iter   3:  RMS(Cart)=    0.0000580741 RMS(Int)=    0.0000496795
 Iter   4:  RMS(Cart)=    0.0000082021 RMS(Int)=    0.0000062349
 Iter   5:  RMS(Cart)=    0.0000012191 RMS(Int)=    0.0000008994
 Iter   6:  RMS(Cart)=    0.0000001636 RMS(Int)=    0.0000001434
 Iter   7:  RMS(Cart)=    0.0000000253 RMS(Int)=    0.0000000159
done
Storing new coordinates                 .... done

                                .--------------------.
[...]
     15       0.007692  -0.004524  -0.001822   0.003408  -0.002334  -0.005888
     16       0.006216   0.000192  -0.006040  -0.007782   0.001281  -0.000335
     17       0.005218   0.005615  -0.002227   0.003891   0.002724   0.008643
     18       0.012634   0.031102   0.017391   0.011138   0.060017   0.401564
     19       0.070095   0.020012   0.080215   0.036790   0.086605   0.404486
     20       0.035606   0.007558   0.030212   0.011195   0.055034   0.397344
     21      -0.140251   0.097048   0.173553   0.423024  -0.037580   0.170448
     22      -0.127425  -0.033027   0.182374   0.674453   0.065360   0.207760
     23      -0.003829  -0.042289  -0.099700  -0.167885  -0.113773  -0.136065
     24      -0.269129   0.147896  -0.007956  -0.069143  -0.329504   0.320250
     25      -0.083951  -0.102011   0.198276   0.176889  -0.041452  -0.247946
     26      -0.394589  -0.453984  -0.336586   0.232887  -0.520285  -0.077391
     27      -0.129147  -0.539577  -0.184620  -0.080396   0.086993   0.180919
     28       0.750767   0.082542  -0.192344   0.365413  -0.306328  -0.132969
     29       0.236761  -0.055869   0.199548   0.063473  -0.083674  -0.055332
     30       0.096714  -0.365933   0.019884  -0.052310   0.194332   0.342381
     31       0.141841   0.012753  -0.219606   0.109957  -0.078952   0.217018
     32       0.148682  -0.460582   0.736050  -0.235844  -0.314585   0.047990
     33       0.043179   0.130416   0.008985   0.047699   0.201396   0.004116
     34      -0.039083   0.024793  -0.005639   0.071945   0.231298  -0.109699
     35      -0.007327   0.057727   0.164632  -0.088137  -0.469949  -0.035140
                 12         13         14         15         16         17    
      0      -0.032502   0.007441  -0.016868   0.007337  -0.003341  -0.014626
      1      -0.045017   0.000205  -0.021146   0.009234   0.000155  -0.020159
      2      -0.017974   0.009824   0.003885   0.007094  -0.007579   0.006064
      3       0.007801  -0.006234   0.013734   0.003280  -0.018292   0.018150
      4       0.007623  -0.009410   0.008138  -0.032696   0.011984   0.051547
      5      -0.009541   0.011874  -0.016920  -0.011119   0.001884  -0.001097
      6       0.075666   0.023136   0.002183  -0.013857  -0.013687  -0.035914
      7       0.012434   0.071000  -0.034100   0.074966   0.048568  -0.046527
      8      -0.038539  -0.027583   0.006142   0.066475  -0.041456   0.004008
      9       0.023930   0.048207  -0.006282  -0.033747  -0.015592   0.001772
     10       0.053689  -0.058928   0.025680   0.071425   0.014053  -0.002111
     11       0.010892  -0.081347  -0.074064  -0.087296   0.028557   0.015061
     12      -0.041312  -0.042285   0.048712  -0.045769   0.037871  -0.040743
     13      -0.036414   0.031336  -0.001633  -0.070567  -0.029324  -0.027094
     14       0.000142   0.069134   0.030302   0.000526   0.045440  -0.023839
     15       0.003380   0.003178  -0.007585   0.000799  -0.001968   0.004082
     16       0.005677  -0.003924   0.001350  -0.001356   0.000675  -0.008337
     17      -0.006883  -0.010482   0.014098   0.000120  -0.012042   0.000668
     18       0.424438  -0.098780   0.158729  -0.047357  -0.038658   0.221613
     19       0.408348  -0.023710   0.095977  -0.023984   0.055100  -0.011825
     20       0.427308   0.003134   0.093099  -0.094621   0.067055   0.042827
     21      -0.189329   0.172789  -0.178967   0.229269   0.718414   0.232592
     22       0.005129   0.119795  -0.223022  -0.052963  -0.395297  -0.479120
     23       0.130280   0.057137   0.078413  -0.119430   0.020091  -0.160111
     24      -0.256457  -0.255584   0.126761   0.241332  -0.157830  -0.053279
     25      -0.033688  -0.313180   0.267910  -0.269570  -0.063254   0.414213
     26       0.217377   0.196216   0.243984   0.089407   0.073539  -0.051497
     27      -0.029535   0.070030  -0.447826   0.367724  -0.234063   0.413677
     28       0.104259  -0.336774  -0.122904   0.123762   0.128372   0.044348
     29      -0.056353   0.261461   0.505766   0.525469  -0.122568   0.040421
     30      -0.343658  -0.460971   0.172841   0.000898   0.169581  -0.233684
     31      -0.363209   0.307264   0.207480  -0.346896  -0.249647   0.384490
     32       0.020230   0.177931  -0.272439  -0.342059   0.078693   0.043802
     33       0.038439   0.156679  -0.192982   0.139541  -0.185206   0.190677
     34       0.028562  -0.062259   0.079385   0.060062  -0.075430   0.184433
     35       0.134865  -0.399706  -0.217408   0.245062  -0.223024   0.051961
                 18         19         20         21         22         23    
      0      -0.001251  -0.001455  -0.030532  -0.005418  -0.037187   0.041657
      1      -0.000496   0.039422   0.012336   0.011738  -0.060673   0.082260
      2       0.026661  -0.027430   0.018954  -0.013919   0.043037  -0.048431
      3      -0.011936  -0.034999  -0.009636   0.030579  -0.001248  -0.036769
      4       0.027393  -0.005511  -0.031537  -0.020140   0.185655  -0.142516
      5       0.000116   0.009869   0.000973  -0.054716   0.011303   0.028541
      6      -0.023559   0.030269   0.005491  -0.034779   0.063923   0.000661
      7      -0.047890   0.012314   0.022396  -0.000410  -0.136503   0.023506
      8      -0.096886  -0.024530   0.010511   0.071317  -0.034608  -0.008503
      9       0.003489   0.006120  -0.006308  -0.018711  -0.014413  -0.000622
     10       0.015846   0.007424  -0.000320   0.023312   0.018881   0.026007
     11      -0.017743   0.032006  -0.014719  -0.027453  -0.013472   0.038151
     12      -0.022749  -0.012406   0.005625   0.011977  -0.089163  -0.106189
     13       0.000189  -0.015557   0.002277  -0.000213   0.129989   0.102322
     14       0.005161  -0.053498   0.027622   0.060048   0.036993  -0.002694
     15       0.003693  -0.004924   0.004561   0.013276   0.034085   0.025218
     16      -0.015872   0.007796   0.012128   0.007639  -0.031914  -0.043797
     17       0.011144   0.003179   0.011880  -0.014467  -0.012128  -0.007131
     18       0.077138   0.294370   0.730276   0.038732   0.068438   0.093933
     19       0.034373  -0.682431  -0.157792  -0.451544  -0.214151   0.104755
     20      -0.069299   0.397441  -0.617341   0.404100  -0.021798   0.025066
     21       0.140754   0.065799   0.028259  -0.034915  -0.069190   0.005682
     22       0.068970   0.022221   0.067956   0.085258  -0.237658  -0.110187
     23       0.879179  -0.074452  -0.021763   0.266581  -0.249095   0.093069
     24       0.014902  -0.150199  -0.002438   0.240624   0.349268   0.033153
     25      -0.098323  -0.192451  -0.025121   0.180514  -0.393459   0.495671
     26      -0.247992   0.034652  -0.010603  -0.095789  -0.051230   0.072878
     27       0.136749  -0.190446  -0.024023   0.223067  -0.060004  -0.043205
     28       0.029632  -0.101046   0.026790   0.197451   0.024705   0.011833
     29       0.113192   0.147859  -0.095195  -0.135958   0.029663   0.096875
     30       0.175304   0.198970  -0.074431  -0.282956   0.029060   0.176250
     31       0.083607   0.115483  -0.046171  -0.107857  -0.262960  -0.121230
     32      -0.065005   0.059936   0.037075  -0.011780  -0.080915  -0.015455
     33       0.116067   0.152491  -0.149762  -0.299973   0.223957   0.521186
     34       0.086308   0.126423  -0.043587  -0.162068  -0.540994  -0.538546
     35       0.092415   0.211219  -0.076015  -0.346336  -0.164500  -0.164744
                 24         25         26         27         28         29    
      0       0.095307   0.019824   0.018572   0.053859   0.004154  -0.013118
      1       0.133164  -0.008124   0.039765   0.042052  -0.030125  -0.094737
      2      -0.073560  -0.051211   0.005518   0.098353   0.093944   0.025233
      3      -0.138860  -0.038858  -0.020362  -0.094129   0.073203  -0.074710
      4      -0.049897   0.008175   0.014262  -0.017520  -0.076178   0.026068
      5       0.140850  -0.033119   0.051084  -0.137475  -0.057456   0.039445
      6       0.045221   0.099987  -0.017463   0.141774   0.049911   0.128141
      7      -0.119675   0.014686  -0.048519  -0.044770   0.036707   0.131950
      8      -0.072180   0.128533   0.030638   0.171776  -0.076723  -0.047312
      9       0.003977   0.010181  -0.018514  -0.090034  -0.055521  -0.033631
     10       0.022072  -0.003731   0.041095  -0.010185   0.192991  -0.032829
     11      -0.000094  -0.126174  -0.121274   0.038971   0.062059   0.043960
     12      -0.000964  -0.155256   0.136881   0.085612  -0.076652  -0.006457
     13      -0.018318   0.008147  -0.158730   0.118282  -0.067973  -0.094523
     14       0.036967   0.112598  -0.001191  -0.249366   0.035095  -0.013332
     15       0.019158   0.038430  -0.097819  -0.040370   0.011812  -0.026093
     16      -0.005576  -0.034153   0.093823  -0.048566  -0.032528   0.025784
     17      -0.024180  -0.002690   0.027194   0.051046  -0.046103  -0.045372
     18       0.106985  -0.046533   0.045173   0.031849  -0.052286  -0.021622
     19       0.251812   0.014137   0.029978   0.184668   0.078894  -0.041259
     20       0.132436  -0.007061   0.039519   0.021317   0.035509  -0.013847
     21      -0.093746   0.137590  -0.058980   0.416631   0.016827   0.073730
     22      -0.236946  -0.106592  -0.087351  -0.118660   0.057830   0.184726
     23      -0.151105   0.165077   0.082084   0.265441  -0.178216   0.035577
     24       0.412587   0.148105   0.014933   0.079076   0.006487   0.711969
     25      -0.338359   0.009368  -0.137106  -0.110466  -0.189486   0.336148
     26      -0.215566   0.253446   0.125753  -0.094682  -0.237007  -0.183143
     27       0.115783  -0.180491  -0.089469  -0.218383  -0.124742  -0.186566
     28       0.106915  -0.124158   0.120908  -0.247819   0.107640  -0.016760
     29       0.061758  -0.630013  -0.386553   0.047797   0.025151   0.030902
     30      -0.275066   0.212353  -0.085758  -0.557676   0.008543  -0.099411
     31       0.139041   0.278110   0.250396   0.063328   0.655258  -0.014878
     32       0.005102  -0.120914  -0.104866  -0.097749   0.081964   0.206465
     33      -0.454094  -0.041627   0.552740  -0.108212  -0.289919   0.280852
     34       0.225695   0.242799  -0.543661  -0.144171  -0.433682   0.177896
     35      -0.096149   0.350864   0.008248   0.128797   0.181765  -0.183596
                 30         31         32         33         34         35    
      0       0.012313   0.142786   0.545201  -0.001792  -0.022266   0.005064
      1       0.254963  -0.179727  -0.224012   0.003846  -0.012027   0.004316
      2       0.217957   0.106765   0.016187  -0.047987  -0.012192   0.004434
      3      -0.020643  -0.351169   0.116149   0.011948  -0.064410   0.056804
      4       0.020547   0.021990   0.000331   0.061803   0.039392  -0.035666
      5      -0.267777  -0.100928   0.018668   0.045422   0.026542  -0.022874
      6       0.053390  -0.119228  -0.098157   0.120813   0.007792  -0.062918
      7      -0.117457   0.040007  -0.036057   0.063445   0.011801  -0.027640
      8       0.001596   0.040865  -0.032264   0.019608  -0.015623   0.020309
      9       0.146873   0.141660  -0.144991   0.228697   0.013446  -0.036952
     10      -0.188442   0.143892  -0.061209   0.071571  -0.075874   0.070697
     11       0.116270   0.002867  -0.007450  -0.025237  -0.039922   0.010710
     12      -0.133040   0.098568  -0.249106  -0.071967  -0.163498  -0.064683
     13      -0.192226   0.024250   0.088121  -0.036775  -0.170830  -0.020494
     14       0.094931   0.018186  -0.005527  -0.134158  -0.172563  -0.100409
     15      -0.086469   0.111314  -0.275293  -0.241884   0.225485   0.051010
     16       0.110255  -0.029121   0.261867  -0.148312   0.183489  -0.004875
     17      -0.140391  -0.054223   0.001421   0.125098   0.171048   0.072352
     18       0.067116   0.049900   0.334453  -0.000184  -0.106779  -0.028757
     19       0.206008  -0.072987  -0.147436  -0.023516   0.046002   0.032961
     20       0.031501  -0.008610  -0.002918  -0.047247   0.021930  -0.069582
     21      -0.183395  -0.312558   0.025225  -0.023575   0.039631  -0.112180
     22      -0.112205   0.059560  -0.058634   0.068230   0.068558  -0.111467
     23      -0.062576  -0.091440   0.013389   0.005422   0.020079   0.056796
     24       0.179650  -0.337145  -0.177015   0.001332  -0.139367   0.209630
     25      -0.035184  -0.000563   0.055926   0.055880   0.185443  -0.333271
     26       0.314157   0.299486  -0.065613   0.110448  -0.093313   0.258344
     27       0.154939   0.324837  -0.164868   0.411417   0.077274  -0.190446
     28      -0.076547   0.358917  -0.138741   0.159528  -0.290223   0.269075
     29       0.150023  -0.013209   0.047022  -0.016352   0.059233  -0.139717
     30       0.421404   0.298614   0.004621   0.413194   0.128553   0.020528
     31      -0.227386   0.137379  -0.276185   0.074255  -0.003476   0.037166
     32       0.253058   0.055372  -0.013983   0.080378  -0.098709   0.334124
     33       0.063935   0.075243  -0.284374  -0.431295  -0.507370   0.270381
     34       0.057942   0.003283   0.067952  -0.192960  -0.553951   0.411659
     35      -0.202745  -0.211407  -0.014597  -0.411850  -0.133794  -0.468835


-----------
IR SPECTRUM
-----------

 Mode   freq       eps      Int      T**2         TX        TY        TZ
       cm**-1   L/(mol*cm) km/mol    a.u.
----------------------------------------------------------------------------
 33:     56.88   0.152315  769.74  0.835724  ( 0.734324 -0.079306 -0.538705)
 34:    995.27   2.195979  11097.58  0.688542  ( 0.828549  0.042323  0.016047)
 35:   1550.62   12.144406  61372.85  2.444065  (-1.330178 -0.323972 -0.754806)

* The epsilon (eps) is given for a Dirac delta lineshape.
** The dipole moment derivative (T) already includes vibrational overlap.

The first frequency considered to be a vibration is 33
The total number of vibrations considered is 3


--------------------------
THERMOCHEMISTRY AT 298.15K
--------------------------

Temperature         ... 298.15 K
Pressure            ... 1.00 atm
Total Mass          ... 90.08 AMU

Throughout the following assumptions are being made:
  (1) The electronic state is orbitally nondegenerate
  (2) There are no thermally accessible electronically excited states
  (3) Hindered rotations indicated by low frequency modes are not
      treated as such but are treated as vibrations and this may
      cause some error
  (4) All equations used are the standard statistical mechanics
      equations for an ideal gas
  (5) All vibrations are strictly harmonic

freq.      56.88  E(vib)   ...       0.51 
freq.     995.27  E(vib)   ...       0.02 
freq.    1550.62  E(vib)   ...       0.00 

------------
INNER ENERGY
------------

The inner energy is: U= E(el) + E(ZPE) + E(vib) + E(rot) + E(trans)
    E(el)   - is the total energy from the electronic structure calculation
              = E(kin-el) + E(nuc-el) + E(el-el) + E(nuc-nuc)
    E(ZPE)  - the the zero temperature vibrational energy from the frequency calculation
    E(vib)  - the the finite temperature correction to E(ZPE) due to population
              of excited vibrational states
    E(rot)  - is the rotational thermal energy
    E(trans)- is the translational thermal energy

Summary of contributions to the inner energy U:
Electronic energy                ...   -343.34847418 Eh
Zero point energy                ...      0.00592955 Eh       3.72 kcal/mol
Thermal vibrational correction   ...      0.00086206 Eh       0.54 kcal/mol
Thermal rotational correction    ...      0.00141627 Eh       0.89 kcal/mol
Thermal translational correction ...      0.00141627 Eh       0.89 kcal/mol
-----------------------------------------------------------------------
Total thermal energy                   -343.33885003 Eh


Summary of corrections to the electronic energy:
(perhaps to be used in another calculation)
Total thermal correction                  0.00369460 Eh       2.32 kcal/mol
Non-thermal (ZPE) correction              0.00592955 Eh       3.72 kcal/mol
-----------------------------------------------------------------------
Total correction                          0.00962415 Eh       6.04 kcal/mol


--------
ENTHALPY
--------

The enthalpy is H = U + kB*T
                kB is Boltzmann's constant
Total free energy                 ...   -343.33885003 Eh 
Thermal Enthalpy correction       ...      0.00094421 Eh       0.59 kcal/mol
-----------------------------------------------------------------------
Total Enthalpy                    ...   -343.33790582 Eh


Note: Only C1 symmetry has been detected, increase convergence thresholds 
      if your molecule has a higher symmetry. Symmetry factor of 1.0 is   
      used for the rotational entropy correction. 
 

Note: Rotational entropy computed according to Herzberg 
Infrared and Raman Spectra, Chapter V,1, Van Nostrand Reinhold, 1945 
Point Group:  C1, Symmetry Number:   1  
Rotational constants in cm-1:     0.192814     0.089616     0.067601 

Vibrational entropy computed according to the QRRHO of S. Grimme
Chem.Eur.J. 2012 18 9955


-------
ENTROPY
-------

The entropy contributions are T*S = T*(S(el)+S(vib)+S(rot)+S(trans))
     S(el)   - electronic entropy
     S(vib)  - vibrational entropy
     S(rot)  - rotational entropy
     S(trans)- translational entropy
The entropies will be listed as multiplied by the temperature to get
units of energy

Electronic entropy                ...      0.00000000 Eh      0.00 kcal/mol
Vibrational entropy               ...      0.00172446 Eh      1.08 kcal/mol
Rotational entropy                ...      0.01269855 Eh      7.97 kcal/mol
Translational entropy             ...      0.01872325 Eh     11.75 kcal/mol
-----------------------------------------------------------------------
Final entropy term                ...      0.03314626 Eh     20.80 kcal/mol

In case the symmetry of your molecule has not been determined correctly
or in case you have a reason to use a different symmetry number we print 
out the resulting rotational entropy values for sn=1,12 :
 --------------------------------------------------------
|  sn= 1 | S(rot)=       0.01269855 Eh      7.97 kcal/mol|
|  sn= 2 | S(rot)=       0.01204409 Eh      7.56 kcal/mol|
|  sn= 3 | S(rot)=       0.01166126 Eh      7.32 kcal/mol|
|  sn= 4 | S(rot)=       0.01138964 Eh      7.15 kcal/mol|
|  sn= 5 | S(rot)=       0.01117895 Eh      7.01 kcal/mol|
|  sn= 6 | S(rot)=       0.01100680 Eh      6.91 kcal/mol|
|  sn= 7 | S(rot)=       0.01086126 Eh      6.82 kcal/mol|
|  sn= 8 | S(rot)=       0.01073518 Eh      6.74 kcal/mol|
|  sn= 9 | S(rot)=       0.01062397 Eh      6.67 kcal/mol|
|  sn=10 | S(rot)=       0.01052449 Eh      6.60 kcal/mol|
|  sn=11 | S(rot)=       0.01043450 Eh      6.55 kcal/mol|
|  sn=12 | S(rot)=       0.01035235 Eh      6.50 kcal/mol|
 --------------------------------------------------------


-------------------
GIBBS FREE ENERGY
-------------------

The Gibbs free energy is G = H - T*S

Total enthalpy                    ...   -343.33790582 Eh 
Total entropy correction          ...     -0.03314626 Eh    -20.80 kcal/mol
-----------------------------------------------------------------------
Final Gibbs free energy         ...   -343.37105208 Eh

For completeness - the Gibbs free energy minus the electronic energy
G-E(el)                           ...     -0.02257790 Eh    -14.17 kcal/mol


Timings for individual modules:

Sum of individual times         ...      114.899 sec (=   1.915 min)
GTO integral calculation        ...       10.497 sec (=   0.175 min)   9.1 %
SCF iterations                  ...       27.579 sec (=   0.460 min)  24.0 %
SCF Gradient evaluation         ...       13.790 sec (=   0.230 min)  12.0 %
Geometry relaxation             ...        0.792 sec (=   0.013 min)   0.7 %
Analytical frequency calculation...       62.241 sec (=   1.037 min)  54.2 %
                             ****ORCA TERMINATED NORMALLY****
TOTAL RUN TIME: 0 days 0 hours 2 minutes 43 seconds 557 msec
