
                                 *****************
                                 * O   R   C   A *
                                 *****************

                                            #,                                       
                                            ###                                      
                                            ####                                     
                                            #####                                    
                                            ######                                   
                                           ########,                                 
                                     ,,################,,,,,                         
                               ,,#################################,,                 
                          ,,##########################################,,             
                       ,#########################################, ''#####,          
                    ,#############################################,,   '####,        
                  ,##################################################,,,,####,       
                ,###########''''           ''''###############################       
              ,#####''   ,,,,##########,,,,          '''####'''          '####       
            ,##' ,,,,###########################,,,                        '##       
           ' ,,###''''                  '''############,,,                           
         ,,##''                                '''############,,,,        ,,,,,,###''
      ,#''                                            '''#######################'''  
     '                                                          ''''####''''         
             ,#######,   #######,   ,#######,      ##                                
            ,#'     '#,  ##    ##  ,#'     '#,    #''#        ######   ,####,        
            ##       ##  ##   ,#'  ##            #'  '#       #        #'  '#        
            ##       ##  #######   ##           ,######,      #####,   #    #        
            '#,     ,#'  ##    ##  '#,     ,#' ,#      #,         ##   #,  ,#        
             '#######'   ##     ##  '#######'  #'      '#     #####' # '####'        



                  #######################################################
                  #                        -***-                        #
                  #          Department of theory and spectroscopy      #
                  #    Directorship and core code : Frank Neese         #
                  #        Max Planck Institute fuer Kohlenforschung    #
                  #                Kaiser Wilhelm Platz 1               #
                  #                 D-45470 Muelheim/Ruhr               #
                  #                      Germany                        #
                  #                                                     #
                  #                  All rights reserved                #
                  #                        -***-                        #
                  #######################################################


                         Program Version 5.0.1 -  RELEASE  -


 With contributions from (in alphabetic order):
   Daniel Aravena         : Magnetic Suceptibility
   Michael Atanasov       : Ab Initio Ligand Field Theory (pilot matlab implementation)
   Alexander A. Auer      : GIAO ZORA, VPT2 properties, NMR spectrum
   Ute Becker             : Parallelization
   Giovanni Bistoni       : ED, misc. LED, open-shell LED, HFLD
   Martin Brehm           : Molecular dynamics
   Dmytro Bykov           : SCF Hessian
   Vijay G. Chilkuri      : MRCI spin determinant printing, contributions to CSF-ICE
   Dipayan Datta          : RHF DLPNO-CCSD density
   Achintya Kumar Dutta   : EOM-CC, STEOM-CC
   Dmitry Ganyushin       : Spin-Orbit,Spin-Spin,Magnetic field MRCI
   Miquel Garcia          : C-PCM and meta-GGA Hessian, CC/C-PCM, Gaussian charge scheme
   Yang Guo               : DLPNO-NEVPT2, F12-NEVPT2, CIM, IAO-localization
   Andreas Hansen         : Spin unrestricted coupled pair/coupled cluster methods
   Benjamin Helmich-Paris : MC-RPA, TRAH-SCF, COSX integrals
   Lee Huntington         : MR-EOM, pCC
   Robert Izsak           : Overlap fitted RIJCOSX, COSX-SCS-MP3, EOM
   Marcus Kettner         : VPT2
   Christian Kollmar      : KDIIS, OOCD, Brueckner-CCSD(T), CCSD density, CASPT2, CASPT2-K
   Simone Kossmann        : Meta GGA functionals, TD-DFT gradient, OOMP2, MP2 Hessian
   Martin Krupicka        : Initial AUTO-CI
   Lucas Lang             : DCDCAS
   Marvin Lechner         : AUTO-CI (C++ implementation), FIC-MRCC
   Dagmar Lenk            : GEPOL surface, SMD
   Dimitrios Liakos       : Extrapolation schemes; Compound Job, initial MDCI parallelization
   Dimitrios Manganas     : Further ROCIS development; embedding schemes
   Dimitrios Pantazis     : SARC Basis sets
   Anastasios Papadopoulos: AUTO-CI, single reference methods and gradients
   Taras Petrenko         : DFT Hessian,TD-DFT gradient, ASA, ECA, R-Raman, ABS, FL, XAS/XES, NRVS
   Peter Pinski           : DLPNO-MP2, DLPNO-MP2 Gradient
   Christoph Reimann      : Effective Core Potentials
   Marius Retegan         : Local ZFS, SOC
   Christoph Riplinger    : Optimizer, TS searches, QM/MM, DLPNO-CCSD(T), (RO)-DLPNO pert. Triples
   Tobias Risthaus        : Range-separated hybrids, TD-DFT gradient, RPA, STAB
   Michael Roemelt        : Original ROCIS implementation
   Masaaki Saitow         : Open-shell DLPNO-CCSD energy and density
   Barbara Sandhoefer     : DKH picture change effects
   Avijit Sen             : IP-ROCIS
   Kantharuban Sivalingam : CASSCF convergence, NEVPT2, FIC-MRCI
   Bernardo de Souza      : ESD, SOC TD-DFT
   Georgi Stoychev        : AutoAux, RI-MP2 NMR, DLPNO-MP2 response
   Willem Van den Heuvel  : Paramagnetic NMR
   Boris Wezisla          : Elementary symmetry handling
   Frank Wennmohs         : Technical directorship


 We gratefully acknowledge several colleagues who have allowed us to
 interface, adapt or use parts of their codes:
   Stefan Grimme, W. Hujo, H. Kruse, P. Pracht,  : VdW corrections, initial TS optimization,
                  C. Bannwarth, S. Ehlert          DFT functionals, gCP, sTDA/sTD-DF
   Ed Valeev, F. Pavosevic, A. Kumar             : LibInt (2-el integral package), F12 methods
   Garnet Chan, S. Sharma, J. Yang, R. Olivares  : DMRG
   Ulf Ekstrom                                   : XCFun DFT Library
   Mihaly Kallay                                 : mrcc  (arbitrary order and MRCC methods)
   Jiri Pittner, Ondrej Demel                    : Mk-CCSD
   Frank Weinhold                                : gennbo (NPA and NBO analysis)
   Christopher J. Cramer and Donald G. Truhlar   : smd solvation model
   Lars Goerigk                                  : TD-DFT with DH, B97 family of functionals
   V. Asgeirsson, H. Jonsson                     : NEB implementation
   FAccTs GmbH                                   : IRC, NEB, NEB-TS, DLPNO-Multilevel, CI-OPT
                                                   MM, QMMM, 2- and 3-layer-ONIOM, Crystal-QMMM,
                                                   LR-CPCM, SF, NACMEs, symmetry and pop. for TD-DFT,
                                                   nearIR, NL-DFT gradient (VV10), updates on ESD,
                                                   ML-optimized integration grids
   S Lehtola, MJT Oliveira, MAL Marques          : LibXC Library
   Liviu Ungur et al                             : ANISO software


 Your calculation uses the libint2 library for the computation of 2-el integrals
 For citations please refer to: http://libint.valeyev.net

 Your ORCA version has been built with support for libXC version: 5.1.0
 For citations please refer to: https://tddft.org/programs/libxc/

 This ORCA versions uses:
   CBLAS   interface :  Fast vector & matrix operations
   LAPACKE interface :  Fast linear algebra routines
   SCALAPACK package :  Parallel linear algebra routines
   Shared memory     :  Shared parallel matrices
   BLAS/LAPACK       :  OpenBLAS 0.3.15  USE64BITINT DYNAMIC_ARCH NO_AFFINITY Zen SINGLE_THREADED
        Core in use  :  Zen
   Copyright (c) 2011-2014, The OpenBLAS Project


Your calculation utilizes the atom-pairwise dispersion correction
with the Becke-Johnson damping scheme (D3BJ)
Cite in your paper:
S.Grimme, S.Ehrlich, L.Goerigk, J Comput Chem, (2011), 32, 1456–1465 
S.Grimme, J.Antony, S.Ehrlich and H.Krieg, J.Chem.Phys., 132, (2010), 154104 
   

Your calculation employs the composite approach B97-3c by Grimme and coworkers.
For the correct reference, please check the publication list of the Grimme group:
http://www.thch.uni-bonn.de/tc/index.php?section=publikationen&subsection=grimme#2017
   

XCFun DFT library Copyright 2009-2010 Ulf Ekstrom and contributors.
See http://admol.org/xcfun for more information.
This is free software; see the source code for copying conditions.
There is ABSOLUTELY NO WARRANTY; not even for MERCHANTABILITY or FITNESS FOR A PARTICULAR PURPOSE.
For details see the documentation.
Scientific users of this library should cite U. Ekstrom, L. Visscher, R. Bast, A. J. Thorvaldsen and K. Ruud;
J.Chem.Theor.Comp. 2010, DOI: 10.1021/ct100117s
XCFun Version 0.99 

================================================================================

----- Orbital basis set information -----
Your calculation utilizes the basis: def2-mTZVP
----- AuxJ basis set information -----
Your calculation utilizes the basis: def2-mTZVP/J
================================================================================
                                        WARNINGS
                       Please study these warnings very carefully!
================================================================================


WARNING: Geometry Optimization
  ===> : Switching off AutoStart
         For restart on a previous wavefunction, please use MOREAD

INFO   : the flag for use of the SHARK integral package has been found!

================================================================================
                                       INPUT FILE
================================================================================
NAME = XSASRUDTFFBDDK-UHFFFAOYSA-N.in
|  1> ! B97-3c Opt Freq tightscf 
|  2> 
|  3> %pal
|  4> nproc 4
|  5> end
|  6> 
|  7> %maxcore 4000
|  8> 
|  9> %base "XSASRUDTFFBDDK-UHFFFAOYSA-N"
| 10> 
| 11> * xyz 0 1
| 12>   O   -0.89738471       1.29692524      -0.22437532     
| 13>   O   -1.56302948       0.17921955       0.35057654     
| 14>   C   -1.04880282      -0.99974914      -0.20897618     
| 15>   C    0.42057336      -1.22232353       0.16926079     
| 16>   C    1.27735402      -0.11352258      -0.38481842     
| 17>   O    2.04362896       0.54694936       0.25807217     
| 18>   H   -0.71508267       1.86967202       0.53390010     
| 19>   H   -1.68756019      -1.77842524       0.21295082     
| 20>   H   -1.16191307      -0.97968672      -1.30025754     
| 21>   H    0.75448917      -2.16496837      -0.26702786     
| 22>   H    0.53223665      -1.26290037       1.25413929     
| 23>   H    1.15835247       0.03467558      -1.47455020     
| 24> *
| 25> 
| 26>                          ****END OF INPUT****
================================================================================

                       *****************************
                       * Geometry Optimization Run *
                       *****************************

Geometry optimization settings:
Update method            Update   .... BFGS
Choice of coordinates    CoordSys .... Z-matrix Internals
Initial Hessian          InHess   .... Almoef's Model

Convergence Tolerances:
Energy Change            TolE     ....  5.0000e-06 Eh
Max. Gradient            TolMAXG  ....  3.0000e-04 Eh/bohr
RMS Gradient             TolRMSG  ....  1.0000e-04 Eh/bohr
Max. Displacement        TolMAXD  ....  4.0000e-03 bohr
RMS Displacement         TolRMSD  ....  2.0000e-03 bohr
Strict Convergence                ....  False
------------------------------------------------------------------------------
                        ORCA OPTIMIZATION COORDINATE SETUP
------------------------------------------------------------------------------

The optimization will be done in new redundant internal coordinates
Making redundant internal coordinates   ...  (new redundants) done
Evaluating the initial hessian          ...  (Almloef) done
Evaluating the coordinates              ...  done
Calculating the B-matrix                .... done
Calculating the G-matrix                .... done
Diagonalizing the G-matrix              .... done
Small eigenvalue found = 2.832e-02
The first mode is                       ....   17
The number of degrees of freedom        ....   30

    -----------------------------------------------------------------
                    Redundant Internal Coordinates


    -----------------------------------------------------------------
         Definition                    Initial Value    Approx d2E/dq
    -----------------------------------------------------------------
      1. B(O   1,O   0)                  1.4223         0.445133   
      2. B(C   2,O   1)                  1.4027         0.534139   
      3. B(C   3,C   2)                  1.5335         0.368782   
      4. B(C   4,C   3)                  1.5068         0.406775   
      5. B(O   5,C   4)                  1.1986         1.130310   
      6. B(H   6,O   0)                  0.9676         0.505635   
      7. B(H   7,C   2)                  1.0920         0.357521   
      8. B(H   8,C   2)                  1.0973         0.350557   
      9. B(H   9,C   3)                  1.0911         0.358691   
     10. B(H  10,C   3)                  1.0914         0.358299   
     11. B(H  11,C   4)                  1.1062         0.339317   
     12. A(O   1,O   0,H   6)          103.6828         0.345986   
     13. A(O   0,O   1,C   2)          109.1282         0.390885   
     14. A(O   1,C   2,H   7)          103.3431         0.341643   
     15. A(H   7,C   2,H   8)          109.6949         0.289290   
     16. A(O   1,C   2,C   3)          112.0164         0.383167   
     17. A(C   3,C   2,H   7)          111.2044         0.323251   
     18. A(O   1,C   2,H   8)          110.0945         0.340520   
     19. A(C   3,C   2,H   8)          110.2864         0.322210   
     20. A(C   4,C   3,H  10)          109.5549         0.328626   
     21. A(C   4,C   3,H   9)          108.3425         0.328685   
     22. A(C   2,C   3,C   4)          110.3236         0.367873   
     23. A(C   2,C   3,H  10)          110.4025         0.323366   
     24. A(C   2,C   3,H   9)          108.6637         0.323424   
     25. A(H   9,C   3,H  10)          109.5155         0.290432   
     26. A(O   5,C   4,H  11)          121.5560         0.384837   
     27. A(C   3,C   4,H  11)          113.5569         0.325691   
     28. A(C   3,C   4,O   5)          124.8723         0.445382   
     29. D(C   2,O   1,O   0,H   6)   -136.2901         0.014685   
     30. D(H   8,C   2,O   1,O   0)    -57.1935         0.022673   
     31. D(C   3,C   2,O   1,O   0)     65.9103         0.022673   
     32. D(H   7,C   2,O   1,O   0)   -174.2960         0.022673   
     33. D(H  10,C   3,C   2,H   7)    -56.9263         0.010876   
     34. D(C   4,C   3,C   2,H   8)     59.9121         0.010876   
     35. D(C   4,C   3,C   2,H   7)   -178.1635         0.010876   
     36. D(H   9,C   3,C   2,H   8)    -58.7289         0.010876   
     37. D(C   4,C   3,C   2,O   1)    -63.0832         0.010876   
     38. D(H  10,C   3,C   2,O   1)     58.1541         0.010876   
     39. D(H   9,C   3,C   2,H   7)     63.1955         0.010876   
     40. D(H  10,C   3,C   2,H   8)   -178.8506         0.010876   
     41. D(H   9,C   3,C   2,O   1)    178.2758         0.010876   
     42. D(O   5,C   4,C   3,H   9)   -113.8564         0.012262   
     43. D(O   5,C   4,C   3,C   2)    127.3065         0.012262   
     44. D(H  11,C   4,C   3,H  10)   -175.8181         0.012262   
     45. D(H  11,C   4,C   3,H   9)     64.7592         0.012262   
     46. D(H  11,C   4,C   3,C   2)    -54.0778         0.012262   
     47. D(O   5,C   4,C   3,H  10)      5.5662         0.012262   
    -----------------------------------------------------------------

Number of atoms                         .... 12
Number of degrees of freedom            .... 47

         *************************************************************
         *                GEOMETRY OPTIMIZATION CYCLE   1            *
         *************************************************************
---------------------------------
CARTESIAN COORDINATES (ANGSTROEM)
---------------------------------
  O     -0.897385    1.296925   -0.224375
  O     -1.563029    0.179220    0.350577
  C     -1.048803   -0.999749   -0.208976
  C      0.420573   -1.222324    0.169261
  C      1.277354   -0.113523   -0.384818
  O      2.043629    0.546949    0.258072
  H     -0.715083    1.869672    0.533900
  H     -1.687560   -1.778425    0.212951
  H     -1.161913   -0.979687   -1.300258
  H      0.754489   -2.164968   -0.267028
  H      0.532237   -1.262900    1.254139
  H      1.158352    0.034676   -1.474550

----------------------------
CARTESIAN COORDINATES (A.U.)
----------------------------
  NO LB      ZA    FRAG     MASS         X           Y           Z
   0 O     8.0000    0    15.999   -1.695811    2.450834   -0.424008
   1 O     8.0000    0    15.999   -2.953698    0.338676    0.662494
   2 C     6.0000    0    12.011   -1.981950   -1.889252   -0.394908
   3 C     6.0000    0    12.011    0.794768   -2.309857    0.319857
   4 C     6.0000    0    12.011    2.413849   -0.214527   -0.727201
   5 O     8.0000    0    15.999    3.861899    1.033584    0.487686
   6 H     1.0000    0     1.008   -1.351310    3.533168    1.008925
   7 H     1.0000    0     1.008   -3.189027   -3.360737    0.402419
   8 H     1.0000    0     1.008   -2.195697   -1.851340   -2.457131
   9 H     1.0000    0     1.008    1.425778   -4.091197   -0.504610
  10 H     1.0000    0     1.008    1.005782   -2.386536    2.369980
  11 H     1.0000    0     1.008    2.188969    0.065527   -2.786496

--------------------------------
INTERNAL COORDINATES (ANGSTROEM)
--------------------------------
 O      0   0   0     0.000000000000     0.00000000     0.00000000
 O      1   0   0     1.422293433369     0.00000000     0.00000000
 C      2   1   0     1.402674401390   109.12818751     0.00000000
 C      3   2   1     1.533515217698   112.01637301    65.91028105
 C      4   3   2     1.506823286595   110.32359211   296.91683210
 O      5   4   3     1.198627872991   124.87234197   127.30653637
 H      1   2   3     0.967602459879   103.68280628   223.70990125
 H      3   2   1     1.091956885490   103.34306654   185.70400766
 H      3   2   1     1.097311002421   110.09450892   302.80649435
 H      4   3   2     1.091066839687   108.66373481   178.27582754
 H      4   3   2     1.091364526655   110.40253189    58.15405732
 H      5   4   3     1.106182361038   113.55692294   305.92216701

---------------------------
INTERNAL COORDINATES (A.U.)
---------------------------
 O      0   0   0     0.000000000000     0.00000000     0.00000000
 O      1   0   0     2.687745071142     0.00000000     0.00000000
 C      2   1   0     2.650670473689   109.12818751     0.00000000
 C      3   2   1     2.897923783649   112.01637301    65.91028105
 C      4   3   2     2.847483343880   110.32359211   296.91683210
 O      5   4   3     2.265078416437   124.87234197   127.30653637
 H      1   2   3     1.828503655681   103.68280628   223.70990125
 H      3   2   1     2.063499463626   103.34306654   185.70400766
 H      3   2   1     2.073617278315   110.09450892   302.80649435
 H      4   3   2     2.061817520812   108.66373481   178.27582754
 H      4   3   2     2.062380067654   110.40253189    58.15405732
 H      5   4   3     2.090381716536   113.55692294   305.92216701

---------------------
BASIS SET INFORMATION
---------------------
There are 3 groups of distinct atoms

 Group   1 Type O   : 11s6p2d contracted to 5s3p2d pattern {62111/411/11}
 Group   2 Type C   : 11s6p1d contracted to 5s3p1d pattern {62111/411/1}
 Group   3 Type H   : 5s contracted to 3s pattern {311}

Atom   0O    basis set group =>   1
Atom   1O    basis set group =>   1
Atom   2C    basis set group =>   2
Atom   3C    basis set group =>   2
Atom   4C    basis set group =>   2
Atom   5O    basis set group =>   1
Atom   6H    basis set group =>   3
Atom   7H    basis set group =>   3
Atom   8H    basis set group =>   3
Atom   9H    basis set group =>   3
Atom  10H    basis set group =>   3
Atom  11H    basis set group =>   3
---------------------------------
AUXILIARY/J BASIS SET INFORMATION
---------------------------------
There are 3 groups of distinct atoms

 Group   1 Type O   : 8s3p3d contracted to 6s3p3d pattern {311111/111/111}
 Group   2 Type C   : 8s3p3d contracted to 6s3p3d pattern {311111/111/111}
 Group   3 Type H   : 5s2p contracted to 3s1p pattern {311/2}

Atom   0O    basis set group =>   1
Atom   1O    basis set group =>   1
Atom   2C    basis set group =>   2
Atom   3C    basis set group =>   2
Atom   4C    basis set group =>   2
Atom   5O    basis set group =>   1
Atom   6H    basis set group =>   3
Atom   7H    basis set group =>   3
Atom   8H    basis set group =>   3
Atom   9H    basis set group =>   3
Atom  10H    basis set group =>   3
Atom  11H    basis set group =>   3


           ************************************************************
           *        Program running with 4 parallel MPI-processes     *
           *              working on a common directory               *
           ************************************************************
------------------------------------------------------------------------------
                           ORCA GTO INTEGRAL CALCULATION
                           -- RI-GTO INTEGRALS CHOSEN --
------------------------------------------------------------------------------
------------------------------------------------------------------------------
                   ___                                                        
                  /   \      - P O W E R E D   B Y -                         
                 /     \                                                     
                 |  |  |   _    _      __       _____    __    __             
                 |  |  |  | |  | |    /  \     |  _  \  |  |  /  |          
                  \  \/   | |  | |   /    \    | | | |  |  | /  /          
                 / \  \   | |__| |  /  /\  \   | |_| |  |  |/  /          
                |  |  |   |  __  | /  /__\  \  |    /   |      \           
                |  |  |   | |  | | |   __   |  |    \   |  |\   \          
                \     /   | |  | | |  |  |  |  | |\  \  |  | \   \       
                 \___/    |_|  |_| |__|  |__|  |_| \__\ |__|  \__/        
                                                                              
                      - O R C A' S   B I G   F R I E N D -                    
                                      &                                       
                       - I N T E G R A L  F E E D E R -                       
                                                                              
 v1 FN, 2020, v2 2021                                                         
------------------------------------------------------------------------------


Reading SHARK input file XSASRUDTFFBDDK-UHFFFAOYSA-N.SHARKINP.tmp ... ok
----------------------
SHARK INTEGRAL PACKAGE
----------------------

Number of atoms                             ...     12
Number of basis functions                   ...    147
Number of shells                            ...     75
Maximum angular momentum                    ...      2
Integral batch strategy                     ... SHARK/LIBINT Hybrid
RI-J (if used) integral strategy            ... SPLIT-RIJ (Revised 2003 algorithm where possible)
Printlevel                                  ...      1
Contraction scheme used                     ... SEGMENTED contraction
Coulomb Range Separation                    ... NOT USED
Exchange Range Separation                   ... NOT USED
Finite Nucleus Model                        ... NOT USED
Auxiliary Coulomb fitting basis             ... AVAILABLE
   # of basis functions in Aux-J            ...    216
   # of shells in Aux-J                     ...     96
   Maximum angular momentum in Aux-J        ...      2
Auxiliary J/K fitting basis                 ... NOT available
Auxiliary Correlation fitting basis         ... NOT available
Auxiliary 'external' fitting basis          ... NOT available
Integral threshold                          ...     2.500000e-11
Primitive cut-off                           ...     2.500000e-12
Primitive pair pre-selection threshold      ...     2.500000e-12

Calculating pre-screening integrals         ... done (  0.0 sec) Dimension = 75
Organizing shell pair data                  ... done (  0.0 sec)
Shell pair information
Total number of shell pairs                 ...      2850
Shell pairs after pre-screening             ...      2717
Total number of primitive shell pairs       ...     10161
Primitive shell pairs kept                  ...      7247
          la=0 lb=0:   1078 shell pairs
          la=1 lb=0:    840 shell pairs
          la=1 lb=1:    170 shell pairs
          la=2 lb=0:    422 shell pairs
          la=2 lb=1:    162 shell pairs
          la=2 lb=2:     45 shell pairs

Calculating one electron integrals          ... done (  0.0 sec)
Calculating RI/J V-Matrix + Cholesky decomp.... done (  0.0 sec)
Calculating Nuclear repulsion               ... done (  0.0 sec) ENN=    247.153819942216 Eh

SHARK setup successfully completed in   0.1 seconds

Maximum memory used throughout the entire GTOINT-calculation: 7.7 MB


           ************************************************************
           *        Program running with 4 parallel MPI-processes     *
           *              working on a common directory               *
           ************************************************************
-------------------------------------------------------------------------------
                                 ORCA SCF
-------------------------------------------------------------------------------

------------
SCF SETTINGS
------------
Hamiltonian:
 Density Functional     Method          .... DFT(GTOs)
 Exchange Functional    Exchange        .... B973C
 Correlation Functional Correlation     .... B973C
 Gradients option       PostSCFGGA      .... off
   Density functional embedding theory  .... OFF
 RI-approximation to the Coulomb term is turned on
   Number of AuxJ basis functions       .... 216


General Settings:
 Integral files         IntName         .... XSASRUDTFFBDDK-UHFFFAOYSA-N
 Hartree-Fock type      HFTyp           .... RHF
 Total Charge           Charge          ....    0
 Multiplicity           Mult            ....    1
 Number of Electrons    NEL             ....   48
 Basis Dimension        Dim             ....  147
 Nuclear Repulsion      ENuc            ....    247.1538199422 Eh

Convergence Acceleration:
 DIIS                   CNVDIIS         .... on
   Start iteration      DIISMaxIt       ....    12
   Startup error        DIISStart       ....  0.200000
   # of expansion vecs  DIISMaxEq       ....     5
   Bias factor          DIISBfac        ....   1.050
   Max. coefficient     DIISMaxC        ....  10.000
 Trust-Rad. Augm. Hess. CNVTRAH         .... auto
   Auto Start mean grad. ratio tolernc. ....  1.125000
   Auto Start start iteration           ....    20
   Auto Start num. interpolation iter.  ....    10
   Max. Number of Micro iterations      ....    16
   Max. Number of Macro iterations      .... Maxiter - #DIIS iter
   Number of Davidson start vectors     ....     2
   Converg. threshold I  (grad. norm)   ....   1.000e-05
   Converg. threshold II (energy diff.) ....   1.000e-08
   Grad. Scal. Fac. for Micro threshold ....   0.100
   Minimum threshold for Micro iter.    ....   0.010
   NR start threshold (gradient norm)   ....   0.001
   Initial trust radius                 ....   0.400
   Minimum AH scaling param. (alpha)    ....   1.000
   Maximum AH scaling param. (alpha)    .... 1000.000
   Orbital update algorithm             .... Taylor
   White noise on init. David. guess    .... on
   Maximum white noise                  ....   0.010
   Quad. conv. algorithm                .... NR
   COSX micro iterations for RIJONX calc.... off
 SOSCF                  CNVSOSCF        .... on
   Start iteration      SOSCFMaxIt      ....   150
   Startup grad/error   SOSCFStart      ....  0.003300
 Level Shifting         CNVShift        .... on
   Level shift para.    LevelShift      ....    0.2500
   Turn off err/grad.   ShiftErr        ....    0.0010
 Zerner damping         CNVZerner       .... off
 Static damping         CNVDamp         .... on
   Fraction old density DampFac         ....    0.7000
   Max. Damping (<1)    DampMax         ....    0.9800
   Min. Damping (>=0)   DampMin         ....    0.0000
   Turn off err/grad.   DampErr         ....    0.1000
 Fernandez-Rico         CNVRico         .... off

SCF Procedure:
 Maximum # iterations   MaxIter         ....   125
 SCF integral mode      SCFMode         .... Direct
   Integral package                     .... SHARK and LIBINT hybrid scheme
 Reset frequency        DirectResetFreq ....    20
 Integral Threshold     Thresh          ....  2.500e-11 Eh
 Primitive CutOff       TCut            ....  2.500e-12 Eh

Convergence Tolerance:
 Convergence Check Mode ConvCheckMode   .... Total+1el-Energy
 Convergence forced     ConvForced      .... 0
 Energy Change          TolE            ....  1.000e-08 Eh
 1-El. energy change                    ....  1.000e-05 Eh
 Orbital Gradient       TolG            ....  1.000e-05
 Orbital Rotation angle TolX            ....  1.000e-05
 DIIS Error             TolErr          ....  5.000e-07


Diagonalization of the overlap matrix:
Smallest eigenvalue                        ... 2.169e-04
Time for diagonalization                   ...    0.003 sec
Threshold for overlap eigenvalues          ... 1.000e-08
Number of eigenvalues below threshold      ... 0
Time for construction of square roots      ...    0.002 sec
Total time needed                          ...    0.006 sec

--------------------------------
INITIAL GUESS: MINIMAL BASIS EHT
--------------------------------
The minimal basis has 36 functions
EHT matrix was diagonalized
Basis set overlap was calculated now projecting the orbitals
Using GuessMode=FMatrix for the initial guess
C*T matrix was formed
Effective Fockian was calculated
Effective Fockian was diagonalized
Initial density was built
                      ------------------
                      INITIAL GUESS DONE
                      ------------------
-------------------
DFT GRID GENERATION
-------------------

General Integration Accuracy     IntAcc      ... 4.388
Radial Grid Type                 RadialGrid  ... OptM3 with GC (2021)
Angular Grid (max. ang.)         AngularGrid ... 4 (Lebedev-302)
Angular grid pruning method      GridPruning ... 4 (adaptive)
Weight generation scheme         WeightScheme... Becke
Basis function cutoff            BFCut       ... 1.0000e-11
Integration weight cutoff        WCut        ... 1.0000e-14
Angular grids for H and He will be reduced by one unit
Partially contracted basis set               ... off
Rotationally invariant grid construction     ... off

Total number of grid points                  ...    56647
Total number of batches                      ...      892
Average number of points per batch           ...       63
Average number of grid points per atom       ...     4721
Time for grid setup =    0.290 sec

--------------
SCF ITERATIONS
--------------
ITER       Energy         Delta-E        Max-DP      RMS-DP      [F,P]     Damp
               ***  Starting incremental Fock matrix formation  ***
  0   -342.1493287907   0.000000000000 1.54852846  0.01727814  0.4382066 0.7000
  1   -342.5561449827  -0.406816191965 0.12496354  0.00377345  0.3111949 0.7000
  2   -342.7614563814  -0.205311398714 0.29511552  0.00364857  0.2182600 0.7000
                               ***Turning on DIIS***
  3   -342.9227075198  -0.161251138366 0.30395193  0.00344554  0.1518429 0.7000
  4   -343.0350677816  -0.112360261841 0.21647568  0.00240809  0.1054835 0.7000
  5   -343.1123865825  -0.077318800848 0.55638752  0.00614131  0.0741519 0.0000
  6   -343.2950624445  -0.182675862031 0.01985497  0.00026209  0.0045572 0.0000
  7   -343.2950813378  -0.000018893317 0.00781733  0.00011040  0.0044045 0.0000
                      *** Initiating the SOSCF procedure ***
                           *** Shutting down DIIS ***
                      *** Re-Reading the Fockian *** 
                      *** Removing any level shift *** 
ITER      Energy       Delta-E        Grad      Rot      Max-DP    RMS-DP
  8   -343.29513492  -0.0000535856  0.000164  0.000164  0.003906  0.000060
               *** Restarting incremental Fock matrix formation ***
  9   -343.29513562  -0.0000007008  0.000209  0.000701  0.000701  0.000031
 10   -343.29512876   0.0000068656  0.000592  0.000569  0.001131  0.000026
 11   -343.29513693  -0.0000081701  0.000071  0.000195  0.001136  0.000018
 12   -343.29513663   0.0000002977  0.000122  0.000138  0.000695  0.000011
 13   -343.29513705  -0.0000004203  0.000027  0.000069  0.000120  0.000003
 14   -343.29513699   0.0000000574  0.000062  0.000046  0.000083  0.000002
 15   -343.29513707  -0.0000000719  0.000004  0.000018  0.000049  0.000001
 16   -343.29513707  -0.0000000005  0.000006  0.000013  0.000037  0.000001
                  ***Gradient check signals convergence***
              ***Rediagonalizing the Fockian in SOSCF/NRSCF***

               *****************************************************
               *                     SUCCESS                       *
               *           SCF CONVERGED AFTER  17 CYCLES          *
               *****************************************************


----------------
TOTAL SCF ENERGY
----------------

Total Energy       :         -343.29513707 Eh           -9341.53559 eV

Components:
Nuclear Repulsion  :          247.15381994 Eh            6725.39735 eV
Electronic Energy  :         -590.44895701 Eh          -16066.93295 eV
One Electron Energy:         -959.16546034 Eh          -26100.21909 eV
Two Electron Energy:          368.71650334 Eh           10033.28614 eV

Virial components:
Potential Energy   :         -685.43937796 Eh          -18651.75371 eV
Kinetic Energy     :          342.14424089 Eh            9310.21812 eV
Virial Ratio       :            2.00336377


DFT components:
N(Alpha)           :       24.000019267452 electrons
N(Beta)            :       24.000019267452 electrons
N(Total)           :       48.000038534905 electrons
E(XC)              :      -43.952784547095 Eh       
DFET-embed. en.    :        0.000000000000 Eh       

---------------
SCF CONVERGENCE
---------------

  Last Energy change         ...   -8.1451e-10  Tolerance :   1.0000e-08
  Last MAX-Density change    ...    1.0629e-05  Tolerance :   1.0000e-07
  Last RMS-Density change    ...    1.7215e-07  Tolerance :   5.0000e-09
  Last Orbital Gradient      ...    2.4859e-07  Tolerance :   1.0000e-05
  Last Orbital Rotation      ...    9.5147e-07  Tolerance :   1.0000e-05

             **** THE GBW FILE WAS UPDATED (XSASRUDTFFBDDK-UHFFFAOYSA-N.gbw) ****
             **** DENSITY XSASRUDTFFBDDK-UHFFFAOYSA-N.scfp WAS UPDATED ****
             **** ENERGY FILE WAS UPDATED (XSASRUDTFFBDDK-UHFFFAOYSA-N.en.tmp) ****
             **** THE GBW FILE WAS UPDATED (XSASRUDTFFBDDK-UHFFFAOYSA-N.gbw) ****
             **** DENSITY XSASRUDTFFBDDK-UHFFFAOYSA-N.scfp WAS UPDATED ****
----------------
ORBITAL ENERGIES
----------------

  NO   OCC          E(Eh)            E(eV) 
   0   2.0000     -18.815600      -511.9985 
   1   2.0000     -18.813367      -511.9378 
   2   2.0000     -18.736000      -509.8325 
   3   2.0000      -9.976439      -271.4727 
   4   2.0000      -9.963770      -271.1280 
   5   2.0000      -9.909360      -269.6474 
   6   2.0000      -1.063910       -28.9505 
   7   2.0000      -0.968293       -26.3486 
   8   2.0000      -0.862270       -23.4636 
   9   2.0000      -0.717504       -19.5243 
  10   2.0000      -0.601408       -16.3651 
  11   2.0000      -0.528648       -14.3853 
  12   2.0000      -0.509519       -13.8647 
  13   2.0000      -0.457488       -12.4489 
  14   2.0000      -0.429374       -11.6839 
  15   2.0000      -0.413094       -11.2409 
  16   2.0000      -0.409298       -11.1376 
  17   2.0000      -0.370190       -10.0734 
  18   2.0000      -0.351818        -9.5735 
  19   2.0000      -0.344399        -9.3716 
  20   2.0000      -0.331425        -9.0185 
  21   2.0000      -0.287468        -7.8224 
  22   2.0000      -0.217504        -5.9186 
  23   2.0000      -0.209484        -5.7004 
  24   0.0000      -0.053798        -1.4639 
  25   0.0000      -0.028849        -0.7850 
  26   0.0000       0.020896         0.5686 
  27   0.0000       0.041244         1.1223 
  28   0.0000       0.057139         1.5548 
  29   0.0000       0.069152         1.8817 
  30   0.0000       0.087264         2.3746 
  31   0.0000       0.092535         2.5180 
  32   0.0000       0.115543         3.1441 
  33   0.0000       0.130420         3.5489 
  34   0.0000       0.143202         3.8967 
  35   0.0000       0.172475         4.6933 
  36   0.0000       0.195148         5.3103 
  37   0.0000       0.204682         5.5697 
  38   0.0000       0.235170         6.3993 
  39   0.0000       0.244854         6.6628 
  40   0.0000       0.260776         7.0961 
  41   0.0000       0.279449         7.6042 
  42   0.0000       0.290491         7.9047 
  43   0.0000       0.297592         8.0979 
  44   0.0000       0.305587         8.3155 
  45   0.0000       0.318226         8.6594 
  46   0.0000       0.354287         9.6406 
  47   0.0000       0.356294         9.6952 
  48   0.0000       0.368082        10.0160 
  49   0.0000       0.372723        10.1423 
  50   0.0000       0.387312        10.5393 
  51   0.0000       0.397011        10.8032 
  52   0.0000       0.397436        10.8148 
  53   0.0000       0.404231        10.9997 
  54   0.0000       0.415281        11.3004 
  55   0.0000       0.417838        11.3700 
  56   0.0000       0.442407        12.0385 
  57   0.0000       0.448645        12.2083 
  58   0.0000       0.464958        12.6522 
  59   0.0000       0.475131        12.9290 
  60   0.0000       0.482539        13.1306 
  61   0.0000       0.509492        13.8640 
  62   0.0000       0.518511        14.1094 
  63   0.0000       0.520184        14.1549 
  64   0.0000       0.546256        14.8644 
  65   0.0000       0.562209        15.2985 
  66   0.0000       0.626533        17.0488 
  67   0.0000       0.639117        17.3912 
  68   0.0000       0.667432        18.1617 
  69   0.0000       0.679596        18.4927 
  70   0.0000       0.718493        19.5512 
  71   0.0000       0.765014        20.8171 
  72   0.0000       0.768950        20.9242 
  73   0.0000       0.787249        21.4221 
  74   0.0000       0.824783        22.4435 
  75   0.0000       0.842858        22.9353 
  76   0.0000       0.851545        23.1717 
  77   0.0000       0.891475        24.2583 
  78   0.0000       0.900502        24.5039 
  79   0.0000       0.959987        26.1226 
  80   0.0000       1.088181        29.6109 
  81   0.0000       1.305690        35.5296 
  82   0.0000       1.313433        35.7403 
  83   0.0000       1.370256        37.2866 
  84   0.0000       1.387447        37.7544 
  85   0.0000       1.416691        38.5501 
  86   0.0000       1.458478        39.6872 
  87   0.0000       1.481375        40.3103 
  88   0.0000       1.490531        40.5594 
  89   0.0000       1.536742        41.8169 
  90   0.0000       1.572885        42.8004 
  91   0.0000       1.601475        43.5784 
  92   0.0000       1.606151        43.7056 
  93   0.0000       1.668896        45.4130 
  94   0.0000       1.677617        45.6503 
  95   0.0000       1.697873        46.2015 
  96   0.0000       1.724936        46.9379 
  97   0.0000       1.740063        47.3495 
  98   0.0000       1.761657        47.9371 
  99   0.0000       1.798523        48.9403 
 100   0.0000       1.861345        50.6498 
 101   0.0000       1.882897        51.2362 
 102   0.0000       1.918754        52.2120 
 103   0.0000       1.939283        52.7706 
 104   0.0000       1.955727        53.2180 
 105   0.0000       1.981466        53.9184 
 106   0.0000       2.023856        55.0719 
 107   0.0000       2.072798        56.4037 
 108   0.0000       2.119792        57.6825 
 109   0.0000       2.153791        58.6076 
 110   0.0000       2.161289        58.8117 
 111   0.0000       2.234845        60.8132 
 112   0.0000       2.298275        62.5392 
 113   0.0000       2.317528        63.0631 
 114   0.0000       2.326396        63.3045 
 115   0.0000       2.365646        64.3725 
 116   0.0000       2.432366        66.1881 
 117   0.0000       2.470258        67.2191 
 118   0.0000       2.471049        67.2407 
 119   0.0000       2.481184        67.5165 
 120   0.0000       2.558253        69.6136 
 121   0.0000       2.592040        70.5330 
 122   0.0000       2.636648        71.7468 
 123   0.0000       2.685012        73.0629 
 124   0.0000       2.732085        74.3438 
 125   0.0000       2.755234        74.9737 
 126   0.0000       2.784787        75.7779 
 127   0.0000       2.814068        76.5747 
 128   0.0000       2.833457        77.1023 
 129   0.0000       2.892630        78.7125 
 130   0.0000       2.933109        79.8140 
 131   0.0000       2.950393        80.2843 
 132   0.0000       3.041524        82.7641 
 133   0.0000       3.089232        84.0623 
 134   0.0000       3.122740        84.9741 
 135   0.0000       3.150756        85.7364 
 136   0.0000       3.229845        87.8886 
 137   0.0000       3.499712        95.2320 
 138   0.0000       3.716540       101.1322 
 139   0.0000       3.921130       106.6994 
 140   0.0000       4.290181       116.7418 
 141   0.0000      21.673046       589.7536 
 142   0.0000      21.854272       594.6850 
 143   0.0000      22.005482       598.7996 
 144   0.0000      43.176844      1174.9017 
 145   0.0000      43.305705      1178.4081 
 146   0.0000      43.698745      1189.1033 

                    ********************************
                    * MULLIKEN POPULATION ANALYSIS *
                    ********************************

-----------------------
MULLIKEN ATOMIC CHARGES
-----------------------
   0 O :   -0.454905
   1 O :   -0.082290
   2 C :   -0.264815
   3 C :   -0.223809
   4 C :    0.101722
   5 O :   -0.312151
   6 H :    0.441466
   7 H :    0.192919
   8 H :    0.174102
   9 H :    0.174913
  10 H :    0.164013
  11 H :    0.088835
Sum of atomic charges:   -0.0000000

--------------------------------
MULLIKEN REDUCED ORBITAL CHARGES
--------------------------------
  0 O s       :     3.892130  s :     3.892130
      pz      :     1.522693  p :     4.488296
      px      :     1.727059
      py      :     1.238544
      dz2     :     0.015148  d :     0.074479
      dxz     :     0.009564
      dyz     :     0.024125
      dx2y2   :     0.016812
      dxy     :     0.008830
  1 O s       :     3.802730  s :     3.802730
      pz      :     1.648146  p :     4.232781
      px      :     1.593642
      py      :     0.990992
      dz2     :     0.007408  d :     0.046779
      dxz     :     0.006937
      dyz     :     0.009581
      dx2y2   :     0.009293
      dxy     :     0.013560
  2 C s       :     3.277346  s :     3.277346
      pz      :     1.079322  p :     2.922262
      px      :     0.992846
      py      :     0.850094
      dz2     :     0.018009  d :     0.065207
      dxz     :     0.006784
      dyz     :     0.011030
      dx2y2   :     0.012124
      dxy     :     0.017260
  3 C s       :     3.084616  s :     3.084616
      pz      :     1.121625  p :     3.098722
      px      :     0.944978
      py      :     1.032119
      dz2     :     0.011771  d :     0.040471
      dxz     :     0.005834
      dyz     :     0.005967
      dx2y2   :     0.008289
      dxy     :     0.008610
  4 C s       :     3.206223  s :     3.206223
      pz      :     0.981237  p :     2.606173
      px      :     0.805375
      py      :     0.819562
      dz2     :     0.030443  d :     0.085883
      dxz     :     0.013981
      dyz     :     0.012204
      dx2y2   :     0.013747
      dxy     :     0.015507
  5 O s       :     3.847497  s :     3.847497
      pz      :     1.627270  p :     4.438095
      px      :     1.363700
      py      :     1.447124
      dz2     :     0.003964  d :     0.026560
      dxz     :     0.005433
      dyz     :     0.004886
      dx2y2   :     0.004906
      dxy     :     0.007370
  6 H s       :     0.558534  s :     0.558534
  7 H s       :     0.807081  s :     0.807081
  8 H s       :     0.825898  s :     0.825898
  9 H s       :     0.825087  s :     0.825087
 10 H s       :     0.835987  s :     0.835987
 11 H s       :     0.911165  s :     0.911165


                     *******************************
                     * LOEWDIN POPULATION ANALYSIS *
                     *******************************

----------------------
LOEWDIN ATOMIC CHARGES
----------------------
   0 O :   -0.343301
   1 O :   -0.484877
   2 C :    0.054024
   3 C :   -0.255212
   4 C :    0.216447
   5 O :   -0.457341
   6 H :    0.384426
   7 H :    0.199375
   8 H :    0.177185
   9 H :    0.180905
  10 H :    0.180893
  11 H :    0.147476

-------------------------------
LOEWDIN REDUCED ORBITAL CHARGES
-------------------------------
  0 O s       :     3.520224  s :     3.520224
      pz      :     1.501364  p :     4.446524
      px      :     1.675892
      py      :     1.269269
      dz2     :     0.051786  d :     0.376553
      dxz     :     0.041020
      dyz     :     0.106787
      dx2y2   :     0.083261
      dxy     :     0.093699
  1 O s       :     3.470776  s :     3.470776
      pz      :     1.648982  p :     4.405811
      px      :     1.602666
      py      :     1.154163
      dz2     :     0.091332  d :     0.608290
      dxz     :     0.053311
      dyz     :     0.154818
      dx2y2   :     0.157139
      dxy     :     0.151691
  2 C s       :     2.865196  s :     2.865196
      pz      :     1.047457  p :     2.954269
      px      :     1.011416
      py      :     0.895396
      dz2     :     0.033065  d :     0.126511
      dxz     :     0.011399
      dyz     :     0.022670
      dx2y2   :     0.025288
      dxy     :     0.034088
  3 C s       :     2.944268  s :     2.944268
      pz      :     1.125184  p :     3.239525
      px      :     1.039637
      py      :     1.074704
      dz2     :     0.019282  d :     0.071418
      dxz     :     0.010673
      dyz     :     0.010265
      dx2y2   :     0.015646
      dxy     :     0.015553
  4 C s       :     2.871511  s :     2.871511
      pz      :     1.015679  p :     2.728307
      px      :     0.837976
      py      :     0.874652
      dz2     :     0.060033  d :     0.183735
      dxz     :     0.033045
      dyz     :     0.026548
      dx2y2   :     0.024659
      dxy     :     0.039450
  5 O s       :     3.555762  s :     3.555762
      pz      :     1.712619  p :     4.645277
      px      :     1.432601
      py      :     1.500057
      dz2     :     0.063952  d :     0.256301
      dxz     :     0.052663
      dyz     :     0.039640
      dx2y2   :     0.032939
      dxy     :     0.067108
  6 H s       :     0.615574  s :     0.615574
  7 H s       :     0.800625  s :     0.800625
  8 H s       :     0.822815  s :     0.822815
  9 H s       :     0.819095  s :     0.819095
 10 H s       :     0.819107  s :     0.819107
 11 H s       :     0.852524  s :     0.852524


                      *****************************
                      * MAYER POPULATION ANALYSIS *
                      *****************************

  NA   - Mulliken gross atomic population
  ZA   - Total nuclear charge
  QA   - Mulliken gross atomic charge
  VA   - Mayer's total valence
  BVA  - Mayer's bonded valence
  FA   - Mayer's free valence

  ATOM       NA         ZA         QA         VA         BVA        FA
  0 O      8.4549     8.0000    -0.4549     1.8603     1.8603    -0.0000
  1 O      8.0823     8.0000    -0.0823     1.8690     1.8690    -0.0000
  2 C      6.2648     6.0000    -0.2648     3.8412     3.8412     0.0000
  3 C      6.2238     6.0000    -0.2238     3.4735     3.4735    -0.0000
  4 C      5.8983     6.0000     0.1017     3.9987     3.9987     0.0000
  5 O      8.3122     8.0000    -0.3122     2.1315     2.1315    -0.0000
  6 H      0.5585     1.0000     0.4415     0.7842     0.7842    -0.0000
  7 H      0.8071     1.0000     0.1929     0.9459     0.9459    -0.0000
  8 H      0.8259     1.0000     0.1741     0.9378     0.9378    -0.0000
  9 H      0.8251     1.0000     0.1749     0.9526     0.9526    -0.0000
 10 H      0.8360     1.0000     0.1640     0.9841     0.9841     0.0000
 11 H      0.9112     1.0000     0.0888     0.9404     0.9404    -0.0000

  Mayer bond orders larger than 0.100000
B(  0-O ,  1-O ) :   0.9537 B(  0-O ,  6-H ) :   0.7620 B(  1-O ,  2-C ) :   0.9278 
B(  2-C ,  3-C ) :   0.9511 B(  2-C ,  7-H ) :   0.9389 B(  2-C ,  8-H ) :   0.9383 
B(  3-C ,  4-C ) :   0.8991 B(  3-C ,  9-H ) :   0.9093 B(  3-C , 10-H ) :   0.9295 
B(  4-C ,  5-O ) :   2.1089 B(  4-C , 11-H ) :   0.9001 

-------
TIMINGS
-------

Total SCF time: 0 days 0 hours 0 min 3 sec 

Total time                  ....       3.617 sec
Sum of individual times     ....       3.482 sec  ( 96.3%)

Fock matrix formation       ....       3.072 sec  ( 84.9%)
  Split-RI-J                ....       0.559 sec  ( 18.2% of F)
  XC integration            ....       2.421 sec  ( 78.8% of F)
    Basis function eval.    ....       0.795 sec  ( 32.8% of XC)
    Density eval.           ....       0.543 sec  ( 22.4% of XC)
    XC-Functional eval.     ....       0.272 sec  ( 11.2% of XC)
    XC-Potential eval.      ....       0.582 sec  ( 24.0% of XC)
Diagonalization             ....       0.041 sec  (  1.1%)
Density matrix formation    ....       0.003 sec  (  0.1%)
Population analysis         ....       0.009 sec  (  0.2%)
Initial guess               ....       0.007 sec  (  0.2%)
Orbital Transformation      ....       0.000 sec  (  0.0%)
Orbital Orthonormalization  ....       0.000 sec  (  0.0%)
DIIS solution               ....       0.030 sec  (  0.8%)
SOSCF solution              ....       0.031 sec  (  0.9%)
Grid generation             ....       0.290 sec  (  8.0%)

Maximum memory used throughout the entire SCF-calculation: 16.3 MB


-------------------------------------------------------------------------------
                          DFT DISPERSION CORRECTION                            
                                                                               
                              DFTD3 V3.1  Rev 1                                
                          USING Becke-Johnson damping                          
-------------------------------------------------------------------------------
The B97-3c composite method is recognized
Using three-body term ABC
Active option DFTDOPT                   ...         4   

molecular C6(AA) [au] = 1154.022759 


            DFT-D V3
 parameters
 s6 scaling factor         :     1.0000 
 a1 scaling factor         :     0.3700 
 s8 scaling factor         :     1.5000 
 a2 scaling factor         :     4.1000 
 Damping factor alpha9(ATM):    16.0000 
 ad hoc parameters k1-k3   :    16.0000     1.3333    -4.0000 

 Edisp/kcal,au: -12.085251525106  -0.019259072150 
 E6   /kcal   :  -6.312547961 
 E8   /kcal   :  -5.787877836 
 E6(ABC)      :   0.015174271 
 % E8         :  47.892075921 
 % E6(ABC)    :  -0.125560243 

-------------------------   ----------------
Dispersion correction           -0.019259072
-------------------------   ----------------

------------------   -----------------
SRB correction            -0.029339992
------------------   -----------------

-------------------------   --------------------
FINAL SINGLE POINT ENERGY      -343.343736131681
-------------------------   --------------------



           ************************************************************
           *        Program running with 4 parallel MPI-processes     *
           *              working on a common directory               *
           ************************************************************
------------------------------------------------------------------------------
                         ORCA SCF GRADIENT CALCULATION
------------------------------------------------------------------------------

Gradient of the Kohn-Sham DFT energy:
Kohn-Sham wavefunction type      ... RKS
Hartree-Fock exchange scaling    ...    0.000
Number of operators              ...    1
Number of atoms                  ...   12
Basis set dimensions             ...  147
Integral neglect threshold       ... 2.5e-11
Integral primitive cutoff        ... 2.5e-12
SHARK Integral package           ... ON

Nuc. rep. gradient       (SHARK) ... done (  0.0 sec)
HCore & Overlap gradient (SHARK) ... done (  0.0 sec)
RI-J gradient            (SHARK) ... done (  0.1 sec)
Exchange-correlation gradient    ... done
Dispersion correction            ... done
SRB correction                   ... done

------------------
CARTESIAN GRADIENT
------------------

   1   O   :   -0.007779668   -0.011867364    0.020511036
   2   O   :    0.021518619    0.005995608   -0.021063024
   3   C   :   -0.013901772    0.001347326    0.004525637
   4   C   :    0.006524964   -0.005259012   -0.002084105
   5   C   :    0.009264874    0.011200944    0.005618693
   6   O   :   -0.013357780   -0.008376559   -0.008732659
   7   H   :   -0.000177567    0.004853053   -0.005454023
   8   H   :   -0.000592547   -0.001601122    0.002048122
   9   H   :    0.001492511    0.001969505   -0.001343698
  10   H   :   -0.000304328    0.001271698    0.000525154
  11   H   :   -0.000966551    0.001197500    0.002217641
  12   H   :   -0.001720755   -0.000731578    0.003231225

Difference to translation invariance:
           :   -0.0000000000    0.0000000000    0.0000000000

Difference to rotation invariance:
           :    0.0000665886   -0.0000316358    0.0002339901

Norm of the cartesian gradient     ...    0.0501410685
RMS gradient                       ...    0.0083568448
MAX gradient                       ...    0.0215186194

-------
TIMINGS
-------

Total SCF gradient time            ...        1.139 sec

One electron gradient       ....       0.031 sec  (  2.7%)
RI-J Coulomb gradient       ....       0.142 sec  ( 12.4%)
XC gradient                 ....       0.878 sec  ( 77.1%)

Maximum memory used throughout the entire SCFGRAD-calculation: 27.3 MB
------------------------------------------------------------------------------
                         ORCA GEOMETRY RELAXATION STEP
------------------------------------------------------------------------------

Reading the OPT-File                    .... done
Getting information on internals        .... done
Copying old internal coords+grads       .... done
Making the new internal coordinates     .... (new redundants).... done
Validating the new internal coordinates .... (new redundants).... done
Calculating the B-matrix                .... done
Calculating the G,G- and P matrices     .... done
Transforming gradient to internals      .... done
Projecting the internal gradient        .... done
Number of atoms                         ....  12
Number of internal coordinates          ....  47
Current Energy                          ....  -343.343736132 Eh
Current gradient norm                   ....     0.050141069 Eh/bohr
Maximum allowed component of the step   ....  0.300
Current trust radius                    ....  0.300
Evaluating the initial hessian          ....  (Almloef) done
Projecting the Hessian                  .... done
Forming the augmented Hessian           .... done
Diagonalizing the augmented Hessian     .... done
Last element of RFO vector              ....  0.939046446
Lowest eigenvalues of augmented Hessian:
 -0.006548888  0.010913265  0.012265182  0.012586747  0.016139413
Length of the computed step             ....  0.366105748
Warning: the length of the step is outside the trust region - taking restricted step instead
The input lambda is                     ....    -0.006549
   iter:   1  x=   -0.010475  g=   11.214603 f(x)=     0.044033
   iter:   2  x=   -0.011894  g=    6.801867 f(x)=     0.009648
   iter:   3  x=   -0.012021  g=    5.796179 f(x)=     0.000739
   iter:   4  x=   -0.012022  g=    5.715991 f(x)=     0.000005
   iter:   5  x=   -0.012022  g=    5.715432 f(x)=     0.000000
   iter:   6  x=   -0.012022  g=    5.715432 f(x)=     0.000000
The output lambda is                    ....    -0.012022 (6 iterations)
The final length of the internal step   ....  0.300000000
Converting the step to cartesian space:
 Initial RMS(Int)=    0.0437594974
Transforming coordinates:
 Iter   0:  RMS(Cart)=    0.0819482997 RMS(Int)=    0.0437072668
 Iter   1:  RMS(Cart)=    0.0073685956 RMS(Int)=    0.0055733610
 Iter   2:  RMS(Cart)=    0.0014110661 RMS(Int)=    0.0011384632
 Iter   3:  RMS(Cart)=    0.0003734708 RMS(Int)=    0.0002380027
 Iter   4:  RMS(Cart)=    0.0000744750 RMS(Int)=    0.0000672503
 Iter   5:  RMS(Cart)=    0.0000194072 RMS(Int)=    0.0000105514
 Iter   6:  RMS(Cart)=    0.0000037853 RMS(Int)=    0.0000035850
 Iter   7:  RMS(Cart)=    0.0000009717 RMS(Int)=    0.0000005085
 Iter   8:  RMS(Cart)=    0.0000001972 RMS(Int)=    0.0000001796
 Iter   9:  RMS(Cart)=    0.0000000475 RMS(Int)=    0.0000000281
done
Storing new coordinates                 .... done

                                .--------------------.
          ----------------------|Geometry convergence|-------------------------
          Item                value                   Tolerance       Converged
          ---------------------------------------------------------------------
          RMS gradient        0.0058004734            0.0001000000      NO
          MAX gradient        0.0178421349            0.0003000000      NO
          RMS step            0.0437594974            0.0020000000      NO
          MAX step            0.2053403456            0.0040000000      NO
          ........................................................
          Max(Bonds)      0.0177      Max(Angles)    2.58
          Max(Dihed)       11.77      Max(Improp)    0.00
          ---------------------------------------------------------------------

The optimization has not yet converged - more geometry cycles are needed


    ---------------------------------------------------------------------------
                         Redundant Internal Coordinates
                            (Angstroem and degrees)

        Definition                    Value    dE/dq     Step     New-Value
    ----------------------------------------------------------------------------
     1. B(O   1,O   0)                1.4223 -0.015309  0.0177    1.4400   
     2. B(C   2,O   1)                1.4027 -0.008222  0.0080    1.4106   
     3. B(C   3,C   2)                1.5335 -0.000247  0.0003    1.5339   
     4. B(C   4,C   3)                1.5068 -0.001818  0.0023    1.5091   
     5. B(O   5,C   4)                1.1986 -0.017842  0.0083    1.2069   
     6. B(H   6,O   0)                0.9676 -0.001434  0.0015    0.9691   
     7. B(H   7,C   2)                1.0920  0.002279 -0.0033    1.0887   
     8. B(H   8,C   2)                1.0973  0.001217 -0.0018    1.0955   
     9. B(H   9,C   3)                1.0911 -0.001402  0.0020    1.0931   
    10. B(H  10,C   3)                1.0914  0.002062 -0.0029    1.0884   
    11. B(H  11,C   4)                1.1062 -0.003096  0.0047    1.1108   
    12. A(O   1,O   0,H   6)          103.68  0.011823   -1.89    101.79   
    13. A(O   0,O   1,C   2)          109.13  0.015256   -2.17    106.96   
    14. A(O   1,C   2,H   7)          103.34  0.004337   -0.94    102.40   
    15. A(H   7,C   2,H   8)          109.69  0.000539   -0.89    108.81   
    16. A(O   1,C   2,C   3)          112.02 -0.010704    1.94    113.96   
    17. A(C   3,C   2,H   7)          111.20  0.003401   -0.95    110.25   
    18. A(O   1,C   2,H   8)          110.09  0.002941    0.26    110.35   
    19. A(C   3,C   2,H   8)          110.29 -0.000115    0.46    110.74   
    20. A(C   4,C   3,H  10)          109.55  0.004061   -0.16    109.39   
    21. A(C   4,C   3,H   9)          108.34  0.004669   -0.94    107.40   
    22. A(C   2,C   3,C   4)          110.32 -0.014226    2.58    112.91   
    23. A(C   2,C   3,H  10)          110.40  0.002331    0.08    110.49   
    24. A(C   2,C   3,H   9)          108.66  0.004585   -0.97    107.69   
    25. A(H   9,C   3,H  10)          109.52 -0.001335   -0.64    108.88   
    26. A(O   5,C   4,H  11)          121.56  0.001457   -0.27    121.29   
    27. A(C   3,C   4,H  11)          113.56 -0.001899    0.26    113.81   
    28. A(C   3,C   4,O   5)          124.87  0.000493   -0.11    124.76   
    29. D(C   2,O   1,O   0,H   6)   -136.29 -0.005484   11.77   -124.52   
    30. D(H   8,C   2,O   1,O   0)    -57.19  0.000758    2.96    -54.24   
    31. D(C   3,C   2,O   1,O   0)     65.91 -0.004765    5.09     71.00   
    32. D(H   7,C   2,O   1,O   0)   -174.30 -0.003509    4.37   -169.93   
    33. D(H  10,C   3,C   2,H   7)    -56.93 -0.000777   -0.23    -57.16   
    34. D(C   4,C   3,C   2,H   8)     59.91 -0.000927   -0.33     59.58   
    35. D(C   4,C   3,C   2,H   7)   -178.16  0.001980   -1.79   -179.95   
    36. D(H   9,C   3,C   2,H   8)    -58.73 -0.001040   -0.11    -58.84   
    37. D(C   4,C   3,C   2,O   1)    -63.08  0.002896   -2.36    -65.44   
    38. D(H  10,C   3,C   2,O   1)     58.15  0.000138   -0.80     57.35   
    39. D(H   9,C   3,C   2,H   7)     63.20  0.001868   -1.57     61.63   
    40. D(H  10,C   3,C   2,H   8)   -178.85 -0.003685    1.22   -177.63   
    41. D(H   9,C   3,C   2,O   1)    178.28  0.002783   -2.14    176.14   
    42. D(O   5,C   4,C   3,H   9)   -113.86 -0.002693    4.06   -109.79   
    43. D(O   5,C   4,C   3,C   2)    127.31 -0.002806    4.31    131.61   
    44. D(H  11,C   4,C   3,H  10)   -175.82  0.003225   -3.01   -178.83   
    45. D(H  11,C   4,C   3,H   9)     64.76 -0.000295   -1.58     63.18   
    46. D(H  11,C   4,C   3,C   2)    -54.08 -0.000408   -1.34    -55.42   
    47. D(O   5,C   4,C   3,H  10)      5.57  0.000827    2.64      8.20   
    ----------------------------------------------------------------------------

         *************************************************************
         *                GEOMETRY OPTIMIZATION CYCLE   2            *
         *************************************************************
---------------------------------
CARTESIAN COORDINATES (ANGSTROEM)
---------------------------------
  O     -1.054924    1.312649   -0.260907
  O     -1.630151    0.168005    0.396775
  C     -1.056753   -0.977353   -0.194219
  C      0.418749   -1.191329    0.166103
  C      1.318279   -0.106283   -0.373307
  O      2.154094    0.477173    0.272901
  H     -0.694692    1.811056    0.488036
  H     -1.665346   -1.781691    0.215548
  H     -1.190496   -0.951915   -1.281261
  H      0.737595   -2.134658   -0.284747
  H      0.541060   -1.257977    1.245572
  H      1.235446    0.038188   -1.471598

----------------------------
CARTESIAN COORDINATES (A.U.)
----------------------------
  NO LB      ZA    FRAG     MASS         X           Y           Z
   0 O     8.0000    0    15.999   -1.993517    2.480547   -0.493043
   1 O     8.0000    0    15.999   -3.080539    0.317484    0.749797
   2 C     6.0000    0    12.011   -1.996973   -1.846930   -0.367021
   3 C     6.0000    0    12.011    0.791320   -2.251286    0.313889
   4 C     6.0000    0    12.011    2.491187   -0.200845   -0.705449
   5 O     8.0000    0    15.999    4.070647    0.901726    0.515707
   6 H     1.0000    0     1.008   -1.312778    3.422401    0.922254
   7 H     1.0000    0     1.008   -3.147047   -3.366907    0.407326
   8 H     1.0000    0     1.008   -2.249711   -1.798859   -2.421233
   9 H     1.0000    0     1.008    1.393852   -4.033919   -0.538093
  10 H     1.0000    0     1.008    1.022455   -2.377232    2.353789
  11 H     1.0000    0     1.008    2.334656    0.072165   -2.780918

--------------------------------
INTERNAL COORDINATES (ANGSTROEM)
--------------------------------
 O      0   0   0     0.000000000000     0.00000000     0.00000000
 O      1   0   0     1.440014771876     0.00000000     0.00000000
 C      2   1   0     1.410640431327   106.95868262     0.00000000
 C      3   2   1     1.533858489459   113.94537872    71.00967598
 C      4   3   2     1.509120341996   112.89969503   294.54055805
 O      5   4   3     1.206893114224   124.68049427   131.61762998
 H      1   2   3     0.969068033873   101.79071348   235.47503595
 H      3   2   1     1.088692968691   102.41290945   190.06687374
 H      3   2   1     1.095534422567   110.31800930   305.75620684
 H      4   3   2     1.093067917011   107.70398855   176.13008017
 H      4   3   2     1.088418436225   110.46423332    57.34538340
 H      5   4   3     1.110844914450   113.73180356   304.58977581

---------------------------
INTERNAL COORDINATES (A.U.)
---------------------------
 O      0   0   0     0.000000000000     0.00000000     0.00000000
 O      1   0   0     2.721233547646     0.00000000     0.00000000
 C      2   1   0     2.665724088644   106.95868262     0.00000000
 C      3   2   1     2.898572473267   113.94537872    71.00967598
 C      4   3   2     2.851824149503   112.89969503   294.54055805
 O      5   4   3     2.280697458799   124.68049427   131.61762998
 H      1   2   3     1.831273189157   101.79071348   235.47503595
 H      3   2   1     2.057331554751   102.41290945   190.06687374
 H      3   2   1     2.070260028935   110.31800930   305.75620684
 H      4   3   2     2.065599008926   107.70398855   176.13008017
 H      4   3   2     2.056812763576   110.46423332    57.34538340
 H      5   4   3     2.099192665569   113.73180356   304.58977581



           ************************************************************
           *        Program running with 4 parallel MPI-processes     *
           *              working on a common directory               *
           ************************************************************
------------------------------------------------------------------------------
                   ___                                                        
                  /   \      - P O W E R E D   B Y -                         
                 /     \                                                     
                 |  |  |   _    _      __       _____    __    __             
                 |  |  |  | |  | |    /  \     |  _  \  |  |  /  |          
                  \  \/   | |  | |   /    \    | | | |  |  | /  /          
                 / \  \   | |__| |  /  /\  \   | |_| |  |  |/  /          
                |  |  |   |  __  | /  /__\  \  |    /   |      \           
                |  |  |   | |  | | |   __   |  |    \   |  |\   \          
                \     /   | |  | | |  |  |  |  | |\  \  |  | \   \       
                 \___/    |_|  |_| |__|  |__|  |_| \__\ |__|  \__/        
                                                                              
                      - O R C A' S   B I G   F R I E N D -                    
                                      &                                       
                       - I N T E G R A L  F E E D E R -                       
                                                                              
 v1 FN, 2020, v2 2021                                                         
------------------------------------------------------------------------------


Reading SHARK input file XSASRUDTFFBDDK-UHFFFAOYSA-N.SHARKINP.tmp ... ok
----------------------
SHARK INTEGRAL PACKAGE
----------------------

Number of atoms                             ...     12
Number of basis functions                   ...    147
Number of shells                            ...     75
Maximum angular momentum                    ...      2
Integral batch strategy                     ... SHARK/LIBINT Hybrid
RI-J (if used) integral strategy            ... SPLIT-RIJ (Revised 2003 algorithm where possible)
Printlevel                                  ...      1
Contraction scheme used                     ... SEGMENTED contraction
Coulomb Range Separation                    ... NOT USED
Exchange Range Separation                   ... NOT USED
Finite Nucleus Model                        ... NOT USED
Auxiliary Coulomb fitting basis             ... AVAILABLE
   # of basis functions in Aux-J            ...    216
   # of shells in Aux-J                     ...     96
   Maximum angular momentum in Aux-J        ...      2
Auxiliary J/K fitting basis                 ... NOT available
Auxiliary Correlation fitting basis         ... NOT available
Auxiliary 'external' fitting basis          ... NOT available
Integral threshold                          ...     2.500000e-11
Primitive cut-off                           ...     2.500000e-12
Primitive pair pre-selection threshold      ...     2.500000e-12

Calculating pre-screening integrals         ... done (  0.0 sec) Dimension = 75
Organizing shell pair data                  ... done (  0.0 sec)
Shell pair information
Total number of shell pairs                 ...      2850
Shell pairs after pre-screening             ...      2711
Total number of primitive shell pairs       ...     10161
Primitive shell pairs kept                  ...      7221
          la=0 lb=0:   1076 shell pairs
          la=1 lb=0:    840 shell pairs
          la=1 lb=1:    169 shell pairs
          la=2 lb=0:    419 shell pairs
          la=2 lb=1:    162 shell pairs
          la=2 lb=2:     45 shell pairs

Calculating one electron integrals          ... done (  0.0 sec)
Calculating RI/J V-Matrix + Cholesky decomp.... done (  0.0 sec)
Calculating Nuclear repulsion               ... done (  0.0 sec) ENN=    243.546994393038 Eh

SHARK setup successfully completed in   0.1 seconds

Maximum memory used throughout the entire GTOINT-calculation: 7.7 MB


           ************************************************************
           *        Program running with 4 parallel MPI-processes     *
           *              working on a common directory               *
           ************************************************************

Diagonalization of the overlap matrix:
Smallest eigenvalue                        ... 2.293e-04
Time for diagonalization                   ...    0.003 sec
Threshold for overlap eigenvalues          ... 1.000e-08
Number of eigenvalues below threshold      ... 0
Time for construction of square roots      ...    0.003 sec
Total time needed                          ...    0.006 sec

-------------------
DFT GRID GENERATION
-------------------

General Integration Accuracy     IntAcc      ... 4.388
Radial Grid Type                 RadialGrid  ... OptM3 with GC (2021)
Angular Grid (max. ang.)         AngularGrid ... 4 (Lebedev-302)
Angular grid pruning method      GridPruning ... 4 (adaptive)
Weight generation scheme         WeightScheme... Becke
Basis function cutoff            BFCut       ... 1.0000e-11
Integration weight cutoff        WCut        ... 1.0000e-14
Angular grids for H and He will be reduced by one unit
Partially contracted basis set               ... off
Rotationally invariant grid construction     ... off

Total number of grid points                  ...    56694
Total number of batches                      ...      891
Average number of points per batch           ...       63
Average number of grid points per atom       ...     4724
Time for grid setup =    0.287 sec

--------------
SCF ITERATIONS
--------------
ITER       Energy         Delta-E        Max-DP      RMS-DP      [F,P]     Damp
               ***  Starting incremental Fock matrix formation  ***
  0   -343.2833226365   0.000000000000 0.00893674  0.00036466  0.0592438 0.7000
  1   -343.2876726362  -0.004349999690 0.00748780  0.00034987  0.0441939 0.7000
                               ***Turning on DIIS***
  2   -343.2910174062  -0.003344769993 0.02099301  0.00092174  0.0313141 0.0000
                      *** Initiating the SOSCF procedure ***
                           *** Shutting down DIIS ***
                      *** Re-Reading the Fockian *** 
                      *** Removing any level shift *** 
ITER      Energy       Delta-E        Grad      Rot      Max-DP    RMS-DP
  3   -343.29883843  -0.0078210220  0.001189  0.001189  0.003943  0.000100
               *** Restarting incremental Fock matrix formation ***
  4   -343.29886971  -0.0000312866  0.000408  0.002137  0.001792  0.000074
  5   -343.29886984  -0.0000001267  0.000450  0.000754  0.001247  0.000033
  6   -343.29887575  -0.0000059091  0.000297  0.000639  0.002413  0.000040
  7   -343.29887496   0.0000007917  0.000343  0.000402  0.001350  0.000024
  8   -343.29887669  -0.0000017311  0.000090  0.000350  0.000307  0.000013
  9   -343.29887669  -0.0000000020  0.000087  0.000131  0.000365  0.000008
 10   -343.29887693  -0.0000002351  0.000038  0.000084  0.000078  0.000004
 11   -343.29887687   0.0000000592  0.000071  0.000049  0.000084  0.000003
 12   -343.29887695  -0.0000000775  0.000005  0.000019  0.000090  0.000001
 13   -343.29887695  -0.0000000003  0.000005  0.000010  0.000048  0.000001
                  ***Gradient check signals convergence***
              ***Rediagonalizing the Fockian in SOSCF/NRSCF***

               *****************************************************
               *                     SUCCESS                       *
               *           SCF CONVERGED AFTER  14 CYCLES          *
               *****************************************************

Total Energy       :         -343.29887695 Eh           -9341.63736 eV
  Last Energy change         ...   -2.0157e-09  Tolerance :   1.0000e-08
  Last MAX-Density change    ...    1.7650e-05  Tolerance :   1.0000e-07
             **** THE GBW FILE WAS UPDATED (XSASRUDTFFBDDK-UHFFFAOYSA-N.gbw) ****
             **** DENSITY XSASRUDTFFBDDK-UHFFFAOYSA-N.scfp WAS UPDATED ****
             **** ENERGY FILE WAS UPDATED (XSASRUDTFFBDDK-UHFFFAOYSA-N.en.tmp) ****
             **** THE GBW FILE WAS UPDATED (XSASRUDTFFBDDK-UHFFFAOYSA-N.gbw) ****
             **** DENSITY XSASRUDTFFBDDK-UHFFFAOYSA-N.scfp WAS UPDATED ****
Total SCF time: 0 days 0 hours 0 min 2 sec 

Maximum memory used throughout the entire SCF-calculation: 16.3 MB


-------------------------------------------------------------------------------
                          DFT DISPERSION CORRECTION                            
                                                                               
                              DFTD3 V3.1  Rev 1                                
                          USING Becke-Johnson damping                          
-------------------------------------------------------------------------------
-------------------------   ----------------
Dispersion correction           -0.018921359
-------------------------   ----------------

------------------   -----------------
SRB correction            -0.028906384
------------------   -----------------

-------------------------   --------------------
FINAL SINGLE POINT ENERGY      -343.346704690965
-------------------------   --------------------



           ************************************************************
           *        Program running with 4 parallel MPI-processes     *
           *              working on a common directory               *
           ************************************************************
------------------------------------------------------------------------------
                         ORCA SCF GRADIENT CALCULATION
------------------------------------------------------------------------------

Gradient of the Kohn-Sham DFT energy:
Kohn-Sham wavefunction type      ... RKS
Hartree-Fock exchange scaling    ...    0.000
Number of operators              ...    1
Number of atoms                  ...   12
Basis set dimensions             ...  147
Integral neglect threshold       ... 2.5e-11
Integral primitive cutoff        ... 2.5e-12
SHARK Integral package           ... ON

Nuc. rep. gradient       (SHARK) ... done (  0.0 sec)
HCore & Overlap gradient (SHARK) ... done (  0.0 sec)
RI-J gradient            (SHARK) ... done (  0.1 sec)
Exchange-correlation gradient    ... done
Dispersion correction            ... done
SRB correction                   ... done

------------------
CARTESIAN GRADIENT
------------------

   1   O   :   -0.004363763   -0.007856721    0.007804947
   2   O   :    0.005853321    0.004409038   -0.007406619
   3   C   :   -0.007423111    0.003118687    0.001561051
   4   C   :    0.007214978   -0.008706369   -0.001953252
   5   C   :   -0.000986696    0.012496697    0.004865040
   6   O   :   -0.000424168   -0.004650626   -0.002853961
   7   H   :   -0.000607622    0.001447218   -0.001969247
   8   H   :    0.000272788    0.001657553    0.001062607
   9   H   :    0.000939173    0.000108069   -0.001239321
  10   H   :   -0.000415118    0.000233584    0.000481615
  11   H   :   -0.000892713    0.000907828    0.000105113
  12   H   :    0.000832931   -0.003164958   -0.000457974

Difference to translation invariance:
           :    0.0000000000    0.0000000000    0.0000000000

Difference to rotation invariance:
           :    0.0000101724    0.0002542546    0.0001827547

Norm of the cartesian gradient     ...    0.0261855103
RMS gradient                       ...    0.0043642517
MAX gradient                       ...    0.0124966968

-------
TIMINGS
-------

Total SCF gradient time            ...        1.098 sec

One electron gradient       ....       0.031 sec  (  2.8%)
RI-J Coulomb gradient       ....       0.132 sec  ( 12.0%)
XC gradient                 ....       0.814 sec  ( 74.1%)

Maximum memory used throughout the entire SCFGRAD-calculation: 27.3 MB
------------------------------------------------------------------------------
                         ORCA GEOMETRY RELAXATION STEP
------------------------------------------------------------------------------

Reading the OPT-File                    .... done
Getting information on internals        .... done
Copying old internal coords+grads       .... done
Making the new internal coordinates     .... (new redundants).... done
Validating the new internal coordinates .... (new redundants).... done
Calculating the B-matrix                .... done
Calculating the G,G- and P matrices     .... done
Transforming gradient to internals      .... done
Projecting the internal gradient        .... done
Number of atoms                         ....  12
Number of internal coordinates          ....  47
Current Energy                          ....  -343.346704691 Eh
[...]
     20       0.070819  -0.067710  -0.013593  -0.013270   0.002028  -0.056896
     21       0.093242   0.137400  -0.162070  -0.147458  -0.543358   0.205186
     22      -0.017991   0.016202  -0.006166  -0.318196   0.057871  -0.064642
     23       0.214614  -0.313031  -0.096839  -0.453291  -0.350777   0.147706
     24      -0.106238   0.442491  -0.104958   0.240591   0.345728  -0.299293
     25      -0.266277   0.440287   0.097330   0.207199   0.168076  -0.055275
     26      -0.006961   0.064564  -0.011359   0.006714   0.011851  -0.079964
     27       0.166918  -0.093213   0.060060   0.321252   0.185802   0.721791
     28      -0.033557  -0.021797  -0.404946   0.186924   0.059915   0.148062
     29       0.487107  -0.011002   0.532086  -0.154570  -0.054248   0.053494
     30      -0.070414   0.441249  -0.071079   0.183267   0.277110  -0.112497
     31       0.649242   0.108644   0.337191  -0.100139  -0.042575   0.094442
     32       0.010635  -0.004049   0.015271   0.005359   0.030330  -0.022506
     33       0.084187  -0.152561  -0.222520   0.334961   0.398417   0.002500
     34       0.099686   0.194147   0.503912  -0.290827  -0.142523  -0.355583
     35      -0.132353  -0.097786   0.024511  -0.093739  -0.141740   0.064625
                 18         19         20         21         22         23    
      0       0.010269   0.006418   0.007069   0.000695   0.007819  -0.003587
      1       0.026157   0.009223  -0.012744  -0.000277  -0.009970   0.001685
      2      -0.017315  -0.015959  -0.000181  -0.004521   0.007468  -0.010173
      3       0.061086  -0.013750  -0.038514  -0.002377  -0.039886   0.020331
      4      -0.134084  -0.094549   0.014970  -0.018662  -0.017792   0.018295
      5      -0.038325  -0.026008   0.068246  -0.022859   0.045500  -0.010474
      6      -0.277348   0.036135   0.019729   0.036546   0.059695  -0.014870
      7       0.131567   0.167011   0.034264   0.025886   0.027434   0.039943
      8      -0.036343   0.062954  -0.187255   0.068088  -0.048303  -0.021212
      9       0.210982   0.011322   0.025218  -0.056961  -0.097312  -0.122347
     10       0.061846  -0.157368  -0.065039  -0.003626  -0.020843  -0.061908
     11       0.094743  -0.052746   0.227533   0.013422  -0.022806   0.048378
     12       0.006593  -0.132478   0.036656   0.083671   0.013282   0.006328
     13      -0.058867   0.146395   0.126003  -0.020400  -0.039726  -0.012852
     14       0.011347   0.023290  -0.166215  -0.060650   0.026330  -0.001281
     15      -0.025277   0.042270  -0.016038  -0.029030   0.001728   0.001872
     16      -0.016829  -0.020969  -0.033020  -0.007696   0.013592   0.007676
     17       0.003685  -0.008230   0.028415   0.005020  -0.008951  -0.008703
     18      -0.031706   0.018826   0.035852  -0.024593   0.093174  -0.087076
     19      -0.096871  -0.086057   0.092674  -0.062041   0.199380  -0.176446
     20       0.071033   0.025316  -0.070829   0.039724  -0.146379   0.126641
     21      -0.411582  -0.035774   0.160617  -0.117565  -0.337502   0.528272
     22       0.233632   0.255773   0.155811   0.108004   0.403310  -0.334542
     23       0.007448   0.165456   0.323818   0.009517   0.153794   0.004693
     24      -0.273147  -0.147703  -0.230901  -0.109351   0.326983  -0.198003
     25       0.035674   0.087258  -0.398815   0.197571  -0.432009   0.119922
     26      -0.052812   0.078151  -0.171800   0.096674  -0.104695   0.009633
     27       0.334012   0.246459  -0.183685   0.668798   0.298288   0.314944
     28       0.191087  -0.178221   0.015119   0.264112   0.119003   0.095931
     29      -0.119505   0.226392  -0.148311  -0.056166  -0.045151   0.015083
     30       0.547191  -0.189541  -0.148803  -0.487805   0.364235   0.545022
     31       0.018730   0.198629  -0.501784  -0.252039   0.189421   0.076072
     32       0.057039  -0.013757   0.228964   0.052414  -0.070394  -0.014111
     33      -0.183888   0.566281   0.148222  -0.195757   0.026352   0.160992
     34      -0.005330  -0.449547  -0.008942   0.144997   0.140618   0.194969
     35       0.030354  -0.083975  -0.192560  -0.035826   0.047756   0.015449
                 24         25         26         27         28         29    
      0      -0.005543   0.001229   0.001148  -0.000121   0.001539   0.001649
      1       0.009945   0.000860   0.000501   0.000093   0.003638   0.001681
      2      -0.058153  -0.002303   0.000337  -0.000885  -0.001709  -0.000962
      3       0.009290  -0.014951  -0.002085  -0.000755  -0.000378  -0.005845
      4       0.037236  -0.006862  -0.003627   0.004030  -0.011922   0.001375
      5       0.049087  -0.011408  -0.002675  -0.001354  -0.002626   0.001582
      6       0.024316   0.117753   0.000382   0.008682  -0.048843   0.021115
      7      -0.007221  -0.073509  -0.022122  -0.007130  -0.046934   0.005351
      8      -0.023402  -0.031355  -0.005025   0.003740  -0.040322   0.003776
      9       0.006486  -0.032089   0.043016   0.016713  -0.007298   0.030209
     10       0.008467   0.019207   0.028885  -0.068268  -0.009435   0.033918
     11      -0.010220   0.019996   0.020474   0.048770  -0.001603   0.025908
     12      -0.002080  -0.000908  -0.024876   0.007434   0.001467  -0.445061
     13      -0.000790  -0.003426  -0.036037  -0.008179   0.002845  -0.392404
     14       0.005964   0.006345   0.060248  -0.003122  -0.012403  -0.323978
     15      -0.000291   0.006919  -0.037018   0.002619   0.007545   0.291359
     16      -0.000340   0.007943  -0.024740   0.002749   0.005418   0.246293
     17      -0.001659   0.005695  -0.069875   0.001364   0.011355   0.234457
     18      -0.307705  -0.002656   0.004651  -0.007785  -0.002548  -0.028464
     19      -0.747429  -0.021491   0.011548  -0.019450   0.009819   0.009357
     20       0.489683   0.008555  -0.007707   0.012734  -0.003033   0.019275
     21      -0.159075  -0.338909  -0.072202   0.002372   0.150866  -0.021166
     22       0.160397   0.301606   0.076737  -0.027201   0.140563   0.025492
     23       0.049920   0.082569   0.095901  -0.039313   0.654185  -0.038580
     24       0.140211  -0.653970  -0.004599  -0.080383   0.442505  -0.029037
     25      -0.143820   0.442830   0.138214   0.015393   0.553697  -0.017173
     26      -0.041780   0.088275   0.010376   0.014946  -0.053123   0.020228
     27      -0.035122  -0.156208  -0.055781  -0.101501   0.000167   0.133630
     28      -0.011526  -0.022721   0.014616   0.202546   0.003689   0.075238
     29       0.003639   0.015375  -0.015165  -0.652720  -0.035975  -0.034126
     30      -0.028557   0.313238  -0.164265  -0.220318   0.005836  -0.200451
     31       0.001900   0.022867  -0.107007   0.668380   0.051427  -0.179281
     32      -0.007915  -0.017747   0.038663   0.086956  -0.002546   0.021095
     33      -0.006841  -0.063441   0.673905  -0.011237  -0.083549   0.279283
     34      -0.008418  -0.066022   0.657004   0.047140  -0.075910   0.336540
     35       0.006227   0.009955   0.122114   0.002798  -0.023566  -0.212319
                 30         31         32         33         34         35    
      0      -0.000148   0.000259   0.000263   0.000349   0.000081   0.031295
      1      -0.000090   0.000140   0.000324   0.001156   0.000129   0.024903
      2       0.000149   0.000210   0.000346  -0.000607  -0.000080   0.049681
      3       0.000131   0.000478   0.000616  -0.000529  -0.000013  -0.000606
      4       0.000012  -0.001553  -0.001522  -0.001667  -0.000387  -0.001120
      5       0.000093  -0.000588  -0.000520   0.000441  -0.000237  -0.000301
      6       0.000064  -0.017014  -0.021763  -0.037683  -0.006306  -0.000263
      7       0.001066  -0.012615  -0.014157  -0.058795  -0.009673   0.000086
      8       0.001499  -0.031558  -0.054293   0.055417   0.016833   0.000560
      9      -0.001919  -0.020629   0.014066   0.001507   0.001379   0.000075
     10       0.001885   0.057197  -0.036752  -0.008312   0.017533   0.000079
     11       0.002473   0.005239   0.004396  -0.017125   0.085347  -0.000155
     12      -0.000383   0.000174   0.001097   0.000414   0.001136  -0.000394
     13       0.012921   0.000993   0.000914  -0.000124   0.001113  -0.000057
     14      -0.081649   0.001924  -0.003192  -0.000844   0.003765  -0.000040
     15      -0.001760  -0.000393  -0.000098   0.000070  -0.000485   0.000204
     16      -0.001510  -0.000227  -0.000218   0.000107  -0.000386   0.000110
     17      -0.000678  -0.000357   0.000098   0.000122  -0.000685   0.000116
     18      -0.001391  -0.000881  -0.001731   0.001831   0.000282  -0.484511
     19       0.001306   0.000081   0.000607   0.000418  -0.001474  -0.377452
     20       0.000346  -0.001585  -0.002656  -0.000028  -0.000030  -0.786569
     21       0.001524   0.140411   0.155005   0.495097   0.088418   0.000391
     22      -0.006328   0.204535   0.222911   0.692498   0.117077  -0.002021
     23       0.004253  -0.100532  -0.111115  -0.311913  -0.053457  -0.000878
     24       0.003068   0.053414   0.086791  -0.049549  -0.022333   0.000251
     25       0.001799  -0.031123  -0.046094   0.013375   0.008446  -0.000630
     26      -0.022864   0.490305   0.762913  -0.350703  -0.143149  -0.003383
     27       0.016572   0.226772  -0.150995  -0.036478   0.085178  -0.000185
     28      -0.031470  -0.697737   0.446136   0.106747  -0.255857   0.000059
     29      -0.017612  -0.298219   0.190789   0.041117  -0.096740   0.000217
     30      -0.005660   0.021170  -0.020649   0.016115  -0.100301   0.000215
     31       0.000177   0.004996   0.001723  -0.006062   0.030104  -0.000073
     32      -0.017637   0.226011  -0.239196   0.171319  -0.923347   0.000750
     33       0.040762   0.000125  -0.002173   0.000879   0.000549   0.000434
     34      -0.129403   0.002225  -0.007067   0.000536   0.005017  -0.000417
     35       0.986012  -0.013635   0.033042   0.004688  -0.029781  -0.000081


-----------
IR SPECTRUM
-----------

 Mode   freq       eps      Int      T**2         TX        TY        TZ
       cm**-1   L/(mol*cm) km/mol    a.u.
----------------------------------------------------------------------------
  6:     84.77   0.001722    8.70  0.006341  (-0.046025  0.029266  0.058016)
  7:    125.79   0.001730    8.74  0.004293  ( 0.013820 -0.050746  0.039071)
  8:    157.48   0.005525   27.92  0.010948  ( 0.086017 -0.057136 -0.016871)
  9:    325.69   0.005052   25.53  0.004841  (-0.055545  0.034978  0.023067)
 10:    356.22   0.012331   62.32  0.010803  ( 0.074377 -0.055039 -0.047343)
 11:    366.88   0.011208   56.64  0.009534  ( 0.071460 -0.066470 -0.002993)
 12:    465.47   0.000481    2.43  0.000323  ( 0.006839  0.012989 -0.010351)
 13:    564.89   0.002185   11.04  0.001207  ( 0.028646  0.016380 -0.010861)
 14:    754.79   0.000707    3.57  0.000292  ( 0.012540  0.005941 -0.009980)
 15:    836.05   0.002861   14.46  0.001068  ( 0.020775 -0.019894 -0.015504)
 16:    896.38   0.002432   12.29  0.000847  ( 0.007835  0.024248 -0.014044)
 17:    938.57   0.000877    4.43  0.000292  ( 0.001305 -0.016785  0.002862)
 18:   1021.35   0.006555   33.13  0.002003  (-0.043297  0.010220  0.004868)
 19:   1044.90   0.001223    6.18  0.000365  ( 0.001440  0.014405  0.012475)
 20:   1125.67   0.003372   17.04  0.000935  ( 0.019130  0.010245 -0.021540)
 21:   1212.72   0.004197   21.21  0.001080  ( 0.030411  0.011795  0.004004)
 22:   1263.04   0.002163   10.93  0.000534  ( 0.020131  0.008144 -0.007925)
 23:   1328.34   0.000267    1.35  0.000063  ( 0.006810 -0.002407  0.003263)
 24:   1372.30   0.007355   37.17  0.001673  (-0.013272 -0.037071  0.011052)
 25:   1389.88   0.003356   16.96  0.000753  ( 0.015909 -0.022053 -0.003740)
 26:   1414.41   0.000588    2.97  0.000130  ( 0.000572 -0.006341  0.009444)
 27:   1448.24   0.001935    9.78  0.000417  (-0.008309  0.013872 -0.012466)
 28:   1470.66   0.000623    3.15  0.000132  ( 0.001919  0.008186  0.007836)
 29:   1763.35   0.039625  200.25  0.007013  (-0.065708 -0.042879 -0.029263)
 30:   2818.88   0.022247  112.43  0.002463  (-0.000557  0.005063 -0.049365)
 31:   2977.07   0.002681   13.55  0.000281  (-0.013007  0.000537 -0.010560)
 32:   2984.50   0.007514   37.97  0.000786  (-0.007040 -0.017592 -0.020655)
 33:   3045.70   0.002205   11.14  0.000226  (-0.008158 -0.009013  0.008841)
 34:   3072.82   0.004041   20.42  0.000410  (-0.000160 -0.001038  0.020231)
 35:   3671.62   0.005644   28.52  0.000480  (-0.005468 -0.017476 -0.012015)

* The epsilon (eps) is given for a Dirac delta lineshape.
** The dipole moment derivative (T) already includes vibrational overlap.

The first frequency considered to be a vibration is 6
The total number of vibrations considered is 30


--------------------------
THERMOCHEMISTRY AT 298.15K
--------------------------

Temperature         ... 298.15 K
Pressure            ... 1.00 atm
Total Mass          ... 90.08 AMU

Throughout the following assumptions are being made:
  (1) The electronic state is orbitally nondegenerate
  (2) There are no thermally accessible electronically excited states
  (3) Hindered rotations indicated by low frequency modes are not
      treated as such but are treated as vibrations and this may
      cause some error
  (4) All equations used are the standard statistical mechanics
      equations for an ideal gas
  (5) All vibrations are strictly harmonic

freq.      84.77  E(vib)   ...       0.48 
freq.     125.79  E(vib)   ...       0.43 
freq.     157.48  E(vib)   ...       0.40 
freq.     325.69  E(vib)   ...       0.24 
freq.     356.22  E(vib)   ...       0.22 
freq.     366.88  E(vib)   ...       0.22 
freq.     465.47  E(vib)   ...       0.16 
freq.     564.89  E(vib)   ...       0.11 
freq.     754.79  E(vib)   ...       0.06 
freq.     836.05  E(vib)   ...       0.04 
freq.     896.38  E(vib)   ...       0.03 
freq.     938.57  E(vib)   ...       0.03 
freq.    1021.35  E(vib)   ...       0.02 
freq.    1044.90  E(vib)   ...       0.02 
freq.    1125.67  E(vib)   ...       0.01 
freq.    1212.72  E(vib)   ...       0.01 
freq.    1263.04  E(vib)   ...       0.01 
freq.    1328.34  E(vib)   ...       0.01 
freq.    1372.30  E(vib)   ...       0.01 
freq.    1389.88  E(vib)   ...       0.00 
freq.    1414.41  E(vib)   ...       0.00 
freq.    1448.24  E(vib)   ...       0.00 
freq.    1470.66  E(vib)   ...       0.00 
freq.    1763.35  E(vib)   ...       0.00 
freq.    2818.88  E(vib)   ...       0.00 
freq.    2977.07  E(vib)   ...       0.00 
freq.    2984.50  E(vib)   ...       0.00 
freq.    3045.70  E(vib)   ...       0.00 
freq.    3072.82  E(vib)   ...       0.00 
freq.    3671.62  E(vib)   ...       0.00 

------------
INNER ENERGY
------------

The inner energy is: U= E(el) + E(ZPE) + E(vib) + E(rot) + E(trans)
    E(el)   - is the total energy from the electronic structure calculation
              = E(kin-el) + E(nuc-el) + E(el-el) + E(nuc-nuc)
    E(ZPE)  - the the zero temperature vibrational energy from the frequency calculation
    E(vib)  - the the finite temperature correction to E(ZPE) due to population
              of excited vibrational states
    E(rot)  - is the rotational thermal energy
    E(trans)- is the translational thermal energy

Summary of contributions to the inner energy U:
Electronic energy                ...   -343.34776627 Eh
Zero point energy                ...      0.09180657 Eh      57.61 kcal/mol
Thermal vibrational correction   ...      0.00402419 Eh       2.53 kcal/mol
Thermal rotational correction    ...      0.00141627 Eh       0.89 kcal/mol
Thermal translational correction ...      0.00141627 Eh       0.89 kcal/mol
-----------------------------------------------------------------------
Total thermal energy                   -343.24910297 Eh


Summary of corrections to the electronic energy:
(perhaps to be used in another calculation)
Total thermal correction                  0.00685674 Eh       4.30 kcal/mol
Non-thermal (ZPE) correction              0.09180657 Eh      57.61 kcal/mol
-----------------------------------------------------------------------
Total correction                          0.09866330 Eh      61.91 kcal/mol


--------
ENTHALPY
--------

The enthalpy is H = U + kB*T
                kB is Boltzmann's constant
Total free energy                 ...   -343.24910297 Eh 
Thermal Enthalpy correction       ...      0.00094421 Eh       0.59 kcal/mol
-----------------------------------------------------------------------
Total Enthalpy                    ...   -343.24815876 Eh


Note: Only C1 symmetry has been detected, increase convergence thresholds 
      if your molecule has a higher symmetry. Symmetry factor of 1.0 is   
      used for the rotational entropy correction. 
 

Note: Rotational entropy computed according to Herzberg 
Infrared and Raman Spectra, Chapter V,1, Van Nostrand Reinhold, 1945 
Point Group:  C1, Symmetry Number:   1  
Rotational constants in cm-1:     0.193390     0.089607     0.067627 

Vibrational entropy computed according to the QRRHO of S. Grimme
Chem.Eur.J. 2012 18 9955


-------
ENTROPY
-------

The entropy contributions are T*S = T*(S(el)+S(vib)+S(rot)+S(trans))
     S(el)   - electronic entropy
     S(vib)  - vibrational entropy
     S(rot)  - rotational entropy
     S(trans)- translational entropy
The entropies will be listed as multiplied by the temperature to get
units of energy

Electronic entropy                ...      0.00000000 Eh      0.00 kcal/mol
Vibrational entropy               ...      0.00694344 Eh      4.36 kcal/mol
Rotational entropy                ...      0.01269701 Eh      7.97 kcal/mol
Translational entropy             ...      0.01872325 Eh     11.75 kcal/mol
-----------------------------------------------------------------------
Final entropy term                ...      0.03836369 Eh     24.07 kcal/mol

In case the symmetry of your molecule has not been determined correctly
or in case you have a reason to use a different symmetry number we print 
out the resulting rotational entropy values for sn=1,12 :
 --------------------------------------------------------
|  sn= 1 | S(rot)=       0.01269701 Eh      7.97 kcal/mol|
|  sn= 2 | S(rot)=       0.01204255 Eh      7.56 kcal/mol|
|  sn= 3 | S(rot)=       0.01165972 Eh      7.32 kcal/mol|
|  sn= 4 | S(rot)=       0.01138809 Eh      7.15 kcal/mol|
|  sn= 5 | S(rot)=       0.01117741 Eh      7.01 kcal/mol|
|  sn= 6 | S(rot)=       0.01100526 Eh      6.91 kcal/mol|
|  sn= 7 | S(rot)=       0.01085972 Eh      6.81 kcal/mol|
|  sn= 8 | S(rot)=       0.01073364 Eh      6.74 kcal/mol|
|  sn= 9 | S(rot)=       0.01062243 Eh      6.67 kcal/mol|
|  sn=10 | S(rot)=       0.01052295 Eh      6.60 kcal/mol|
|  sn=11 | S(rot)=       0.01043296 Eh      6.55 kcal/mol|
|  sn=12 | S(rot)=       0.01035081 Eh      6.50 kcal/mol|
 --------------------------------------------------------


-------------------
GIBBS FREE ENERGY
-------------------

The Gibbs free energy is G = H - T*S

Total enthalpy                    ...   -343.24815876 Eh 
Total entropy correction          ...     -0.03836369 Eh    -24.07 kcal/mol
-----------------------------------------------------------------------
Final Gibbs free energy         ...   -343.28652245 Eh

For completeness - the Gibbs free energy minus the electronic energy
G-E(el)                           ...      0.06124382 Eh     38.43 kcal/mol


Timings for individual modules:

Sum of individual times         ...       71.340 sec (=   1.189 min)
GTO integral calculation        ...        3.593 sec (=   0.060 min)   5.0 %
SCF iterations                  ...       22.853 sec (=   0.381 min)  32.0 %
SCF Gradient evaluation         ...       10.176 sec (=   0.170 min)  14.3 %
Geometry relaxation             ...        0.233 sec (=   0.004 min)   0.3 %
Analytical frequency calculation...       34.485 sec (=   0.575 min)  48.3 %
                             ****ORCA TERMINATED NORMALLY****
TOTAL RUN TIME: 0 days 0 hours 1 minutes 14 seconds 546 msec
