[Molden Format]
[Geometries] (XYZ)
12

C        1.413398       1.451133      -2.142134
C        0.590738       0.554713      -1.215387
C        1.289623      -0.728095      -0.890322
O        0.744939       2.633726      -2.491547
O        0.607022       3.467792      -1.340775
O        2.369906      -1.057477      -1.291065
H        0.697243       4.355896      -1.710075
H        2.381756       1.675406      -1.678052
H        1.583702       0.962117      -3.104329
H        0.703480      -1.386163      -0.217565
H       -0.375554       0.323175      -1.671540
H        0.382737       1.087377      -0.283038
12

C        1.513556       1.467870      -2.171511
C        0.575017       0.569711      -1.210185
C        1.280891      -0.709915      -0.880688
O        0.650292       2.495496      -2.520961
O        0.693945       3.339944      -1.285738
O        2.330368      -1.063642      -1.341872
H        0.647459       4.222520      -1.678901
H        2.400227       1.562777      -1.551181
H        1.732153       1.089208      -3.178730
H        0.736480      -1.337216      -0.143340
H       -0.412992       0.335243      -1.595198
H        0.433789       1.152212      -0.301293
12

C        1.630647       1.506197      -2.212382
C        0.561521       0.588075      -1.205896
C        1.272609      -0.687893      -0.863562
O        0.562309       2.338999      -2.540905
O        0.773849       3.218004      -1.243634
O        2.290229      -1.071982      -1.369769
H        0.609157       4.089298      -1.631370
H        2.414784       1.456650      -1.479501
H        1.893073       1.257561      -3.256766
H        0.766782      -1.280315      -0.068882
H       -0.444395       0.355196      -1.525091
H        0.486440       1.215951      -0.324650
12

C        1.718886       1.589561      -2.265190
C        0.505711       0.604478      -1.189139
C        1.252474      -0.646203      -0.841772
O        0.508670       2.146313      -2.577289
O        0.861462       3.146170      -1.186701
O        2.251598      -1.045772      -1.369311
H        0.606826       3.996695      -1.566892
H        2.452103       1.452568      -1.496078
H        2.029922       1.456256      -3.323433
H        0.782342      -1.209426      -0.004867
H       -0.513430       0.356387      -1.456328
H        0.468935       1.267328      -0.332360
12

C        1.770504       1.634125      -2.313383
C        0.445305       0.595145      -1.213801
C        1.250135      -0.596287      -0.877651
O        0.481354       1.849463      -2.578525
O        0.989707       3.108915      -1.122291
O        2.244753      -1.024197      -1.382524
H        0.663436       3.919656      -1.512582
H        2.511340       1.549195      -1.544710
H        2.100920       1.544109      -3.372755
H        0.795798      -1.115192      -0.011086
H       -0.584666       0.305591      -1.444471
H        0.410569       1.299269      -0.378400
12

C        1.807046       1.712686      -2.300830
C        0.396605       0.572276      -1.210027
C        1.234642      -0.592676      -0.890071
O        0.476116       1.633904      -2.539540
O        1.133650       3.029755      -1.178980
O        2.225493      -1.002280      -1.421144
H        0.723881       3.792278      -1.583136
H        2.544094       1.568994      -1.538684
H        2.137351       1.720120      -3.363255
H        0.817184      -1.109076      -0.010607
H       -0.636327       0.258156      -1.401217
H        0.373396       1.277873      -0.379782
12

C        1.810370       1.808705      -2.284053
C        0.348020       0.540595      -1.209819
C        1.207616      -0.618770      -0.894438
O        0.508264       1.438380      -2.482686
O        1.271854       3.013687      -1.268378
O        2.194601      -1.007443      -1.449791
H        0.762565       3.704818      -1.689641
H        2.567738       1.563121      -1.560764
H        2.123745       1.926078      -3.335581
H        0.815758      -1.140654      -0.007007
H       -0.683645       0.207060      -1.382544
H        0.329888       1.241517      -0.374850
12

C        1.764182       1.942481      -2.250917
C        0.279315       0.540383      -1.207166
C        1.155996      -0.621451      -0.880931
O        0.539471       1.322081      -2.430288
O        1.363572       3.083489      -1.352252
O        2.146437      -0.981135      -1.449909
H        0.771376       3.699493      -1.787681
H        2.560264       1.551362      -1.626316
H        2.065124       2.150368      -3.286824
H        0.778897      -1.156198       0.007243
H       -0.744852       0.186713      -1.379182
H        0.261466       1.230098      -0.358566
12

C        1.656505       2.110073      -2.207106
C        0.226228       0.510233      -1.223624
C        1.163089      -0.621641      -0.874467
O        0.580638       1.227522      -2.383453
O        1.326022       3.193619      -1.394945
O        2.176255      -0.903004      -1.443249
H        0.612707       3.693988      -1.810423
H        2.511177       1.621494      -1.726545
H        1.931951       2.425673      -3.221777
H        0.809661      -1.192948       0.009176
H       -0.769346       0.094616      -1.407958
H        0.164104       1.179976      -0.351459
[GEOCONV]
energy
0.0
15.3183613621
61.2587610112
131.445979149
148.421137215
85.9203680629
17.0770632385
-28.9709995037
-44.0326640342
max-force
6.94808789753e-05
0.00559456314963
0.00710964095249
0.00697911963186
0.00861758808865
0.00738276255104
0.00812628156547
0.0060184898593
2.34560183369e-05
max-step
1000.0
1000.0
1000.0
1000.0
1000.0
1000.0
1000.0
1000.0
1000.0
