[Molden Format]
[Geometries] (XYZ)
12

C        1.413398       1.451133      -2.142134
C        0.590738       0.554713      -1.215387
C        1.289623      -0.728095      -0.890322
O        0.744939       2.633726      -2.491547
O        0.607022       3.467792      -1.340775
O        2.369906      -1.057477      -1.291065
H        0.697243       4.355896      -1.710075
H        2.381756       1.675406      -1.678052
H        1.583702       0.962117      -3.104329
H        0.703480      -1.386163      -0.217565
H       -0.375554       0.323175      -1.671540
H        0.382737       1.087377      -0.283038
12

C        1.510112       1.464615      -2.144337
C        0.592421       0.567672      -1.208071
C        1.290687      -0.719447      -0.886247
O        0.643026       2.533295      -2.496475
O        0.703418       3.378742      -1.307739
O        2.338756      -1.070073      -1.353995
H        0.649910       4.255842      -1.715966
H        2.387360       1.553621      -1.516838
H        1.727008       1.074265      -3.151989
H        0.747605      -1.352912      -0.153254
H       -0.392649       0.341881      -1.596936
H        0.455088       1.142296      -0.295302
12

C        1.625999       1.509397      -2.186338
C        0.590982       0.594031      -1.210907
C        1.286872      -0.692878      -0.873579
O        0.558961       2.386102      -2.499554
O        0.776320       3.284751      -1.274017
O        2.301206      -1.082452      -1.381847
H        0.607612       4.145149      -1.682969
H        2.395556       1.444108      -1.443223
H        1.880968       1.263421      -3.228680
H        0.775686      -1.286956      -0.083393
H       -0.414088       0.372489      -1.538534
H        0.522417       1.219764      -0.326246
12

C        1.706910       1.572256      -2.268273
C        0.549352       0.580605      -1.212468
C        1.278820      -0.677273      -0.862053
O        0.518539       2.171853      -2.534641
O        0.855359       3.299032      -1.205278
O        2.274352      -1.095981      -1.377529
H        0.604366       4.129621      -1.618272
H        2.422798       1.441284      -1.486647
H        2.016542       1.424063      -3.312551
H        0.788212      -1.229392      -0.024369
H       -0.465532       0.343775      -1.505522
H        0.516814       1.259781      -0.363352
12

C        1.773447       1.549259      -2.341259
C        0.503041       0.624750      -1.267422
C        1.278327      -0.586575      -0.903652
O        0.505225       1.885760      -2.522749
O        0.900739       3.299258      -1.075651
O        2.259017      -1.050414      -1.397212
H        0.555221       4.095112      -1.462140
H        2.507783       1.515300      -1.564758
H        2.112417       1.372620      -3.371258
H        0.793314      -1.059533      -0.026844
H       -0.529180       0.367372      -1.522374
H        0.477594       1.364210      -0.439075
12

C        1.785490       1.700147      -2.296840
C        0.398918       0.606024      -1.220500
C        1.244320      -0.553363      -0.903768
O        0.454301       1.698847      -2.491718
O        1.079479       3.173857      -1.162522
O        2.242356      -0.952850      -1.428980
H        0.713254       3.942787      -1.592066
H        2.512476       1.619096      -1.519689
H        2.131994       1.634568      -3.349146
H        0.814622      -1.071677      -0.028815
H       -0.628641       0.288118      -1.433317
H        0.364189       1.319068      -0.390687
12

C        1.781010       1.844291      -2.257427
C        0.324016       0.601601      -1.199465
C        1.196848      -0.547675      -0.896605
O        0.457365       1.525132      -2.434656
O        1.239537       3.105256      -1.269107
O        2.192101      -0.914710      -1.453469
H        0.770730       3.808775      -1.717191
H        2.525587       1.671736      -1.504807
H        2.103483       1.921922      -3.307844
H        0.803557      -1.084078      -0.016626
H       -0.702471       0.258063      -1.380326
H        0.289860       1.301559      -0.363003
12

C        1.749701       1.979102      -2.228105
C        0.256704       0.577701      -1.195571
C        1.146610      -0.571144      -0.881694
O        0.494149       1.367201      -2.391301
O        1.358529       3.128853      -1.366485
O        2.143463      -0.915314      -1.451799
H        0.788261       3.750717      -1.821525
H        2.532373       1.627170      -1.569498
H        2.059358       2.167851      -3.265954
H        0.772753      -1.114671       0.000236
H       -0.760798       0.212467      -1.370430
H        0.228679       1.265699      -0.347601
12

C        1.656505       2.110073      -2.207106
C        0.226228       0.510233      -1.223624
C        1.163089      -0.621641      -0.874467
O        0.580638       1.227522      -2.383453
O        1.326022       3.193619      -1.394945
O        2.176255      -0.903004      -1.443249
H        0.612707       3.693988      -1.810423
H        2.511177       1.621494      -1.726545
H        1.931951       2.425673      -3.221777
H        0.809661      -1.192948       0.009176
H       -0.769346       0.094616      -1.407958
H        0.164104       1.179976      -0.351459
[GEOCONV]
energy
0.0
11.8209619962
51.0845321673
112.893571303
136.885272163
97.2070799891
24.678843438
-28.7554149091
-44.0326640342
max-force
6.94808789753e-05
0.0041851359712
0.00661214322543
0.00562797675662
0.00498342990061
0.00805666436025
0.00751826806382
0.00514668481545
2.34560183369e-05
max-step
1000.0
1000.0
1000.0
1000.0
1000.0
1000.0
1000.0
1000.0
1000.0
