[Molden Format]
[Geometries] (XYZ)
12

C        1.385376       1.519879      -1.745435
C        0.550649       0.525115      -0.946600
C        1.165724      -0.844104      -0.907084
O        0.575951       2.657977      -1.925908
O        1.310886       3.624049      -2.676295
O        1.140309      -1.582297       0.033930
H        0.697108       4.369215      -2.703963
H        2.301494       1.793918      -1.207087
H        1.662416       1.104032      -2.723942
H        1.645946      -1.142934      -1.860066
H       -0.421859       0.426782      -1.440073
H        0.375000       0.888168       0.066613
12

C        1.382050       1.612869      -1.639324
C        0.537763       0.595604      -0.927149
C        1.276252      -0.782248      -1.022973
O        0.592681       2.703343      -2.039321
O        1.408490       3.628854      -2.755267
O        1.352560      -1.497531      -0.076519
H        0.802319       4.368545      -2.896600
H        2.286029       1.920789      -1.110693
H        1.734900       1.089881      -2.635017
H        1.484981      -1.123316      -2.048297
H       -0.412163       0.468715      -1.445188
H        0.386501       0.775000       0.134401
12

C        1.343057       1.674290      -1.539651
C        0.489443       0.617217      -0.893507
C        1.354897      -0.700377      -1.123399
O        0.600559       2.707021      -2.123512
O        1.488240       3.604681      -2.784052
O        1.575419      -1.379376      -0.169969
H        0.899099       4.331780      -3.030318
H        2.232103       1.998346      -1.006838
H        1.768861       1.063310      -2.518952
H        1.273031      -1.078776      -2.143441
H       -0.440140       0.470980      -1.430236
H        0.378469       0.629899       0.184198
12

C        1.259052       1.713872      -1.426040
C        0.410381       0.660541      -0.849077
C        1.435113      -0.638435      -1.235558
O        0.596260       2.673900      -2.179750
O        1.549638       3.552495      -2.768428
O        1.788875      -1.263633      -0.289435
H        0.990198       4.261360      -3.117089
H        2.143055       2.046116      -0.894680
H        1.807829       0.962819      -2.453765
H        1.103124      -1.052917      -2.185696
H       -0.508863       0.483826      -1.388941
H        0.357826       0.539603       0.223064
12

C        1.166012       1.745911      -1.339633
C        0.322591       0.740956      -0.806056
C        1.528832      -0.634593      -1.353138
O        0.592762       2.649763      -2.183674
O        1.586267       3.506976      -2.736928
O        1.943787      -1.186071      -0.390555
H        1.056189       4.205274      -3.149076
H        2.057224       2.073429      -0.819796
H        1.904171       0.775901      -2.523490
H        1.059122      -1.060924      -2.223584
H       -0.592731       0.521537      -1.331411
H        0.317623       0.563281       0.255751
12

C        1.085218       1.797557      -1.258100
C        0.249198       0.836899      -0.750868
C        1.628794      -0.675848      -1.461161
O        0.579084       2.651993      -2.176374
O        1.603377       3.484702      -2.706832
O        2.057855      -1.171084      -0.476935
H        1.100226       4.170942      -3.167609
H        1.977474       2.129118      -0.743086
H        2.013695       0.598074      -2.581520
H        1.052023      -1.114440      -2.255429
H       -0.664328       0.590640      -1.268525
H        0.272873       0.621627       0.301901
12

C        0.987026       1.836366      -1.165715
C        0.156736       0.904446      -0.681345
C        1.717224      -0.682746      -1.575307
O        0.562446       2.633970      -2.172762
O        1.627699       3.438585      -2.665028
O        2.206424      -1.114765      -0.593453
H        1.163622       4.111412      -3.182618
H        1.882300       2.160014      -0.651563
H        2.080788       0.409158      -2.564168
H        1.001607      -1.148187      -2.237324
H       -0.751149       0.641998      -1.198581
H        0.225027       0.622361       0.351946
12

C        0.882367       1.860889      -1.090472
C        0.044841       0.944178      -0.620488
C        1.783411      -0.681001      -1.694554
O        0.551649       2.586649      -2.187846
O        1.647639       3.383942      -2.617948
O        2.367550      -1.040620      -0.728337
H        1.223041       4.042734      -3.184550
H        1.783899       2.170208      -0.579618
H        2.118858       0.211585      -2.549696
H        0.920671      -1.168624      -2.147726
H       -0.857364       0.682174      -1.144975
H        0.167881       0.567494       0.376111
12

C        0.789008       1.894303      -1.030270
C       -0.063893       0.998585      -0.559907
C        1.826349      -0.706647      -1.802592
O        0.552163       2.533909      -2.206497
O        1.663123       3.336366      -2.581500
O        2.518916      -0.990001      -0.870765
H        1.270328       3.978382      -3.188117
H        1.705287       2.179543      -0.532265
H        2.127780       0.023740      -2.569996
H        0.851660      -1.186030      -1.988407
H       -0.967903       0.755945      -1.088635
H        0.116183       0.521705       0.383041
[GEOCONV]
energy
0.0
6.2731274642
19.4192013479
48.0845309907
86.4320609871
94.5652258726
69.9088878172
43.9995858261
33.9894251134
max-force
6.52703142453e-05
0.00586481014455
0.00620884500971
0.0064639716911
0.00910654928983
0.00814545415782
0.00744254355414
0.00676674245529
6.32452427767e-05
max-step
1000.0
1000.0
1000.0
1000.0
1000.0
1000.0
1000.0
1000.0
1000.0
