[Molden Format]
[Geometries] (XYZ)
12

C        1.385376       1.519879      -1.745435
C        0.550649       0.525115      -0.946600
C        1.165724      -0.844104      -0.907084
O        0.575951       2.657977      -1.925908
O        1.310886       3.624049      -2.676295
O        1.140309      -1.582297       0.033930
H        0.697108       4.369215      -2.703963
H        2.301494       1.793918      -1.207087
H        1.662416       1.104032      -2.723942
H        1.645946      -1.142934      -1.860066
H       -0.421859       0.426782      -1.440073
H        0.375000       0.888168       0.066613
12

C        1.357189       1.562992      -1.637603
C        0.509935       0.535852      -0.903011
C        1.197771      -0.806201      -0.978480
O        0.548173       2.652765      -2.015798
O        1.354688       3.602481      -2.711856
O        1.320818      -1.510353      -0.019520
H        0.741274       4.339683      -2.832375
H        2.243919       1.888030      -1.086495
H        1.710597       1.076177      -2.562157
H        1.394520      -1.159296      -2.002923
H       -0.439479       0.423902      -1.426270
H        0.352271       0.741910       0.153807
12

C        1.297028       1.607014      -1.518621
C        0.437799       0.538648      -0.857917
C        1.241547      -0.743936      -1.060168
O        0.525832       2.641512      -2.084212
O        1.402653       3.560350      -2.731336
O        1.538517      -1.420977      -0.116301
H        0.803341       4.280861      -2.966721
H        2.161891       1.950172      -0.952184
H        1.710800       1.052339      -2.395991
H        1.133019      -1.150452      -2.077206
H       -0.492254       0.427147      -1.407425
H        0.316721       0.582955       0.221508
12

C        1.189180       1.632968      -1.376726
C        0.334142       0.537620      -0.795106
C        1.299487      -0.629996      -1.167041
O        0.516582       2.608834      -2.129404
O        1.476711       3.471301      -2.732306
O        1.762360      -1.278062      -0.269329
H        0.921321       4.171352      -3.101785
H        2.067685       1.957725      -0.829101
H        1.673528       0.987379      -2.256843
H        0.961881      -1.056288      -2.120782
H       -0.588878       0.393699      -1.338633
H        0.290017       0.405283       0.280852
12

C        1.084622       1.638339      -1.276955
C        0.246343       0.568282      -0.759475
C        1.375569      -0.538005      -1.303398
O        0.525608       2.550519      -2.132778
O        1.535279       3.382233      -2.699624
O        1.942686      -1.098578      -0.408428
H        1.019699       4.058497      -3.163818
H        1.973815       1.944585      -0.740698
H        1.737046       0.806413      -2.286552
H        0.875959      -0.972602      -2.163101
H       -0.679204       0.373641      -1.273432
H        0.270045       0.358237       0.298969
12

C        1.004284       1.660564      -1.210830
C        0.183258       0.644091      -0.722223
C        1.474831      -0.511173      -1.451268
O        0.542231       2.512233      -2.128082
O        1.575438       3.333331      -2.660527
O        2.069631      -0.990430      -0.528611
H        1.092793       3.975513      -3.199068
H        1.887756       1.973233      -0.667354
H        1.877469       0.612685      -2.368809
H        0.878133      -0.937662      -2.246607
H       -0.754415       0.401492      -1.194919
H        0.256554       0.429248       0.328679
12

C        0.947905       1.753333      -1.154828
C        0.133914       0.790779      -0.680915
C        1.636064      -0.620396      -1.570868
O        0.523981       2.558223      -2.140486
O        1.586117       3.358188      -2.651689
O        2.178777      -1.056603      -0.613925
H        1.122383       4.012365      -3.192652
H        1.840827       2.072142      -0.632977
H        2.008693       0.433748      -2.476269
H        0.933359      -1.080352      -2.258715
H       -0.781090       0.528421      -1.183498
H        0.215408       0.513745       0.352830
12

C        0.860279       1.814367      -1.081232
C        0.039090       0.876240      -0.619226
C        1.753197      -0.641126      -1.704890
O        0.521887       2.550064      -2.162926
O        1.618158       3.338124      -2.612854
O        2.356466      -1.010750      -0.751383
H        1.193717       3.986145      -3.191782
H        1.759114       2.125786      -0.566357
H        2.083791       0.228866      -2.495110
H        0.906707      -1.135279      -2.191747
H       -0.865089       0.606694      -1.135214
H        0.170348       0.506206       0.378943
12

C        0.789008       1.894303      -1.030270
C       -0.063893       0.998585      -0.559907
C        1.826349      -0.706647      -1.802592
O        0.552163       2.533909      -2.206497
O        1.663123       3.336366      -2.581500
O        2.518916      -0.990001      -0.870765
H        1.270328       3.978382      -3.188117
H        1.705287       2.179543      -0.532265
H        2.127780       0.023740      -2.569996
H        0.851660      -1.186030      -1.988407
H       -0.967903       0.755945      -1.088635
H        0.116183       0.521705       0.383041
[GEOCONV]
energy
0.0
2.50610425157
11.260563073
30.9766041631
59.869178267
71.250393327
64.0191378684
40.8616675552
33.9894251134
max-force
6.52703142453e-05
0.00157495105225
0.00247803672638
0.00414900960694
0.00606522685343
0.00499480158817
0.00782734143715
0.00515726082697
6.32452427767e-05
max-step
1000.0
1000.0
1000.0
1000.0
1000.0
1000.0
1000.0
1000.0
1000.0
