[Molden Format]
[Geometries] (XYZ)
9

C       -2.479426      -0.294922       1.250465
C       -1.202119       0.361583       1.654979
C       -0.009321       0.023504       1.204168
H       -1.304560       1.167881       2.370677
H       -2.979973      -0.712734       2.123919
H       -3.152879       0.436780       0.804265
H       -2.299084      -1.091605       0.532866
H        0.887667       0.525994       1.524089
H        0.121095      -0.774881       0.491472
9

C       -2.457344      -0.266261       1.133695
C       -1.250456       0.318983       1.735347
C       -0.091433      -0.002527       1.198840
H       -1.326859       1.139064       2.425907
H       -2.812531      -0.784518       2.209060
H       -3.108572       0.499259       0.734093
H       -2.408104      -1.146190       0.510376
H        0.787892       0.561363       1.487068
H        0.077849      -0.852335       0.570363
9

C       -2.427005      -0.228577       1.022528
C       -1.309429       0.273664       1.818186
C       -0.157727      -0.035173       1.199904
H       -1.358907       1.112861       2.480036
H       -2.589324      -0.871706       2.354735
H       -3.039636       0.573315       0.635854
H       -2.501851      -1.156581       0.486885
H        0.701971       0.587924       1.454571
H        0.060579      -0.924044       0.655355
9

C       -2.311471      -0.177723       0.942410
C       -1.400551       0.236232       1.934578
C       -0.245680      -0.096195       1.164642
H       -1.474984       1.078673       2.591380
H       -2.317190      -0.881483       2.562377
H       -2.885563       0.654244       0.510883
H       -2.411143      -1.116437       0.444075
H        0.573723       0.585641       1.365360
H        0.000501      -1.017821       0.685639
9

C       -2.188802      -0.131234       0.865095
C       -1.455114       0.181645       2.047493
C       -0.356549      -0.128236       1.137336
H       -1.545336       1.033905       2.691333
H       -2.088829      -0.843983       2.673995
H       -2.698437       0.726552       0.401487
H       -2.354477      -1.079884       0.406429
H        0.408498       0.623429       1.238388
H       -0.063348      -1.076710       0.742775
9

C       -2.087595      -0.076477       0.795006
C       -1.520717       0.108540       2.116588
C       -0.453924      -0.130105       1.115960
H       -1.608486       0.999569       2.710745
H       -1.922222      -0.834447       2.730929
H       -2.516397       0.810973       0.325499
H       -2.398718      -1.014081       0.387192
H        0.248962       0.683822       1.079664
H       -0.069679      -1.091648       0.841830
9

C       -1.986155      -0.024202       0.713410
C       -1.605469       0.021829       2.159949
C       -0.546614      -0.116996       1.112574
H       -1.690235       0.962353       2.682221
H       -1.832400      -0.835070       2.775811
H       -2.330116       0.885491       0.246129
H       -2.472840      -0.912752       0.340641
H        0.093700       0.729756       0.915959
H       -0.048469      -1.068809       1.010206
[GEOCONV]
energy
0.0
18.5893390699
72.0323715557
144.947292114
74.5479919445
19.0828209287
-3.71779228944
max-force
3.02790904332e-05
0.00713854892057
0.00690182080831
0.00706430525489
0.00688257554128
0.00809874200785
7.9508401061e-05
max-step
1000.0
1000.0
1000.0
1000.0
1000.0
1000.0
1000.0
