[Molden Format]
[Geometries] (XYZ)
9

C       -2.479426      -0.294922       1.250465
C       -1.202119       0.361583       1.654979
C       -0.009321       0.023504       1.204168
H       -1.304560       1.167881       2.370677
H       -2.979973      -0.712734       2.123919
H       -3.152879       0.436780       0.804265
H       -2.299084      -1.091605       0.532866
H        0.887667       0.525994       1.524089
H        0.121095      -0.774881       0.491472
9

C       -2.469544      -0.266901       1.139684
C       -1.221042       0.313506       1.743284
C       -0.063790       0.006580       1.211684
H       -1.296375       1.139242       2.425477
H       -2.799280      -0.772979       2.176952
H       -3.125622       0.493112       0.756291
H       -2.426022      -1.156544       0.521931
H        0.816889       0.572512       1.494044
H        0.106850      -0.844921       0.586901
9

C       -2.442144      -0.220319       1.027544
C       -1.271981       0.256423       1.820064
C       -0.107658      -0.020482       1.223821
H       -1.323604       1.105512       2.470257
H       -2.544729      -0.859277       2.342723
H       -3.073743       0.569410       0.667538
H       -2.524251      -1.158435       0.505741
H        0.755664       0.596818       1.477056
H        0.113277      -0.910168       0.676616
9

C       -2.355366      -0.160914       0.933378
C       -1.374488       0.233633       1.917113
C       -0.183411      -0.084455       1.189574
H       -1.452672       1.064797       2.583572
H       -2.219862      -0.856931       2.640480
H       -2.973385       0.631308       0.504527
H       -2.414708      -1.101226       0.429120
H        0.653706       0.560829       1.432646
H        0.040182      -0.993060       0.680307
9

C       -2.197657      -0.126315       0.855985
C       -1.436262       0.188577       2.048698
C       -0.352273      -0.115504       1.130150
H       -1.534909       1.023682       2.709743
H       -2.033666      -0.791559       2.690014
H       -2.733913       0.704045       0.386920
H       -2.324865      -1.083381       0.394392
H        0.421353       0.625264       1.255219
H       -0.086259      -1.061652       0.710551
9

C       -2.092874      -0.076667       0.786387
C       -1.504850       0.109970       2.127446
C       -0.467044      -0.120305       1.100143
H       -1.596610       0.991396       2.734250
H       -1.897369      -0.795649       2.742205
H       -2.535223       0.794090       0.304955
H       -2.374705      -1.027455       0.373705
H        0.233605       0.697252       1.067559
H       -0.095033      -1.082112       0.807824
9

C       -1.986155      -0.024202       0.713410
C       -1.605469       0.021829       2.159949
C       -0.546614      -0.116996       1.112574
H       -1.690235       0.962353       2.682221
H       -1.832400      -0.835070       2.775811
H       -2.330116       0.885491       0.246129
H       -2.472840      -0.912752       0.340641
H        0.093700       0.729756       0.915959
H       -0.048469      -1.068809       1.010206
[GEOCONV]
energy
0.0
15.5706768095
67.6776440856
133.64052223
71.7377354762
16.7968811245
-3.71779228944
max-force
3.02790904332e-05
0.00607320112871
0.00528942411544
0.00480288489282
0.00773249669951
0.0066575210522
7.9508401061e-05
max-step
1000.0
1000.0
1000.0
1000.0
1000.0
1000.0
1000.0
