[Molden Format]
[Geometries] (XYZ)
12

C        1.038170       1.108114      -2.525685
C        0.393191       0.483808      -1.285014
C        1.419420       0.021984      -0.287958
O        1.815353       2.238117      -2.232764
O        0.959634       3.307893      -1.825490
O        1.320213       0.116204       0.900782
H        1.573854       3.903654      -1.378018
H        1.761151       0.425899      -2.981321
H        0.265164       1.366672      -3.259447
H        2.310901      -0.442839      -0.755260
H       -0.186635      -0.389192      -1.594017
H       -0.281516       1.199198      -0.811578
12

C        1.190514       1.076090      -2.452921
C        0.424135       0.580315      -1.209853
C        1.415576       0.182842      -0.240156
O        1.931022       2.273591      -1.942400
O        0.841733       3.151731      -1.670695
O        1.579765       0.312209       0.924061
H        1.290175       3.937146      -1.337442
H        1.925549       0.442575      -2.944660
H        0.490808       1.417770      -3.220429
H        2.056061      -0.551308      -0.958726
H       -0.391227      -0.134260      -1.368735
H       -0.249284       1.337370      -0.751972
12

C        1.307210       1.018548      -2.408823
C        0.400877       0.634195      -1.173048
C        1.432250       0.421826      -0.207753
O        1.975676       2.305696      -1.678503
O        0.781441       3.064106      -1.553067
O        1.817193       0.518003       0.897421
H        1.108298       3.925002      -1.300656
H        2.070642       0.446260      -2.917029
H        0.693452       1.416974      -3.220820
H        1.767862      -0.540359      -1.203173
H       -0.562744       0.113066      -1.251401
H       -0.333536       1.338939      -0.622381
12

C        1.294607       0.900203      -2.464372
C        0.263221       0.616604      -1.202421
C        1.383838       0.667017      -0.222163
O        1.957240       2.341528      -1.521935
O        0.738253       3.045964      -1.497377
O        1.886201       0.759112       0.835001
H        1.011526       3.936833      -1.277317
H        2.117853       0.390931      -2.997965
H        0.760022       1.315680      -3.316736
H        1.455518      -0.493920      -1.479353
H       -0.777521       0.272660      -1.304274
H       -0.547098       1.052195      -0.424210
12

C        1.297671       0.599372      -2.489827
C        0.352631       0.704920      -1.083944
C        1.306352       0.849535      -0.311076
O        1.826161       2.407336      -1.485797
O        0.636090       3.126670      -1.619778
O        1.817214       0.902593       0.758992
H        0.909173       4.026480      -1.420702
H        2.262472       0.334417      -2.777896
H        1.123627       1.486854      -3.116577
H        0.980627      -0.630073      -2.096469
H       -0.744366       0.594492      -1.240556
H       -0.295758       0.593965      -0.082410
12

C        1.176586       0.473161      -2.580206
C        0.263300       0.677843      -1.187349
C        1.264210       1.046496      -0.383416
O        1.743464       2.459034      -1.385687
O        0.547466       3.146967      -1.656831
O        1.799933       1.049365       0.672851
H        0.794077       4.061797      -1.488602
H        2.168288       0.137386      -2.811992
H        1.057822       1.344280      -3.203946
H        0.743854      -0.565853      -2.335028
H       -0.811634       0.722257      -1.390466
H       -0.294755       0.259052      -0.249907
12

C        1.068552       0.361160      -2.638715
C        0.233481       0.643020      -1.262482
C        1.231264       1.223374      -0.462536
O        1.621194       2.518936      -1.237050
O        0.454997       3.146204      -1.728915
O        1.790292       1.105897       0.576305
H        0.661965       4.079074      -1.599485
H        2.055301      -0.052976      -2.772801
H        1.042789       1.242302      -3.250302
H        0.480930      -0.531034      -2.597752
H       -0.808294       0.885245      -1.487669
H       -0.216437      -0.005700      -0.449422
12

C        1.095130       0.209306      -2.563408
C        0.364876       0.558228      -1.209134
C        1.333862       1.298043      -0.417682
O        1.579930       2.571355      -0.949442
O        0.524021       3.104750      -1.722941
O        1.952962       1.029368       0.570931
H        0.686701       4.054304      -1.649168
H        2.067222      -0.272449      -2.548729
H        1.179216       1.104946      -3.166633
H        0.399878      -0.543818      -2.814801
H       -0.623903       0.989158      -1.420764
H        0.031701      -0.247312      -0.528582
12

C        1.182856       0.119005      -2.511807
C        0.452711       0.517553      -1.225714
C        1.389961       1.275911      -0.328432
O        1.590855       2.590172      -0.592872
O        0.854574       3.127111      -1.677912
O        2.003756       0.826586       0.595129
H        1.119794       4.058756      -1.655180
H        2.058240      -0.481797      -2.277033
H        1.498077       1.002164      -3.061572
H        0.518633      -0.463242      -3.144691
H       -0.408933       1.140788      -1.467259
H        0.128377      -0.373498      -0.688428
[GEOCONV]
energy
0.0
22.3491061081
106.886129762
256.331175045
232.643677995
146.352741147
56.4095073372
-3.41343950817
-20.9772574404
max-force
2.60391305663e-05
0.00607053369568
0.00945139836864
0.00966840992031
0.0111513117657
0.00944760213978
0.00667316696019
0.00556794542425
8.75515679381e-05
max-step
1000.0
1000.0
1000.0
1000.0
1000.0
1000.0
1000.0
1000.0
1000.0
