[Molden Format]
[Geometries] (XYZ)
12

C        1.038170       1.108114      -2.525685
C        0.393191       0.483808      -1.285014
C        1.419420       0.021984      -0.287958
O        1.815353       2.238117      -2.232764
O        0.959634       3.307893      -1.825490
O        1.320213       0.116204       0.900782
H        1.573854       3.903654      -1.378018
H        1.761151       0.425899      -2.981321
H        0.265164       1.366672      -3.259447
H        2.310901      -0.442839      -0.755260
H       -0.186635      -0.389192      -1.594017
H       -0.281516       1.199198      -0.811578
12

C        1.167732       1.064046      -2.498388
C        0.341468       0.567840      -1.303496
C        1.374510       0.185278      -0.339128
O        1.820695       2.229674      -1.966076
O        0.731481       3.130773      -1.766936
O        1.625678       0.245560       0.808225
H        1.179180       3.954734      -1.543461
H        1.941461       0.475690      -2.970706
H        0.514257       1.437418      -3.298450
H        1.876353      -0.596016      -1.093845
H       -0.528460      -0.078487      -1.437608
H       -0.337391       1.339984      -0.831222
12

C        1.236168       0.866579      -2.534991
C        0.243463       0.531664      -1.329718
C        1.323373       0.494093      -0.363743
O        1.877909       2.187907      -1.729291
O        0.687185       2.947158      -1.644807
O        1.777554       0.565383       0.706841
H        1.009906       3.823325      -1.449763
H        2.050583       0.376771      -3.050652
H        0.653235       1.272684      -3.376134
H        1.550922      -0.572429      -1.493198
H       -0.775786       0.150139      -1.439464
H       -0.588987       1.105876      -0.625837
12

C        1.217855       0.577591      -2.629774
C        0.127422       0.472916      -1.355182
C        1.320328       0.742599      -0.376980
O        1.940072       2.198546      -1.464682
O        0.734285       2.910631      -1.547724
O        1.858651       0.857294       0.653009
H        0.995755       3.807838      -1.302890
H        2.100051       0.122809      -3.169657
H        0.697338       0.920102      -3.511367
H        1.247288      -0.519701      -1.887006
H       -0.901250       0.217610      -1.612715
H       -0.725546       0.629348      -0.443431
12

C        1.214792       0.306806      -2.564663
C        0.264237       0.557344      -1.225261
C        1.317170       0.864385      -0.404580
O        1.895341       2.219181      -1.406827
O        0.746914       3.004097      -1.605983
O        1.808548       0.935493       0.665481
H        1.040019       3.878694      -1.318848
H        2.247192       0.071592      -2.788176
H        0.999574       1.122979      -3.224282
H        0.881879      -0.744755      -2.318515
H       -0.799243       0.443921      -1.458698
H       -0.319913       0.164196      -0.251111
12

C        1.192618       0.231379      -2.565669
C        0.327725       0.552979      -1.238206
C        1.378326       0.996197      -0.414938
O        1.862145       2.291062      -1.221291
O        0.699212       3.003685      -1.579106
O        1.866488       0.964858       0.660115
H        0.949955       3.914176      -1.381798
H        2.213434      -0.129921      -2.657836
H        1.112671       1.073743      -3.214343
H        0.721345      -0.727629      -2.477209
H       -0.734785       0.707351      -1.402825
H       -0.147495      -0.078868      -0.382655
12

C        1.166587       0.156357      -2.553172
C        0.398248       0.501146      -1.223396
C        1.404466       1.153439      -0.404565
O        1.806228       2.368281      -1.030874
O        0.693219       3.041416      -1.592826
O        1.921959       0.967540       0.648303
H        0.939462       3.965601      -1.477317
H        2.172158      -0.261455      -2.565519
H        1.167864       1.029055      -3.171357
H        0.582944      -0.714468      -2.665793
H       -0.621895       0.849854      -1.399451
H        0.015519      -0.271332      -0.502777
12

C        1.132442       0.087116      -2.524049
C        0.450215       0.473031      -1.192100
C        1.410382       1.259997      -0.372205
O        1.717292       2.496123      -0.827201
O        0.724096       3.088400      -1.645333
O        2.008685       0.920917       0.613230
H        0.908188       4.029262      -1.546945
H        2.116738      -0.371875      -2.406755
H        1.212819       0.971562      -3.138735
H        0.487136      -0.683435      -2.875092
H       -0.503973       0.985409      -1.365137
H        0.174106      -0.406862      -0.591458
12

C        1.182856       0.119005      -2.511807
C        0.452711       0.517553      -1.225714
C        1.389961       1.275911      -0.328432
O        1.590855       2.590172      -0.592872
O        0.854574       3.127111      -1.677912
O        2.003756       0.826586       0.595129
H        1.119794       4.058756      -1.655180
H        2.058240      -0.481797      -2.277033
H        1.498077       1.002164      -3.061572
H        0.518633      -0.463242      -3.144691
H       -0.408933       1.140788      -1.467259
H        0.128377      -0.373498      -0.688428
[GEOCONV]
energy
0.0
31.0596695374
185.258676512
269.417421504
152.597168618
79.2920206633
15.957844501
-15.7317475979
-20.9772574404
max-force
2.60391305663e-05
0.00459479657286
0.00940784735718
0.014500759125
0.00509718438708
0.00790786397342
0.0055877733657
0.00301375466811
8.75515679381e-05
max-step
1000.0
1000.0
1000.0
1000.0
1000.0
1000.0
1000.0
1000.0
1000.0
