[Molden Format]
[Geometries] (XYZ)
12

C        0.651148       1.171165      -2.596572
C        0.374907       0.367067      -1.320293
C        1.568525       0.415353      -0.401654
O        0.862713       2.531339      -2.326427
O        2.064331       2.675944      -1.579081
O        1.533461       0.744576       0.750406
H        1.833098       3.321643      -0.896786
H        1.515047       0.754575      -3.129619
H       -0.219896       1.177169      -3.255074
H        2.510124       0.090324      -0.882482
H       -0.500058       0.763855      -0.802658
H        0.195610      -0.673390      -1.595560
12

C        0.700321       1.099610      -2.624652
C        0.350528       0.382852      -1.317712
C        1.643834       0.349043      -0.527410
O        0.812962       2.468515      -2.292767
O        1.925967       2.530698      -1.356929
O        1.822328       0.743064       0.592915
H        1.592035       3.298019      -0.892175
H        1.655061       0.796740      -3.074423
H       -0.089198       0.955559      -3.360963
H        2.453344      -0.140762      -1.105628
H       -0.542536       1.024536      -1.031551
H        0.036127      -0.648809      -1.361181
12

C        0.734315       1.083075      -2.597915
C        0.349988       0.452509      -1.261730
C        1.698193       0.278137      -0.586546
O        0.729295       2.458837      -2.290887
O        1.738330       2.512406      -1.156877
O        2.111678       0.679483       0.458046
H        1.325894       3.342555      -0.943133
H        1.740737       0.854969      -2.985954
H        0.012173       0.795445      -3.363502
H        2.334969      -0.360103      -1.233854
H       -0.579026       1.295252      -1.280293
H       -0.104318      -0.530760      -1.216461
12

C        0.759319       1.078214      -2.567847
C        0.373570       0.540807      -1.186249
C        1.759474       0.201157      -0.650071
O        0.609168       2.434052      -2.354490
O        1.578735       2.498468      -0.986575
O        2.337721       0.567935       0.323620
H        1.158079       3.367163      -1.019777
H        1.807582       0.927800      -2.884174
H        0.113798       0.653988      -3.346923
H        2.217928      -0.548056      -1.330635
H       -0.642410       1.544580      -1.521230
H       -0.123145      -0.432877      -1.126004
12

C        0.743716       1.140376      -2.559935
C        0.468222       0.705564      -1.137387
C        1.858966       0.231720      -0.599817
O        0.423227       2.477064      -2.439555
O        1.516304       2.416001      -0.766546
O        2.472422       0.613564       0.346210
H        1.102562       3.279872      -0.872071
H        1.792112       1.014527      -2.869136
H        0.112021       0.635250      -3.310305
H        2.241297      -0.604203      -1.230773
H       -0.658589       1.886306      -1.744896
H       -0.029047      -0.249205      -0.997391
12

C        0.735760       1.273612      -2.492659
C        0.559700       0.916572      -1.031786
C        1.938945       0.288613      -0.520624
O        0.279391       2.578018      -2.465508
O        1.373236       2.342374      -0.552957
O        2.677484       0.657085       0.325282
H        0.973661       3.194173      -0.765521
H        1.795082       1.195875      -2.768247
H        0.159167       0.687814      -3.227346
H        2.164763      -0.643606      -1.091283
H       -0.691616       2.161413      -1.939106
H        0.011010       0.034541      -0.764500
12

C        0.782228       1.392603      -2.378371
C        0.671967       1.070438      -0.906062
C        1.992423       0.320877      -0.478088
O        0.183737       2.645006      -2.435599
O        1.251718       2.366070      -0.318053
O        2.847632       0.696509       0.249019
H        0.904973       3.185170      -0.685142
H        1.842137       1.416856      -2.647450
H        0.266966       0.718712      -3.076893
H        2.047649      -0.692673      -0.948951
H       -0.744826       2.291244      -2.044647
H       -0.012918       0.311857      -0.560728
12

C        0.835113       1.340434      -2.409288
C        0.807003       1.037203      -0.919796
C        2.038041       0.175960      -0.583696
O        0.097276       2.515308      -2.590147
O        1.195052       2.265965      -0.247792
O        2.994836       0.524992       0.015292
H        0.888459       3.046908      -0.719360
H        1.875760       1.512461      -2.701189
H        0.423488       0.536474      -3.036203
H        1.943862      -0.860608      -0.982276
H       -0.805962       2.225011      -2.309366
H       -0.021798       0.424162      -0.570372
12

C        0.837473       1.151716      -2.466896
C        0.975598       1.063251      -0.927586
C        2.052466       0.049899      -0.594097
O       -0.037623       2.189624      -2.819518
O        1.267332       2.319962      -0.390183
O        3.147077       0.296336      -0.190124
H        1.021318       2.992228      -1.041968
H        1.804531       1.422745      -2.897771
H        0.516011       0.186960      -2.876520
H        1.716860      -0.991821      -0.784331
H       -0.933551       1.968825      -2.538072
H        0.021516       0.689896      -0.508735
[GEOCONV]
energy
0.0
12.3222350252
48.4599438233
109.023360074
151.754866454
74.2331526328
11.3651664739
-26.3448403655
-37.9998574249
max-force
3.14571342216e-05
0.00454681011141
0.00859276659785
0.00736273311621
0.00798482451603
0.00873351610567
0.00965816474268
0.00548724466781
6.14896431748e-05
max-step
1000.0
1000.0
1000.0
1000.0
1000.0
1000.0
1000.0
1000.0
1000.0
