[Molden Format]
[Geometries] (XYZ)
12

C        0.651148       1.171165      -2.596572
C        0.374907       0.367067      -1.320293
C        1.568525       0.415353      -0.401654
O        0.862713       2.531339      -2.326427
O        2.064331       2.675944      -1.579081
O        1.533461       0.744576       0.750406
H        1.833098       3.321643      -0.896786
H        1.515047       0.754575      -3.129619
H       -0.219896       1.177169      -3.255074
H        2.510124       0.090324      -0.882482
H       -0.500058       0.763855      -0.802658
H        0.195610      -0.673390      -1.595560
12

C        0.690787       1.148831      -2.606909
C        0.340734       0.439747      -1.294372
C        1.623783       0.374973      -0.496212
O        0.798637       2.521826      -2.272642
O        1.899663       2.613253      -1.353846
O        1.790138       0.743631       0.636597
H        1.573811       3.398069      -0.899827
H        1.646982       0.848957      -3.057501
H       -0.102119       1.004081      -3.342094
H        2.427715      -0.126939      -1.073601
H       -0.510644       1.071463      -1.002776
H        0.007943      -0.595454      -1.319494
12

C        0.725821       1.148487      -2.578688
C        0.336639       0.513390      -1.230982
C        1.673322       0.314790      -0.544361
O        0.727193       2.520325      -2.256884
O        1.704372       2.593655      -1.142722
O        2.097351       0.714033       0.497605
H        1.302315       3.441255      -0.945806
H        1.732381       0.926191      -2.968163
H        0.003037       0.867155      -3.345253
H        2.293342      -0.343553      -1.188027
H       -0.538062       1.330156      -1.250870
H       -0.136816      -0.464495      -1.179161
12

C        0.779328       1.158329      -2.534861
C        0.390768       0.629533      -1.135192
C        1.751720       0.234786      -0.585244
O        0.612973       2.514242      -2.297701
O        1.553379       2.641491      -0.970112
O        2.324973       0.567125       0.404392
H        1.151176       3.520200      -1.027496
H        1.825642       1.028436      -2.864710
H        0.127675       0.732436      -3.306813
H        2.182021      -0.529603      -1.269595
H       -0.538005       1.615007      -1.457724
H       -0.109053      -0.349679      -1.079749
12

C        0.762555       1.132652      -2.588490
C        0.520678       0.675012      -1.163981
C        1.865338       0.231524      -0.562785
O        0.428170       2.476479      -2.420550
O        1.625649       2.555282      -0.803788
O        2.363672       0.590137       0.455177
H        1.215313       3.424074      -0.862677
H        1.789150       1.012544      -2.951976
H        0.086834       0.653010      -3.313284
H        2.302718      -0.584256      -1.182931
H       -0.495338       1.918135      -1.705645
H        0.038000      -0.301692      -1.052555
12

C        0.767426       1.160686      -2.582023
C        0.593325       0.824417      -1.110556
C        1.959380       0.199064      -0.554745
O        0.327915       2.483100      -2.543790
O        1.456957       2.279705      -0.670776
O        2.653345       0.566337       0.327686
H        1.052896       3.137616      -0.837861
H        1.815864       1.061588      -2.881835
H        0.164578       0.579600      -3.298256
H        2.211015      -0.728969      -1.126339
H       -0.562362       2.107451      -1.996246
H        0.058395      -0.074866      -0.859013
12

C        0.820135       1.194674      -2.545652
C        0.692660       0.891398      -1.065472
C        2.010811       0.134111      -0.608556
O        0.257611       2.469099      -2.600584
O        1.314807       2.181828      -0.510473
O        2.853177       0.506774       0.132576
H        0.967252       3.006918      -0.860980
H        1.879876       1.184524      -2.811729
H        0.289517       0.532406      -3.245134
H        2.077148      -0.875828      -1.087282
H       -0.650457       2.138287      -2.201060
H        0.019333       0.121594      -0.722763
12

C        0.862529       1.225275      -2.514343
C        0.819201       0.937312      -1.014135
C        2.043105       0.063136      -0.657241
O        0.153722       2.426984      -2.699264
O        1.223337       2.148712      -0.369671
O        2.996659       0.412487      -0.052549
H        0.912532       2.932883      -0.836730
H        1.908449       1.362055      -2.803498
H        0.427707       0.433276      -3.140225
H        1.948287      -0.974062      -1.054768
H       -0.731074       2.164723      -2.416981
H       -0.007436       0.327857      -0.659796
12

C        0.837473       1.151716      -2.466896
C        0.975598       1.063251      -0.927586
C        2.052466       0.049899      -0.594097
O       -0.037623       2.189624      -2.819518
O        1.267332       2.319962      -0.390183
O        3.147077       0.296336      -0.190124
H        1.021318       2.992228      -1.041968
H        1.804531       1.422745      -2.897771
H        0.516011       0.186960      -2.876520
H        1.716860      -0.991821      -0.784331
H       -0.933551       1.968825      -2.538072
H        0.021516       0.689896      -0.508735
[GEOCONV]
energy
0.0
10.2514848987
42.3554429075
97.7207745681
140.525429652
76.183449015
15.1729036369
-26.2112987629
-37.9998574249
max-force
3.14571342216e-05
0.00265165226112
0.00668918928701
0.00618563011619
0.00483968563995
0.00952158348057
0.0089749064512
0.00355036658857
6.14896431748e-05
max-step
1000.0
1000.0
1000.0
1000.0
1000.0
1000.0
1000.0
1000.0
1000.0
