 Entering Gaussian System, Link 0=g16
 Initial command:
 /apps/cent7/gaussian/g16-B.01/g16-haswell/g16/l1.exe "/scratch/brown/zhao922/pyGSM/new-benchmarking/R1-3/IRC-folder/Gau-220897.inp" -scrdir="/scratch/brown/zhao922/pyGSM/new-benchmarking/R1-3/IRC-folder/"
 Entering Link 1 = /apps/cent7/gaussian/g16-B.01/g16-haswell/g16/l1.exe PID=    220899.
  
 Copyright (c) 1988-2017, Gaussian, Inc.  All Rights Reserved.
  
 This is part of the Gaussian(R) 16 program.  It is based on
 the Gaussian(R) 09 system (copyright 2009, Gaussian, Inc.),
 the Gaussian(R) 03 system (copyright 2003, Gaussian, Inc.),
 the Gaussian(R) 98 system (copyright 1998, Gaussian, Inc.),
 the Gaussian(R) 94 system (copyright 1995, Gaussian, Inc.),
 the Gaussian 92(TM) system (copyright 1992, Gaussian, Inc.),
 the Gaussian 90(TM) system (copyright 1990, Gaussian, Inc.),
 the Gaussian 88(TM) system (copyright 1988, Gaussian, Inc.),
 the Gaussian 86(TM) system (copyright 1986, Carnegie Mellon
 University), and the Gaussian 82(TM) system (copyright 1983,
 Carnegie Mellon University). Gaussian is a federally registered
 trademark of Gaussian, Inc.
  
 This software contains proprietary and confidential information,
 including trade secrets, belonging to Gaussian, Inc.
  
 This software is provided under written license and may be
 used, copied, transmitted, or stored only in accord with that
 written license.
  
 The following legend is applicable only to US Government
 contracts under FAR:
  
                    RESTRICTED RIGHTS LEGEND
  
 Use, reproduction and disclosure by the US Government is
 subject to restrictions as set forth in subparagraphs (a)
 and (c) of the Commercial Computer Software - Restricted
 Rights clause in FAR 52.227-19.
  
 Gaussian, Inc.
 340 Quinnipiac St., Bldg. 40, Wallingford CT 06492
  
  
 ---------------------------------------------------------------
 Warning -- This program may not be used in any manner that
 competes with the business of Gaussian, Inc. or will provide
 assistance to any competitor of Gaussian, Inc.  The licensee
 of this program is prohibited from giving any competitor of
 Gaussian, Inc. access to this program.  By using this program,
 the user acknowledges that Gaussian, Inc. is engaged in the
 business of creating and licensing software in the field of
 computational chemistry and represents and warrants to the
 licensee that it is not a competitor of Gaussian, Inc. and that
 it will not use this program in any manner prohibited above.
 ---------------------------------------------------------------
  

 Cite this work as:
 Gaussian 16, Revision B.01,
 M. J. Frisch, G. W. Trucks, H. B. Schlegel, G. E. Scuseria, 
 M. A. Robb, J. R. Cheeseman, G. Scalmani, V. Barone, 
 G. A. Petersson, H. Nakatsuji, X. Li, M. Caricato, A. V. Marenich, 
 J. Bloino, B. G. Janesko, R. Gomperts, B. Mennucci, H. P. Hratchian, 
 J. V. Ortiz, A. F. Izmaylov, J. L. Sonnenberg, D. Williams-Young, 
 F. Ding, F. Lipparini, F. Egidi, J. Goings, B. Peng, A. Petrone, 
 T. Henderson, D. Ranasinghe, V. G. Zakrzewski, J. Gao, N. Rega, 
 G. Zheng, W. Liang, M. Hada, M. Ehara, K. Toyota, R. Fukuda, 
 J. Hasegawa, M. Ishida, T. Nakajima, Y. Honda, O. Kitao, H. Nakai, 
 T. Vreven, K. Throssell, J. A. Montgomery, Jr., J. E. Peralta, 
 F. Ogliaro, M. J. Bearpark, J. J. Heyd, E. N. Brothers, K. N. Kudin, 
 V. N. Staroverov, T. A. Keith, R. Kobayashi, J. Normand, 
 K. Raghavachari, A. P. Rendell, J. C. Burant, S. S. Iyengar, 
 J. Tomasi, M. Cossi, J. M. Millam, M. Klene, C. Adamo, R. Cammi, 
 J. W. Ochterski, R. L. Martin, K. Morokuma, O. Farkas, 
 J. B. Foresman, and D. J. Fox, Gaussian, Inc., Wallingford CT, 2016.
 
 ******************************************
 Gaussian 16:  ES64L-G16RevB.01 20-Dec-2017
                17-Jul-2020 
 ******************************************
 %NProcShared=24
 Will use up to   24 processors via shared memory.
 %Mem=60GB
 ----------------------------------------------------------------------
 # B3LYP/6-31G** IRC=(CALCALL, maxpoints=60, StepSize=10, maxcyc=100, R
 eport=Cartesians)
 ----------------------------------------------------------------------
 1/6=100,10=4,18=10,26=3,38=1,39=10,42=60,44=3,71=1,129=10,172=1/1,23;
 2/12=2,17=6,18=5,29=1,40=1/2;
 3/5=1,6=6,7=101,11=2,25=1,30=1,71=2,74=-5,140=1/1,2,3;
 4//1;
 5/5=2,38=5/2;
 8/6=4,10=90,11=11/1;
 11/6=1,8=1,9=11,15=111,16=1/1,2,10;
 10/6=1,13=1/2;
 6/7=2,8=2,9=2,10=2,18=1,28=1/1;
 7/10=1,25=1/1,2,3,16;
 1/6=100,10=4,18=10,26=3,39=10,42=60,44=3,71=1,129=10/23(2);
 2/29=1/2;
 99/5=20/99;
 2/29=1/2;
 3/5=1,6=6,7=101,11=2,25=1,30=1,71=2,74=-5,140=1/1,2,3;
 4/5=5,16=3,69=1/1;
 5/5=2,38=5/2;
 8/6=4,10=90,11=11/1;
 11/6=1,8=1,9=11,15=111,16=1/1,2,10;
 10/6=1,13=1/2;
 7/10=1,25=1/1,2,3,16;
 1/6=100,10=4,18=10,26=3,39=10,42=60,44=3,71=1,129=10/23(-8);
 2/29=1/2;
 6/7=2,8=2,9=2,10=2,18=1,19=2,28=1/1;
 99/5=20/99;
 ----------
 pp_1_0 IRC
 ----------
 Symbolic Z-matrix:
 Charge =  0 Multiplicity = 1
 C                    -2.35186   0.00053   0.83441 
 C                    -0.76967   0.18391   1.892 
 C                     0.21569  -0.60664   1.4636 
 H                    -1.1321    0.67346   2.79517 
 H                    -2.8679   -0.61318   1.56509 
 H                    -2.94996   0.88564   0.59258 
 H                    -2.03958  -0.57453  -0.03465 
 H                    -1.23478   0.77119   0.96774 
 H                     0.99689  -0.70782   2.23462 
 
 IRC-IRC-IRC-IRC-IRC-IRC-IRC-IRC-IRC-IRC-IRC-IRC-IRC-IRC-IRC-IRC-IRC-IRC
 ------------------------------------------------------------------------
 INPUT DATA FOR L123
 ------------------------------------------------------------------------
 GENERAL PARAMETERS:
 Follow reaction path in both directions.
 Maximum points per path      =  60
 Step size                    =   0.100 bohr
 Integration scheme           = HPC                                 
    Redo corrector integration= Yes                                 
    DWI Weight Power          =  2
    DWI will use Hessian update vectors when possible.
    Max correction cycles     = 100
 Initial Hessian              = CalcFC
 Hessian evaluation           = Analytic at all predictor steps
                              = Update at all corrector steps
 Hessian updating method      = Bofill                              
 ------------------------------------------------------------------------
 IRC-IRC-IRC-IRC-IRC-IRC-IRC-IRC-IRC-IRC-IRC-IRC-IRC-IRC-IRC-IRC-IRC-IRC
                          Input orientation:                          
 ---------------------------------------------------------------------
 Center     Atomic      Atomic             Coordinates (Angstroms)
 Number     Number       Type             X           Y           Z
 ---------------------------------------------------------------------
      1          6           0       -2.351856    0.000531    0.834409
      2          6           0       -0.769672    0.183907    1.892002
      3          6           0        0.215693   -0.606636    1.463597
      4          1           0       -1.132097    0.673456    2.795171
      5          1           0       -2.867899   -0.613176    1.565087
      6          1           0       -2.949961    0.885636    0.592576
      7          1           0       -2.039578   -0.574529   -0.034650
      8          1           0       -1.234782    0.771187    0.967741
      9          1           0        0.996887   -0.707819    2.234621
 ---------------------------------------------------------------------
                    Distance matrix (angstroms):
                    1          2          3          4          5
     1  C    0.000000
     2  C    1.911919   0.000000
     3  C    2.712349   1.333954   0.000000
     4  H    2.405250   1.089369   2.286539   0.000000
     5  H    1.084817   2.268209   3.085269   2.486270   0.000000
     6  H    1.095273   2.633361   3.606511   2.863752   1.788561
     7  H    1.087876   2.428966   2.707771   3.223178   1.801879
     8  H    1.363650   1.189741   2.061103   1.832920   2.222691
     9  H    3.698166   2.008306   1.102261   2.598982   3.923494
                    6          7          8          9
     6  H    0.000000
     7  H    1.831472   0.000000
     8  H    1.759456   1.861031   0.000000
     9  H    4.562129   3.793083   2.961890   0.000000
 Symmetry turned off by external request.
 Stoichiometry    C3H6
 Framework group  C1[X(C3H6)]
 Deg. of freedom    21
 Full point group                 C1      NOp   1
 Rotational constants (GHZ):          40.1691418           8.1117400           7.2078655
 Standard basis: 6-31G(d,p) (6D, 7F)
    75 basis functions,   126 primitive gaussians,    75 cartesian basis functions
    12 alpha electrons       12 beta electrons
       nuclear repulsion energy        67.8133435082 Hartrees.
 NAtoms=    9 NActive=    9 NUniq=    9 SFac= 1.00D+00 NAtFMM=   60 NAOKFM=F Big=F
 Integral buffers will be    131072 words long.
 Raffenetti 2 integral format.
 Two-electron integral symmetry is turned off.
 One-electron integrals computed using PRISM.
 NBasis=    75 RedAO= T EigKep=  4.94D-03  NBF=    75
 NBsUse=    75 1.00D-06 EigRej= -1.00D+00 NBFU=    75
 ExpMin= 1.61D-01 ExpMax= 3.05D+03 ExpMxC= 4.57D+02 IAcc=3 IRadAn=         5 AccDes= 0.00D+00
 Harris functional with IExCor=  402 and IRadAn=       5 diagonalized for initial guess.
 HarFok:  IExCor=  402 AccDes= 0.00D+00 IRadAn=         5 IDoV= 1 UseB2=F ITyADJ=14
 ICtDFT=  3500011 ScaDFX=  1.000000  1.000000  1.000000  1.000000
 FoFCou: FMM=F IPFlag=           0 FMFlag=      100000 FMFlg1=           0
         NFxFlg=           0 DoJE=T BraDBF=F KetDBF=T FulRan=T
         wScrn=  0.000000 ICntrl=       500 IOpCl=  0 I1Cent=   200000004 NGrid=           0
         NMat0=    1 NMatS0=      1 NMatT0=    0 NMatD0=    1 NMtDS0=    0 NMtDT0=    0
 Symmetry not used in FoFCou.
 Keep R1 ints in memory in canonical form, NReq=25608061.
 Requested convergence on RMS density matrix=1.00D-08 within 128 cycles.
 Requested convergence on MAX density matrix=1.00D-06.
 Requested convergence on             energy=1.00D-06.
 No special actions if energy rises.
 Integral accuracy reduced to 1.0D-05 until final iterations.
 Initial convergence to 1.0D-05 achieved.  Increase integral accuracy.
 SCF Done:  E(RB3LYP) =  -117.727596437     A.U. after   14 cycles
            NFock= 14  Conv=0.33D-08     -V/T= 2.0095
 DoSCS=F DFT=T ScalE2(SS,OS)=  1.000000  1.000000
 Range of M.O.s used for correlation:     1    75
 NBasis=    75 NAE=    12 NBE=    12 NFC=     0 NFV=     0
 NROrb=     75 NOA=    12 NOB=    12 NVA=    63 NVB=    63
 Symmetrizing basis deriv contribution to polar:
 IMax=3 JMax=2 DiffMx= 0.00D+00
 G2DrvN: will do    10 centers at a time, making    1 passes.
 Calling FoFCou, ICntrl=  3107 FMM=F I1Cent=   0 AccDes= 0.00D+00.
 End of G2Drv F.D. properties file   721 does not exist.
 End of G2Drv F.D. properties file   722 does not exist.
 End of G2Drv F.D. properties file   788 does not exist.
          IDoAtm=111111111
          Differentiating once with respect to nuclear coordinates.
 Keep R1 ints in memory in canonical form, NReq=25532399.
          There are    30 degrees of freedom in the 1st order CPHF.  IDoFFX=6 NUNeed=     0.
     24 vectors produced by pass  0 Test12= 2.52D-15 3.33D-09 XBig12= 1.52D-01 1.46D-01.
 AX will form    24 AO Fock derivatives at one time.
     24 vectors produced by pass  1 Test12= 2.52D-15 3.33D-09 XBig12= 5.73D-03 2.02D-02.
     24 vectors produced by pass  2 Test12= 2.52D-15 3.33D-09 XBig12= 4.80D-05 1.47D-03.
     24 vectors produced by pass  3 Test12= 2.52D-15 3.33D-09 XBig12= 9.73D-08 8.28D-05.
     24 vectors produced by pass  4 Test12= 2.52D-15 3.33D-09 XBig12= 9.73D-11 1.92D-06.
     10 vectors produced by pass  5 Test12= 2.52D-15 3.33D-09 XBig12= 4.87D-14 3.79D-08.
 InvSVY:  IOpt=1 It=  1 EMax= 1.11D-15
 Solved reduced A of dimension   130 with    24 vectors.
 End of Minotr F.D. properties file   721 does not exist.
 End of Minotr F.D. properties file   722 does not exist.
 End of Minotr F.D. properties file   788 does not exist.

 **********************************************************************

            Population analysis using the SCF Density.

 **********************************************************************

 Alpha  occ. eigenvalues --  -10.23628 -10.20795 -10.15022  -0.79854  -0.69544
 Alpha  occ. eigenvalues --   -0.55825  -0.48356  -0.45358  -0.41859  -0.37343
 Alpha  occ. eigenvalues --   -0.27435  -0.18258
 Alpha virt. eigenvalues --   -0.01994   0.04672   0.08901   0.12661   0.14400
 Alpha virt. eigenvalues --    0.15234   0.19492   0.20275   0.36471   0.45935
 Alpha virt. eigenvalues --    0.51089   0.53691   0.58198   0.59317   0.65627
 Alpha virt. eigenvalues --    0.70061   0.70568   0.75662   0.80748   0.82295
 Alpha virt. eigenvalues --    0.85205   0.86418   0.91100   0.92730   0.95019
 Alpha virt. eigenvalues --    1.11096   1.15373   1.38969   1.44936   1.51142
 Alpha virt. eigenvalues --    1.59039   1.61801   1.74567   1.85453   1.92924
 Alpha virt. eigenvalues --    1.97420   1.99005   2.01703   2.03266   2.09681
 Alpha virt. eigenvalues --    2.14550   2.23555   2.31337   2.34673   2.39605
 Alpha virt. eigenvalues --    2.48525   2.49019   2.55572   2.69732   2.72103
 Alpha virt. eigenvalues --    2.74833   2.83026   2.91229   2.93591   3.09612
 Alpha virt. eigenvalues --    3.22368   3.35385   3.41983   3.43571   3.58333
 Alpha virt. eigenvalues --    4.19143   4.40307   4.51452
          Condensed to atoms (all electrons):
               1          2          3          4          5          6
     1  C    5.281629   0.037333  -0.055965  -0.066017   0.382930   0.339415
     2  C    0.037333   5.098588   0.684875   0.361216  -0.013420  -0.008528
     3  C   -0.055965   0.684875   5.286524  -0.040029  -0.002758   0.002881
     4  H   -0.066017   0.361216  -0.040029   0.673838  -0.001987   0.005779
     5  H    0.382930  -0.013420  -0.002758  -0.001987   0.512750  -0.030701
     6  H    0.339415  -0.008528   0.002881   0.005779  -0.030701   0.598432
     7  H    0.340081  -0.000903   0.016134   0.004948  -0.018755  -0.016323
     8  H    0.128690   0.205490  -0.021582  -0.040644  -0.004121  -0.025947
     9  H    0.005228  -0.066695   0.342081  -0.011457  -0.000038  -0.000153
               7          8          9
     1  C    0.340081   0.128690   0.005228
     2  C   -0.000903   0.205490  -0.066695
     3  C    0.016134  -0.021582   0.342081
     4  H    0.004948  -0.040644  -0.011457
     5  H   -0.018755  -0.004121  -0.000038
     6  H   -0.016323  -0.025947  -0.000153
     7  H    0.519422  -0.018239  -0.000508
     8  H   -0.018239   0.544293   0.004687
     9  H   -0.000508   0.004687   0.650528
 Mulliken charges:
               1
     1  C   -0.393324
     2  C   -0.297957
     3  C   -0.212162
     4  H    0.114353
     5  H    0.176099
     6  H    0.135146
     7  H    0.174143
     8  H    0.227374
     9  H    0.076327
 Sum of Mulliken charges =   0.00000
 Mulliken charges with hydrogens summed into heavy atoms:
               1
     1  C    0.092064
     2  C    0.043771
     3  C   -0.135834
 APT charges:
               1
     1  C   -1.084066
     2  C   -0.414034
     3  C   -0.903224
     4  H    0.570218
     5  H    0.631369
     6  H    0.447042
     7  H    0.096153
     8  H    0.226405
     9  H    0.430138
 Sum of APT charges =   0.00000
 APT charges with hydrogens summed into heavy atoms:
               1
     1  C    0.090498
     2  C    0.382589
     3  C   -0.473087
 Electronic spatial extent (au):  <R**2>=            477.2615
 Charge=              0.0000 electrons
 Dipole moment (field-independent basis, Debye):
    X=             -2.8978    Y=              1.6111    Z=              0.5741  Tot=              3.3649
 Quadrupole moment (field-independent basis, Debye-Ang):
   XX=            -14.5078   YY=            -21.3336   ZZ=            -18.1234
   XY=             -0.4955   XZ=             -2.4110   YZ=              1.0217
 Traceless Quadrupole moment (field-independent basis, Debye-Ang):
   XX=              3.4805   YY=             -3.3453   ZZ=             -0.1352
   XY=             -0.4955   XZ=             -2.4110   YZ=              1.0217
 Octapole moment (field-independent basis, Debye-Ang**2):
  XXX=             51.5389  YYY=              8.5192  ZZZ=            -78.3672  XYY=             19.0819
  XXY=              3.1994  XXZ=            -21.0028  XZZ=             18.2810  YZZ=              2.6208
  YYZ=            -28.8959  XYZ=             -0.9592
 Hexadecapole moment (field-independent basis, Debye-Ang**3):
 XXXX=           -288.6442 YYYY=            -50.6212 ZZZZ=           -280.3495 XXXY=              8.5808
 XXXZ=             49.5976 YYYX=              9.0101 YYYZ=              8.3744 ZZZX=             59.3173
 ZZZY=              9.5895 XXYY=            -56.5638 XXZZ=            -90.9058 YYZZ=            -57.2270
 XXYZ=              1.1538 YYXZ=             20.0022 ZZXY=              1.3771
 N-N= 6.781334350824D+01 E-N=-4.073260278805D+02  KE= 1.166171254428D+02
  Exact polarizability:   0.000   0.000   0.000   0.000   0.000   0.000
 Approx polarizability:  84.508 -20.669  44.053   9.203   2.496  45.952
 Calling FoFJK, ICntrl=    100127 FMM=F ISym2X=0 I1Cent= 0 IOpClX= 0 NMat=1 NMatS=1 NMatT=0.
 -------------------------------------------------------------------
 Center     Atomic                   Forces (Hartrees/Bohr)
 Number     Number              X              Y              Z
 -------------------------------------------------------------------
      1        6           0.000001753    0.000002259    0.000005334
      2        6           0.000003043    0.000000076    0.000000833
      3        6          -0.000001563   -0.000000029   -0.000001183
      4        1           0.000001203   -0.000000395    0.000002183
      5        1           0.000001268   -0.000000211   -0.000000503
      6        1           0.000000488   -0.000000186   -0.000000711
      7        1          -0.000001460   -0.000000036   -0.000001653
      8        1          -0.000005310   -0.000001399   -0.000005332
      9        1           0.000000579   -0.000000079    0.000001032
 -------------------------------------------------------------------
 Cartesian Forces:  Max     0.000005334 RMS     0.000002146
 IRC-IRC-IRC-IRC-IRC-IRC-IRC-IRC-IRC-IRC-IRC-IRC-IRC-IRC-IRC-IRC-IRC-IRC
          ******** Start new reaction path calculation ********
 Supplied step size of   0.1000 bohr.
    Integration on MW PES will use step size of   0.1223 sqrt(amu)*bohr.
 Point Number:   0          Path Number:   1
 Calculating another point on the path.
 IRC-IRC-IRC-IRC-IRC-IRC-IRC-IRC-IRC-IRC-IRC-IRC-IRC-IRC-IRC-IRC-IRC-IRC
                          Input orientation:                          
 ---------------------------------------------------------------------
 Center     Atomic      Atomic             Coordinates (Angstroms)
 Number     Number       Type             X           Y           Z
 ---------------------------------------------------------------------
      1          6           0       -1.303531    0.113316   -0.560232
      2          6           0        0.288595    0.291760    0.506304
      3          6           0        1.264613   -0.495047    0.074403
      4          1           0       -0.086120    0.786470    1.400263
      5          1           0       -1.807297   -0.498990    0.179836
      6          1           0       -1.912466    0.991084   -0.803850
      7          1           0       -0.993714   -0.466713   -1.427020
      8          1           0       -0.224490    0.859242   -0.430660
      9          1           0        2.051229   -0.599821    0.837643
 ---------------------------------------------------------------------
                    Distance matrix (angstroms):
                    1          2          3          4          5
     1  C    0.000000
     2  C    1.924631   0.000000
     3  C    2.714448   1.325977   0.000000
     4  H    2.403906   1.088260   2.285753   0.000000
     5  H    1.084620   2.263764   3.073721   2.470688   0.000000
     6  H    1.095732   2.655227   3.615764   2.869760   1.788581
     7  H    1.087999   2.440766   2.712032   3.222999   1.801374
     8  H    1.318152   1.209625   2.075238   1.837585   2.173195
     9  H    3.703651   2.002893   1.101035   2.608947   3.915495
                    6          7          8          9
     6  H    0.000000
     7  H    1.832381   0.000000
     8  H    1.733759   1.828277   0.000000
     9  H    4.575627   3.797117   2.986026   0.000000
 Symmetry turned off by external request.
 Stoichiometry    C3H6
 Framework group  C1[X(C3H6)]
 Deg. of freedom    21
 Full point group                 C1      NOp   1
 Rotational constants (GHZ):          40.3986615           8.0878746           7.1834158
 Standard basis: 6-31G(d,p) (6D, 7F)
    75 basis functions,   126 primitive gaussians,    75 cartesian basis functions
    12 alpha electrons       12 beta electrons
       nuclear repulsion energy        67.8623790326 Hartrees.
 NAtoms=    9 NActive=    9 NUniq=    9 SFac= 1.00D+00 NAtFMM=   60 NAOKFM=F Big=F
 Integral buffers will be    131072 words long.
 Raffenetti 2 integral format.
 Two-electron integral symmetry is turned off.
 One-electron integrals computed using PRISM.
 NBasis=    75 RedAO= T EigKep=  4.82D-03  NBF=    75
 NBsUse=    75 1.00D-06 EigRej= -1.00D+00 NBFU=    75
 Initial guess from the checkpoint file:  "/scratch/brown/zhao922/pyGSM/new-benchmarking/R1-3/IRC-folder/Gau-220899.chk"
 B after Tr=     1.981424    0.205181   -2.629988
         Rot=    1.000000    0.000550   -0.000332   -0.000236 Ang=   0.08 deg.
 ExpMin= 1.61D-01 ExpMax= 3.05D+03 ExpMxC= 4.57D+02 IAcc=3 IRadAn=         5 AccDes= 0.00D+00
 Harris functional with IExCor=  402 and IRadAn=       5 diagonalized for initial guess.
 HarFok:  IExCor=  402 AccDes= 0.00D+00 IRadAn=         5 IDoV= 1 UseB2=F ITyADJ=14
 ICtDFT=  3500011 ScaDFX=  1.000000  1.000000  1.000000  1.000000
 FoFCou: FMM=F IPFlag=           0 FMFlag=      100000 FMFlg1=           0
         NFxFlg=           0 DoJE=T BraDBF=F KetDBF=T FulRan=T
         wScrn=  0.000000 ICntrl=       500 IOpCl=  0 I1Cent=   200000004 NGrid=           0
         NMat0=    1 NMatS0=      1 NMatT0=    0 NMatD0=    1 NMtDS0=    0 NMtDT0=    0
 Symmetry not used in FoFCou.
 Keep R1 ints in memory in canonical form, NReq=25608061.
 Requested convergence on RMS density matrix=1.00D-08 within 128 cycles.
 Requested convergence on MAX density matrix=1.00D-06.
 Requested convergence on             energy=1.00D-06.
 No special actions if energy rises.
 Integral accuracy reduced to 1.0D-05 until final iterations.
 Initial convergence to 1.0D-05 achieved.  Increase integral accuracy.
 SCF Done:  E(RB3LYP) =  -117.727956451     A.U. after   11 cycles
            NFock= 11  Conv=0.77D-08     -V/T= 2.0094
 DoSCS=F DFT=T ScalE2(SS,OS)=  1.000000  1.000000
 Range of M.O.s used for correlation:     1    75
 NBasis=    75 NAE=    12 NBE=    12 NFC=     0 NFV=     0
 NROrb=     75 NOA=    12 NOB=    12 NVA=    63 NVB=    63
 Symmetrizing basis deriv contribution to polar:
 IMax=3 JMax=2 DiffMx= 0.00D+00
 G2DrvN: will do    10 centers at a time, making    1 passes.
 Calling FoFCou, ICntrl=  3107 FMM=F I1Cent=   0 AccDes= 0.00D+00.
 End of G2Drv F.D. properties file   721 does not exist.
 End of G2Drv F.D. properties file   722 does not exist.
 End of G2Drv F.D. properties file   788 does not exist.
          IDoAtm=111111111
          Differentiating once with respect to nuclear coordinates.
 Keep R1 ints in memory in canonical form, NReq=25532399.
          There are    30 degrees of freedom in the 1st order CPHF.  IDoFFX=6 NUNeed=     0.
     24 vectors produced by pass  0 Test12= 2.52D-15 3.33D-09 XBig12= 1.54D-01 1.37D-01.
 AX will form    24 AO Fock derivatives at one time.
     24 vectors produced by pass  1 Test12= 2.52D-15 3.33D-09 XBig12= 4.90D-03 1.90D-02.
     24 vectors produced by pass  2 Test12= 2.52D-15 3.33D-09 XBig12= 4.21D-05 1.29D-03.
     24 vectors produced by pass  3 Test12= 2.52D-15 3.33D-09 XBig12= 8.67D-08 7.60D-05.
     24 vectors produced by pass  4 Test12= 2.52D-15 3.33D-09 XBig12= 7.39D-11 2.04D-06.
     10 vectors produced by pass  5 Test12= 2.52D-15 3.33D-09 XBig12= 4.27D-14 4.00D-08.
 InvSVY:  IOpt=1 It=  1 EMax= 1.33D-15
 Solved reduced A of dimension   130 with    24 vectors.
 End of Minotr F.D. properties file   721 does not exist.
 End of Minotr F.D. properties file   722 does not exist.
 End of Minotr F.D. properties file   788 does not exist.
 Calling FoFJK, ICntrl=    100127 FMM=F ISym2X=0 I1Cent= 0 IOpClX= 0 NMat=1 NMatS=1 NMatT=0.
 -------------------------------------------------------------------
 Center     Atomic                   Forces (Hartrees/Bohr)
 Number     Number              X              Y              Z
 -------------------------------------------------------------------
      1        6          -0.002806729    0.002849504   -0.004688655
      2        6           0.008800120   -0.002563379    0.005537916
      3        6          -0.001728685    0.001773553    0.001553753
      4        1          -0.000402221    0.000245838   -0.000560224
      5        1           0.000962284    0.000425310    0.000402219
      6        1          -0.001276171   -0.000530166   -0.000571105
      7        1          -0.000502863   -0.000234092   -0.000198242
      8        1          -0.003416971   -0.001718434   -0.000779902
      9        1           0.000371236   -0.000248135   -0.000695759
 -------------------------------------------------------------------
 Cartesian Forces:  Max     0.008800120 RMS     0.002592856
 IRC-IRC-IRC-IRC-IRC-IRC-IRC-IRC-IRC-IRC-IRC-IRC-IRC-IRC-IRC-IRC-IRC-IRC
 Pt  1 Step number   1 out of a maximum of 100
 Modified Bulirsch-Stoer Extrapolation Cycles:
    EPS =    0.000010000000000
      PEZero:  N= 2 I= 1 D=  3.18D-04 Err=  5.58D-04
      PEZero:  N= 3 I= 2 D=  3.18D-04 Err=  3.72D-04
      PEZero:  N= 3 I= 1 D=  6.37D-04 Err=  6.74D-08
 Maximum DWI energy   std dev =  0.000001735 at pt     1
 Maximum DWI gradient std dev =  0.016360367 at pt    23
 CORRECTOR INTEGRATION CONVERGENCE:
   Recorrection delta-x convergence threshold:    0.010000
   Delta-x Convergence Met
 Point Number:   1          Path Number:   1
   CHANGE IN THE REACTION COORDINATE =    0.12222
   NET REACTION COORDINATE UP TO THIS POINT =    0.12222
  # OF POINTS ALONG THE PATH =   1
  # OF STEPS =   1

 Calculating another point on the path.
 IRC-IRC-IRC-IRC-IRC-IRC-IRC-IRC-IRC-IRC-IRC-IRC-IRC-IRC-IRC-IRC-IRC-IRC
                          Input orientation:                          
 ---------------------------------------------------------------------
 Center     Atomic      Atomic             Coordinates (Angstroms)
 Number     Number       Type             X           Y           Z
 ---------------------------------------------------------------------
      1          6           0       -1.306232    0.115999   -0.564735
      2          6           0        0.296799    0.289449    0.511404
      3          6           0        1.263089   -0.493420    0.075870
      4          1           0       -0.090783    0.789640    1.395073
      5          1           0       -1.796938   -0.494780    0.184864
      6          1           0       -1.927056    0.985373   -0.810326
      7          1           0       -0.999428   -0.469328   -1.429228
      8          1           0       -0.261947    0.839660   -0.438665
      9          1           0        2.055914   -0.603089    0.829907
 ---------------------------------------------------------------------
                    Distance matrix (angstroms):
                    1          2          3          4          5
     1  C    0.000000
     2  C    1.938522   0.000000
     3  C    2.717200   1.317683   0.000000
     4  H    2.402489   1.086868   2.284624   0.000000
     5  H    1.084316   2.259508   3.061967   2.454649   0.000000
     6  H    1.096152   2.678957   3.626182   2.876455   1.788347
     7  H    1.088156   2.453976   2.717514   3.222935   1.800545
     8  H    1.276757   1.231893   2.089876   1.842388   2.127372
     9  H    3.710275   1.998137   1.099623   2.620575   3.907976
                    6          7          8          9
     6  H    0.000000
     7  H    1.832945   0.000000
     8  H    1.712294   1.799595   0.000000
     9  H    4.591037   3.802197   3.010528   0.000000
 Symmetry turned off by external request.
 Stoichiometry    C3H6
 Framework group  C1[X(C3H6)]
 Deg. of freedom    21
 Full point group                 C1      NOp   1
 Rotational constants (GHZ):          40.6172356           8.0581235           7.1546677
 Standard basis: 6-31G(d,p) (6D, 7F)
    75 basis functions,   126 primitive gaussians,    75 cartesian basis functions
    12 alpha electrons       12 beta electrons
       nuclear repulsion energy        67.9006090854 Hartrees.
 NAtoms=    9 NActive=    9 NUniq=    9 SFac= 1.00D+00 NAtFMM=   60 NAOKFM=F Big=F
 Integral buffers will be    131072 words long.
 Raffenetti 2 integral format.
 Two-electron integral symmetry is turned off.
 One-electron integrals computed using PRISM.
 NBasis=    75 RedAO= T EigKep=  4.68D-03  NBF=    75
 NBsUse=    75 1.00D-06 EigRej= -1.00D+00 NBFU=    75
 Initial guess from the checkpoint file:  "/scratch/brown/zhao922/pyGSM/new-benchmarking/R1-3/IRC-folder/Gau-220899.chk"
 B after Tr=    -0.001825   -0.000867   -0.000995
         Rot=    1.000000    0.000565   -0.000353   -0.000222 Ang=   0.08 deg.
 ExpMin= 1.61D-01 ExpMax= 3.05D+03 ExpMxC= 4.57D+02 IAcc=3 IRadAn=         5 AccDes= 0.00D+00
 Harris functional with IExCor=  402 and IRadAn=       5 diagonalized for initial guess.
 HarFok:  IExCor=  402 AccDes= 0.00D+00 IRadAn=         5 IDoV= 1 UseB2=F ITyADJ=14
 ICtDFT=  3500011 ScaDFX=  1.000000  1.000000  1.000000  1.000000
 FoFCou: FMM=F IPFlag=           0 FMFlag=      100000 FMFlg1=           0
         NFxFlg=           0 DoJE=T BraDBF=F KetDBF=T FulRan=T
         wScrn=  0.000000 ICntrl=       500 IOpCl=  0 I1Cent=   200000004 NGrid=           0
         NMat0=    1 NMatS0=      1 NMatT0=    0 NMatD0=    1 NMtDS0=    0 NMtDT0=    0
 Symmetry not used in FoFCou.
 Keep R1 ints in memory in canonical form, NReq=25608061.
 Requested convergence on RMS density matrix=1.00D-08 within 128 cycles.
 Requested convergence on MAX density matrix=1.00D-06.
 Requested convergence on             energy=1.00D-06.
 No special actions if energy rises.
 Integral accuracy reduced to 1.0D-05 until final iterations.
 Initial convergence to 1.0D-05 achieved.  Increase integral accuracy.
 SCF Done:  E(RB3LYP) =  -117.728980221     A.U. after   12 cycles
            NFock= 12  Conv=0.46D-08     -V/T= 2.0092
 DoSCS=F DFT=T ScalE2(SS,OS)=  1.000000  1.000000
 Range of M.O.s used for correlation:     1    75
 NBasis=    75 NAE=    12 NBE=    12 NFC=     0 NFV=     0
 NROrb=     75 NOA=    12 NOB=    12 NVA=    63 NVB=    63
 Symmetrizing basis deriv contribution to polar:
 IMax=3 JMax=2 DiffMx= 0.00D+00
 G2DrvN: will do    10 centers at a time, making    1 passes.
 Calling FoFCou, ICntrl=  3107 FMM=F I1Cent=   0 AccDes= 0.00D+00.
 End of G2Drv F.D. properties file   721 does not exist.
 End of G2Drv F.D. properties file   722 does not exist.
 End of G2Drv F.D. properties file   788 does not exist.
          IDoAtm=111111111
          Differentiating once with respect to nuclear coordinates.
 Keep R1 ints in memory in canonical form, NReq=25532399.
          There are    30 degrees of freedom in the 1st order CPHF.  IDoFFX=6 NUNeed=     0.
     24 vectors produced by pass  0 Test12= 2.52D-15 3.33D-09 XBig12= 1.55D-01 1.30D-01.
 AX will form    24 AO Fock derivatives at one time.
     24 vectors produced by pass  1 Test12= 2.52D-15 3.33D-09 XBig12= 4.67D-03 1.77D-02.
     24 vectors produced by pass  2 Test12= 2.52D-15 3.33D-09 XBig12= 3.84D-05 1.25D-03.
     24 vectors produced by pass  3 Test12= 2.52D-15 3.33D-09 XBig12= 8.62D-08 6.74D-05.
     24 vectors produced by pass  4 Test12= 2.52D-15 3.33D-09 XBig12= 7.06D-11 2.14D-06.
     10 vectors produced by pass  5 Test12= 2.52D-15 3.33D-09 XBig12= 4.15D-14 3.96D-08.
 InvSVY:  IOpt=1 It=  1 EMax= 1.55D-15
 Solved reduced A of dimension   130 with    24 vectors.
 End of Minotr F.D. properties file   721 does not exist.
 End of Minotr F.D. properties file   722 does not exist.
 End of Minotr F.D. properties file   788 does not exist.
 Calling FoFJK, ICntrl=    100127 FMM=F ISym2X=0 I1Cent= 0 IOpClX= 0 NMat=1 NMatS=1 NMatT=0.
 -------------------------------------------------------------------
 Center     Atomic                   Forces (Hartrees/Bohr)
 Number     Number              X              Y              Z
 -------------------------------------------------------------------
      1        6          -0.006118283    0.005228861   -0.009310827
      2        6           0.016873905   -0.004728089    0.010726071
      3        6          -0.003002183    0.003336310    0.003138953
      4        1          -0.000774134    0.000515322   -0.001004572
      5        1           0.001780551    0.000756425    0.000786550
      6        1          -0.002536757   -0.001064585   -0.001113725
      7        1          -0.001030039   -0.000465549   -0.000389276
      8        1          -0.006019317   -0.002958972   -0.001409791
      9        1           0.000826257   -0.000619724   -0.001423383
 -------------------------------------------------------------------
 Cartesian Forces:  Max     0.016873905 RMS     0.004981954
 IRC-IRC-IRC-IRC-IRC-IRC-IRC-IRC-IRC-IRC-IRC-IRC-IRC-IRC-IRC-IRC-IRC-IRC
 Pt  2 Step number   1 out of a maximum of 100
 Modified Bulirsch-Stoer Extrapolation Cycles:
    EPS =    0.000010000000000
      PEZero:  N= 2 I= 1 D=  6.36D-04 Err=  2.72D-05
      PEZero:  N= 3 I= 2 D=  6.36D-04 Err=  1.81D-05
      PEZero:  N= 3 I= 1 D=  1.27D-03 Err=  7.93D-08
 Maximum DWI energy   std dev =  0.000003580 at pt    27
 Maximum DWI gradient std dev =  0.016977136 at pt    24
 CORRECTOR INTEGRATION CONVERGENCE:
   Recorrection delta-x convergence threshold:    0.010000
   Delta-x Convergence Met
 Point Number:   2          Path Number:   1
   CHANGE IN THE REACTION COORDINATE =    0.12217
   NET REACTION COORDINATE UP TO THIS POINT =    0.24440
  # OF POINTS ALONG THE PATH =   2
  # OF STEPS =   1

 Calculating another point on the path.
 IRC-IRC-IRC-IRC-IRC-IRC-IRC-IRC-IRC-IRC-IRC-IRC-IRC-IRC-IRC-IRC-IRC-IRC
                          Input orientation:                          
 ---------------------------------------------------------------------
 Center     Atomic      Atomic             Coordinates (Angstroms)
 Number     Number       Type             X           Y           Z
 ---------------------------------------------------------------------
      1          6           0       -1.309480    0.118609   -0.569535
      2          6           0        0.305324    0.287113    0.516826
      3          6           0        1.261656   -0.491750    0.077496
      4          1           0       -0.095508    0.792988    1.389464
      5          1           0       -1.786489   -0.490509    0.189777
      6          1           0       -1.942737    0.978894   -0.817155
      7          1           0       -1.005847   -0.472198   -1.431626
      8          1           0       -0.296785    0.822482   -0.446726
      9          1           0        2.061362   -0.607344    0.821125
 ---------------------------------------------------------------------
                    Distance matrix (angstroms):
                    1          2          3          4          5
     1  C    0.000000
     2  C    1.953501   0.000000
     3  C    2.720648   1.309279   0.000000
     4  H    2.401289   1.085390   2.283354   0.000000
     5  H    1.084028   2.255513   3.050213   2.438449   0.000000
     6  H    1.096549   2.704043   3.637490   2.883745   1.788147
     7  H    1.088323   2.468236   2.723858   3.223036   1.799635
     8  H    1.239383   1.256020   2.104935   1.847424   2.085258
     9  H    3.717999   1.994072   1.098124   2.633634   3.901053
                    6          7          8          9
     6  H    0.000000
     7  H    1.833305   0.000000
     8  H    1.694356   1.774540   0.000000
     9  H    4.607920   3.808008   3.035244   0.000000
 Symmetry turned off by external request.
 Stoichiometry    C3H6
 Framework group  C1[X(C3H6)]
 Deg. of freedom    21
 Full point group                 C1      NOp   1
 Rotational constants (GHZ):          40.8168719           8.0228553           7.1217739
 Standard basis: 6-31G(d,p) (6D, 7F)
    75 basis functions,   126 primitive gaussians,    75 cartesian basis functions
    12 alpha electrons       12 beta electrons
       nuclear repulsion energy        67.9263781823 Hartrees.
 NAtoms=    9 NActive=    9 NUniq=    9 SFac= 1.00D+00 NAtFMM=   60 NAOKFM=F Big=F
 Integral buffers will be    131072 words long.
 Raffenetti 2 integral format.
 Two-electron integral symmetry is turned off.
 One-electron integrals computed using PRISM.
 NBasis=    75 RedAO= T EigKep=  4.54D-03  NBF=    75
 NBsUse=    75 1.00D-06 EigRej= -1.00D+00 NBFU=    75
 Initial guess from the checkpoint file:  "/scratch/brown/zhao922/pyGSM/new-benchmarking/R1-3/IRC-folder/Gau-220899.chk"
 B after Tr=    -0.001763   -0.000844   -0.001086
         Rot=    1.000000    0.000567   -0.000366   -0.000206 Ang=   0.08 deg.
 ExpMin= 1.61D-01 ExpMax= 3.05D+03 ExpMxC= 4.57D+02 IAcc=3 IRadAn=         5 AccDes= 0.00D+00
 Harris functional with IExCor=  402 and IRadAn=       5 diagonalized for initial guess.
 HarFok:  IExCor=  402 AccDes= 0.00D+00 IRadAn=         5 IDoV= 1 UseB2=F ITyADJ=14
 ICtDFT=  3500011 ScaDFX=  1.000000  1.000000  1.000000  1.000000
 FoFCou: FMM=F IPFlag=           0 FMFlag=      100000 FMFlg1=           0
         NFxFlg=           0 DoJE=T BraDBF=F KetDBF=T FulRan=T
         wScrn=  0.000000 ICntrl=       500 IOpCl=  0 I1Cent=   200000004 NGrid=           0
         NMat0=    1 NMatS0=      1 NMatT0=    0 NMatD0=    1 NMtDS0=    0 NMtDT0=    0
 Symmetry not used in FoFCou.
 Keep R1 ints in memory in canonical form, NReq=25608061.
 Requested convergence on RMS density matrix=1.00D-08 within 128 cycles.
 Requested convergence on MAX density matrix=1.00D-06.
 Requested convergence on             energy=1.00D-06.
 No special actions if energy rises.
 Integral accuracy reduced to 1.0D-05 until final iterations.
 Initial convergence to 1.0D-05 achieved.  Increase integral accuracy.
 SCF Done:  E(RB3LYP) =  -117.730550706     A.U. after   13 cycles
            NFock= 13  Conv=0.33D-08     -V/T= 2.0091
 DoSCS=F DFT=T ScalE2(SS,OS)=  1.000000  1.000000
 Range of M.O.s used for correlation:     1    75
 NBasis=    75 NAE=    12 NBE=    12 NFC=     0 NFV=     0
 NROrb=     75 NOA=    12 NOB=    12 NVA=    63 NVB=    63
 Symmetrizing basis deriv contribution to polar:
 IMax=3 JMax=2 DiffMx= 0.00D+00
 G2DrvN: will do    10 centers at a time, making    1 passes.
 Calling FoFCou, ICntrl=  3107 FMM=F I1Cent=   0 AccDes= 0.00D+00.
 End of G2Drv F.D. properties file   721 does not exist.
 End of G2Drv F.D. properties file   722 does not exist.
 End of G2Drv F.D. properties file   788 does not exist.
          IDoAtm=111111111
          Differentiating once with respect to nuclear coordinates.
 Keep R1 ints in memory in canonical form, NReq=25532399.
          There are    30 degrees of freedom in the 1st order CPHF.  IDoFFX=6 NUNeed=     0.
     24 vectors produced by pass  0 Test12= 2.52D-15 3.33D-09 XBig12= 1.54D-01 1.41D-01.
 AX will form    24 AO Fock derivatives at one time.
     24 vectors produced by pass  1 Test12= 2.52D-15 3.33D-09 XBig12= 5.04D-03 1.68D-02.
     24 vectors produced by pass  2 Test12= 2.52D-15 3.33D-09 XBig12= 3.65D-05 1.30D-03.
     24 vectors produced by pass  3 Test12= 2.52D-15 3.33D-09 XBig12= 9.53D-08 6.66D-05.
     24 vectors produced by pass  4 Test12= 2.52D-15 3.33D-09 XBig12= 7.92D-11 2.16D-06.
     10 vectors produced by pass  5 Test12= 2.52D-15 3.33D-09 XBig12= 4.33D-14 3.64D-08.
 InvSVY:  IOpt=1 It=  1 EMax= 1.33D-15
 Solved reduced A of dimension   130 with    24 vectors.
 End of Minotr F.D. properties file   721 does not exist.
 End of Minotr F.D. properties file   722 does not exist.
 End of Minotr F.D. properties file   788 does not exist.
 Calling FoFJK, ICntrl=    100127 FMM=F ISym2X=0 I1Cent= 0 IOpClX= 0 NMat=1 NMatS=1 NMatT=0.
 -------------------------------------------------------------------
 Center     Atomic                   Forces (Hartrees/Bohr)
 Number     Number              X              Y              Z
 -------------------------------------------------------------------
      1        6          -0.010056881    0.006875877   -0.013630947
      2        6           0.023889773   -0.006408917    0.015525527
      3        6          -0.003733061    0.004627192    0.004742320
      4        1          -0.001073382    0.000764434   -0.001418254
      5        1           0.002429174    0.001021883    0.001065993
      6        1          -0.003740158   -0.001633561   -0.001611386
      7        1          -0.001584631   -0.000698940   -0.000577023
      8        1          -0.007474872   -0.003434236   -0.001888982
      9        1           0.001344039   -0.001113734   -0.002207247
 -------------------------------------------------------------------
 Cartesian Forces:  Max     0.023889773 RMS     0.007093204
 IRC-IRC-IRC-IRC-IRC-IRC-IRC-IRC-IRC-IRC-IRC-IRC-IRC-IRC-IRC-IRC-IRC-IRC
 Pt  3 Step number   1 out of a maximum of 100
 Modified Bulirsch-Stoer Extrapolation Cycles:
    EPS =    0.000010000000000
      PEZero:  N= 2 I= 1 D=  6.37D-04 Err=  3.69D-05
      PEZero:  N= 3 I= 2 D=  6.37D-04 Err=  2.46D-05
      PEZero:  N= 3 I= 1 D=  1.27D-03 Err=  9.55D-08
 Maximum DWI energy   std dev =  0.000004165 at pt    27
 Maximum DWI gradient std dev =  0.012466654 at pt    25
 CORRECTOR INTEGRATION CONVERGENCE:
   Recorrection delta-x convergence threshold:    0.010000
   Delta-x Convergence Met
 Point Number:   3          Path Number:   1
   CHANGE IN THE REACTION COORDINATE =    0.12216
   NET REACTION COORDINATE UP TO THIS POINT =    0.36656
  # OF POINTS ALONG THE PATH =   3
  # OF STEPS =   1

 Calculating another point on the path.
 IRC-IRC-IRC-IRC-IRC-IRC-IRC-IRC-IRC-IRC-IRC-IRC-IRC-IRC-IRC-IRC-IRC-IRC
                          Input orientation:                          
 ---------------------------------------------------------------------
 Center     Atomic      Atomic             Coordinates (Angstroms)
 Number     Number       Type             X           Y           Z
 ---------------------------------------------------------------------
      1          6           0       -1.313424    0.121098   -0.574687
      2          6           0        0.314168    0.284809    0.522620
      3          6           0        1.260385   -0.490063    0.079305
      4          1           0       -0.100241    0.796544    1.383505
      5          1           0       -1.776048   -0.486223    0.194540
      6          1           0       -1.959648    0.971522   -0.824384
      7          1           0       -1.013083   -0.475369   -1.434237
      8          1           0       -0.328011    0.808424   -0.454754
      9          1           0        2.067818   -0.612870    0.811017
 ---------------------------------------------------------------------
                    Distance matrix (angstroms):
                    1          2          3          4          5
     1  C    0.000000
     2  C    1.969756   0.000000
     3  C    2.725016   1.300877   0.000000
     4  H    2.400532   1.083850   2.282016   0.000000
     5  H    1.083776   2.251916   3.038621   2.422284   0.000000
     6  H    1.096893   2.730610   3.649862   2.891847   1.787998
     7  H    1.088487   2.483697   2.731241   3.223462   1.798651
     8  H    1.207410   1.281337   2.119973   1.852353   2.048049
     9  H    3.727155   1.991052   1.096556   2.648523   3.895047
                    6          7          8          9
     6  H    0.000000
     7  H    1.833412   0.000000
     8  H    1.680913   1.754091   0.000000
     9  H    4.626588   3.814712   3.059779   0.000000
 Symmetry turned off by external request.
 Stoichiometry    C3H6
 Framework group  C1[X(C3H6)]
 Deg. of freedom    21
 Full point group                 C1      NOp   1
 Rotational constants (GHZ):          40.9883135           7.9809620           7.0838177
 Standard basis: 6-31G(d,p) (6D, 7F)
    75 basis functions,   126 primitive gaussians,    75 cartesian basis functions
    12 alpha electrons       12 beta electrons
       nuclear repulsion energy        67.9335756844 Hartrees.
 NAtoms=    9 NActive=    9 NUniq=    9 SFac= 1.00D+00 NAtFMM=   60 NAOKFM=F Big=F
 Integral buffers will be    131072 words long.
 Raffenetti 2 integral format.
 Two-electron integral symmetry is turned off.
 One-electron integrals computed using PRISM.
 NBasis=    75 RedAO= T EigKep=  4.39D-03  NBF=    75
 NBsUse=    75 1.00D-06 EigRej= -1.00D+00 NBFU=    75
 Initial guess from the checkpoint file:  "/scratch/brown/zhao922/pyGSM/new-benchmarking/R1-3/IRC-folder/Gau-220899.chk"
 B after Tr=    -0.001664   -0.000813   -0.001186
         Rot=    1.000000    0.000565   -0.000382   -0.000185 Ang=   0.08 deg.
 ExpMin= 1.61D-01 ExpMax= 3.05D+03 ExpMxC= 4.57D+02 IAcc=3 IRadAn=         5 AccDes= 0.00D+00
 Harris functional with IExCor=  402 and IRadAn=       5 diagonalized for initial guess.
 HarFok:  IExCor=  402 AccDes= 0.00D+00 IRadAn=         5 IDoV= 1 UseB2=F ITyADJ=14
 ICtDFT=  3500011 ScaDFX=  1.000000  1.000000  1.000000  1.000000
 FoFCou: FMM=F IPFlag=           0 FMFlag=      100000 FMFlg1=           0
         NFxFlg=           0 DoJE=T BraDBF=F KetDBF=T FulRan=T
         wScrn=  0.000000 ICntrl=       500 IOpCl=  0 I1Cent=   200000004 NGrid=           0
         NMat0=    1 NMatS0=      1 NMatT0=    0 NMatD0=    1 NMtDS0=    0 NMtDT0=    0
 Symmetry not used in FoFCou.
 Keep R1 ints in memory in canonical form, NReq=25608061.
 Requested convergence on RMS density matrix=1.00D-08 within 128 cycles.
 Requested convergence on MAX density matrix=1.00D-06.
 Requested convergence on             energy=1.00D-06.
 No special actions if energy rises.
 Integral accuracy reduced to 1.0D-05 until final iterations.
 Initial convergence to 1.0D-05 achieved.  Increase integral accuracy.
 SCF Done:  E(RB3LYP) =  -117.732537106     A.U. after   13 cycles
            NFock= 13  Conv=0.33D-08     -V/T= 2.0088
 DoSCS=F DFT=T ScalE2(SS,OS)=  1.000000  1.000000
 Range of M.O.s used for correlation:     1    75
 NBasis=    75 NAE=    12 NBE=    12 NFC=     0 NFV=     0
 NROrb=     75 NOA=    12 NOB=    12 NVA=    63 NVB=    63
 Symmetrizing basis deriv contribution to polar:
 IMax=3 JMax=2 DiffMx= 0.00D+00
 G2DrvN: will do    10 centers at a time, making    1 passes.
 Calling FoFCou, ICntrl=  3107 FMM=F I1Cent=   0 AccDes= 0.00D+00.
 End of G2Drv F.D. properties file   721 does not exist.
 End of G2Drv F.D. properties file   722 does not exist.
 End of G2Drv F.D. properties file   788 does not exist.
          IDoAtm=111111111
          Differentiating once with respect to nuclear coordinates.
 Keep R1 ints in memory in canonical form, NReq=25532399.
          There are    30 degrees of freedom in the 1st order CPHF.  IDoFFX=6 NUNeed=     0.
     24 vectors produced by pass  0 Test12= 2.52D-15 3.33D-09 XBig12= 1.52D-01 1.51D-01.
 AX will form    24 AO Fock derivatives at one time.
     24 vectors produced by pass  1 Test12= 2.52D-15 3.33D-09 XBig12= 5.37D-03 1.72D-02.
     24 vectors produced by pass  2 Test12= 2.52D-15 3.33D-09 XBig12= 3.58D-05 1.33D-03.
     24 vectors produced by pass  3 Test12= 2.52D-15 3.33D-09 XBig12= 1.11D-07 6.51D-05.
     24 vectors produced by pass  4 Test12= 2.52D-15 3.33D-09 XBig12= 9.29D-11 2.08D-06.
     10 vectors produced by pass  5 Test12= 2.52D-15 3.33D-09 XBig12= 4.95D-14 3.39D-08.
 InvSVY:  IOpt=1 It=  1 EMax= 1.33D-15
 Solved reduced A of dimension   130 with    24 vectors.
 End of Minotr F.D. properties file   721 does not exist.
 End of Minotr F.D. properties file   722 does not exist.
 End of Minotr F.D. properties file   788 does not exist.
 Calling FoFJK, ICntrl=    100127 FMM=F ISym2X=0 I1Cent= 0 IOpClX= 0 NMat=1 NMatS=1 NMatT=0.
 -------------------------------------------------------------------
 Center     Atomic                   Forces (Hartrees/Bohr)
 Number     Number              X              Y              Z
 -------------------------------------------------------------------
      1        6          -0.014356523    0.007777729   -0.017455519
      2        6           0.029414242   -0.007425330    0.019726782
      3        6          -0.003778466    0.005502006    0.006267432
      4        1          -0.001277365    0.000976730   -0.001753020
      5        1           0.002872785    0.001209496    0.001233987
      6        1          -0.004795833   -0.002195059   -0.002031129
      7        1          -0.002111207   -0.000916160   -0.000742926
      8        1          -0.007870432   -0.003220620   -0.002221376
      9        1           0.001902801   -0.001708791   -0.003024232
 -------------------------------------------------------------------
 Cartesian Forces:  Max     0.029414242 RMS     0.008844821
 IRC-IRC-IRC-IRC-IRC-IRC-IRC-IRC-IRC-IRC-IRC-IRC-IRC-IRC-IRC-IRC-IRC-IRC
 Pt  4 Step number   1 out of a maximum of 100
 Modified Bulirsch-Stoer Extrapolation Cycles:
    EPS =    0.000010000000000
      PEZero:  N= 2 I= 1 D=  6.36D-04 Err=  4.33D-05
      PEZero:  N= 3 I= 2 D=  6.36D-04 Err=  2.88D-05
      PEZero:  N= 3 I= 1 D=  1.27D-03 Err=  1.16D-07
 Maximum DWI energy   std dev =  0.000003838 at pt    27
 Maximum DWI gradient std dev =  0.010086929 at pt    25
 CORRECTOR INTEGRATION CONVERGENCE:
   Recorrection delta-x convergence threshold:    0.010000
   Delta-x Convergence Met
 Point Number:   4          Path Number:   1
   CHANGE IN THE REACTION COORDINATE =    0.12214
   NET REACTION COORDINATE UP TO THIS POINT =    0.48870
  # OF POINTS ALONG THE PATH =   4
  # OF STEPS =   1

 Calculating another point on the path.
 IRC-IRC-IRC-IRC-IRC-IRC-IRC-IRC-IRC-IRC-IRC-IRC-IRC-IRC-IRC-IRC-IRC-IRC
                          Input orientation:                          
 ---------------------------------------------------------------------
 Center     Atomic      Atomic             Coordinates (Angstroms)
 Number     Number       Type             X           Y           Z
 ---------------------------------------------------------------------
      1          6           0       -1.318086    0.123430   -0.580170
      2          6           0        0.323210    0.282607    0.528760
      3          6           0        1.259358   -0.488406    0.081295
      4          1           0       -0.104889    0.800285    1.377333
      5          1           0       -1.765802   -0.481977    0.199061
      6          1           0       -1.977634    0.963269   -0.831951
      7          1           0       -1.021063   -0.478823   -1.437023
      8          1           0       -0.355135    0.797830   -0.462694
      9          1           0        2.075385   -0.619829    0.799439
 ---------------------------------------------------------------------
                    Distance matrix (angstroms):
                    1          2          3          4          5
     1  C    0.000000
     2  C    1.987188   0.000000
     3  C    2.730403   1.292695   0.000000
     4  H    2.400375   1.082282   2.280704   0.000000
     5  H    1.083590   2.248835   3.027458   2.406482   0.000000
     6  H    1.097145   2.758390   3.663263   2.900806   1.787902
     7  H    1.088636   2.500230   2.739654   3.224297   1.797613
     8  H    1.181478   1.307129   2.134693   1.856968   2.016384
     9  H    3.737834   1.989416   1.094945   2.665385   3.890267
                    6          7          8          9
     6  H    0.000000
     7  H    1.833240   0.000000
     8  H    1.672192   1.738568   0.000000
     9  H    4.646999   3.822256   3.083855   0.000000
 Symmetry turned off by external request.
 Stoichiometry    C3H6
 Framework group  C1[X(C3H6)]
 Deg. of freedom    21
 Full point group                 C1      NOp   1
 Rotational constants (GHZ):          41.1245519           7.9323956           7.0406976
 Standard basis: 6-31G(d,p) (6D, 7F)
    75 basis functions,   126 primitive gaussians,    75 cartesian basis functions
    12 alpha electrons       12 beta electrons
       nuclear repulsion energy        67.9182028343 Hartrees.
 NAtoms=    9 NActive=    9 NUniq=    9 SFac= 1.00D+00 NAtFMM=   60 NAOKFM=F Big=F
 Integral buffers will be    131072 words long.
 Raffenetti 2 integral format.
 Two-electron integral symmetry is turned off.
 One-electron integrals computed using PRISM.
 NBasis=    75 RedAO= T EigKep=  4.24D-03  NBF=    75
 NBsUse=    75 1.00D-06 EigRej= -1.00D+00 NBFU=    75
 Initial guess from the checkpoint file:  "/scratch/brown/zhao922/pyGSM/new-benchmarking/R1-3/IRC-folder/Gau-220899.chk"
 B after Tr=    -0.001537   -0.000778   -0.001284
         Rot=    1.000000    0.000552   -0.000396   -0.000160 Ang=   0.08 deg.
 ExpMin= 1.61D-01 ExpMax= 3.05D+03 ExpMxC= 4.57D+02 IAcc=3 IRadAn=         5 AccDes= 0.00D+00
 Harris functional with IExCor=  402 and IRadAn=       5 diagonalized for initial guess.
 HarFok:  IExCor=  402 AccDes= 0.00D+00 IRadAn=         5 IDoV= 1 UseB2=F ITyADJ=14
 ICtDFT=  3500011 ScaDFX=  1.000000  1.000000  1.000000  1.000000
 FoFCou: FMM=F IPFlag=           0 FMFlag=      100000 FMFlg1=           0
         NFxFlg=           0 DoJE=T BraDBF=F KetDBF=T FulRan=T
         wScrn=  0.000000 ICntrl=       500 IOpCl=  0 I1Cent=   200000004 NGrid=           0
         NMat0=    1 NMatS0=      1 NMatT0=    0 NMatD0=    1 NMtDS0=    0 NMtDT0=    0
 Symmetry not used in FoFCou.
 Keep R1 ints in memory in canonical form, NReq=25608061.
 Requested convergence on RMS density matrix=1.00D-08 within 128 cycles.
 Requested convergence on MAX density matrix=1.00D-06.
 Requested convergence on             energy=1.00D-06.
 No special actions if energy rises.
 Integral accuracy reduced to 1.0D-05 until final iterations.
 Initial convergence to 1.0D-05 achieved.  Increase integral accuracy.
 SCF Done:  E(RB3LYP) =  -117.734828871     A.U. after   12 cycles
            NFock= 12  Conv=0.91D-08     -V/T= 2.0086
 DoSCS=F DFT=T ScalE2(SS,OS)=  1.000000  1.000000
 Range of M.O.s used for correlation:     1    75
 NBasis=    75 NAE=    12 NBE=    12 NFC=     0 NFV=     0
 NROrb=     75 NOA=    12 NOB=    12 NVA=    63 NVB=    63
 Symmetrizing basis deriv contribution to polar:
 IMax=3 JMax=2 DiffMx= 0.00D+00
 G2DrvN: will do    10 centers at a time, making    1 passes.
 Calling FoFCou, ICntrl=  3107 FMM=F I1Cent=   0 AccDes= 0.00D+00.
 End of G2Drv F.D. properties file   721 does not exist.
 End of G2Drv F.D. properties file   722 does not exist.
 End of G2Drv F.D. properties file   788 does not exist.
          IDoAtm=111111111
          Differentiating once with respect to nuclear coordinates.
 Keep R1 ints in memory in canonical form, NReq=25532399.
          There are    30 degrees of freedom in the 1st order CPHF.  IDoFFX=6 NUNeed=     0.
     24 vectors produced by pass  0 Test12= 2.52D-15 3.33D-09 XBig12= 1.50D-01 1.57D-01.
 AX will form    24 AO Fock derivatives at one time.
     24 vectors produced by pass  1 Test12= 2.52D-15 3.33D-09 XBig12= 5.66D-03 1.75D-02.
     24 vectors produced by pass  2 Test12= 2.52D-15 3.33D-09 XBig12= 3.57D-05 1.35D-03.
     24 vectors produced by pass  3 Test12= 2.52D-15 3.33D-09 XBig12= 1.27D-07 6.28D-05.
     24 vectors produced by pass  4 Test12= 2.52D-15 3.33D-09 XBig12= 1.09D-10 1.95D-06.
     10 vectors produced by pass  5 Test12= 2.52D-15 3.33D-09 XBig12= 5.49D-14 3.43D-08.
 InvSVY:  IOpt=1 It=  1 EMax= 1.67D-15
 Solved reduced A of dimension   130 with    24 vectors.
 End of Minotr F.D. properties file   721 does not exist.
 End of Minotr F.D. properties file   722 does not exist.
 End of Minotr F.D. properties file   788 does not exist.
 Calling FoFJK, ICntrl=    100127 FMM=F ISym2X=0 I1Cent= 0 IOpClX= 0 NMat=1 NMatS=1 NMatT=0.
 -------------------------------------------------------------------
 Center     Atomic                   Forces (Hartrees/Bohr)
 Number     Number              X              Y              Z
 -------------------------------------------------------------------
      1        6          -0.018554465    0.008137824   -0.020648470
      2        6           0.033346455   -0.007784141    0.023219554
      3        6          -0.003175995    0.005942169    0.007654928
      4        1          -0.001389264    0.001147229   -0.001985970
      5        1           0.003121136    0.001328766    0.001298694
      6        1          -0.005658952   -0.002710528   -0.002362171
      7        1          -0.002567985   -0.001104209   -0.000877225
      8        1          -0.007590486   -0.002588164   -0.002450750
      9        1           0.002469555   -0.002368944   -0.003848591
 -------------------------------------------------------------------
 Cartesian Forces:  Max     0.033346455 RMS     0.010225844
 IRC-IRC-IRC-IRC-IRC-IRC-IRC-IRC-IRC-IRC-IRC-IRC-IRC-IRC-IRC-IRC-IRC-IRC
 Pt  5 Step number   1 out of a maximum of 100
 Modified Bulirsch-Stoer Extrapolation Cycles:
    EPS =    0.000010000000000
      PEZero:  N= 2 I= 1 D=  6.36D-04 Err=  4.24D-05
      PEZero:  N= 3 I= 2 D=  6.36D-04 Err=  2.82D-05
      PEZero:  N= 3 I= 1 D=  1.27D-03 Err=  1.35D-07
 Maximum DWI energy   std dev =  0.000002923 at pt    27
 Maximum DWI gradient std dev =  0.007876211 at pt    25
 CORRECTOR INTEGRATION CONVERGENCE:
   Recorrection delta-x convergence threshold:    0.010000
   Delta-x Convergence Met
 Point Number:   5          Path Number:   1
   CHANGE IN THE REACTION COORDINATE =    0.12214
   NET REACTION COORDINATE UP TO THIS POINT =    0.61084
  # OF POINTS ALONG THE PATH =   5
  # OF STEPS =   1

 Calculating another point on the path.
 IRC-IRC-IRC-IRC-IRC-IRC-IRC-IRC-IRC-IRC-IRC-IRC-IRC-IRC-IRC-IRC-IRC-IRC
                          Input orientation:                          
 ---------------------------------------------------------------------
 Center     Atomic      Atomic             Coordinates (Angstroms)
 Number     Number       Type             X           Y           Z
 ---------------------------------------------------------------------
      1          6           0       -1.323371    0.125596   -0.585903
      2          6           0        0.332277    0.280577    0.535167
      3          6           0        1.258642   -0.486829    0.083448
      4          1           0       -0.109350    0.804151    1.371117
      5          1           0       -1.755959   -0.477815    0.203226
      6          1           0       -1.996378    0.954257   -0.839732
      7          1           0       -1.029611   -0.482498   -1.439922
      8          1           0       -0.378375    0.790522   -0.470563
      9          1           0        2.084020   -0.628262    0.786372
 ---------------------------------------------------------------------
                    Distance matrix (angstroms):
                    1          2          3          4          5
     1  C    0.000000
     2  C    2.005490   0.000000
     3  C    2.736766   1.284957   0.000000
     4  H    2.400877   1.080730   2.279501   0.000000
     5  H    1.083495   2.246347   3.016994   2.391386   0.000000
     6  H    1.097290   2.786903   3.677519   2.910542   1.787846
     7  H    1.088771   2.517539   2.748960   3.225568   1.796535
     8  H    1.161226   1.332878   2.149041   1.861275   1.990078
     9  H    3.749901   1.989396   1.093323   2.684140   3.886919
                    6          7          8          9
     6  H    0.000000
     7  H    1.832793   0.000000
     8  H    1.667642   1.727526   0.000000
     9  H    4.668857   3.830448   3.107446   0.000000
 Symmetry turned off by external request.
 Stoichiometry    C3H6
 Framework group  C1[X(C3H6)]
 Deg. of freedom    21
 Full point group                 C1      NOp   1
 Rotational constants (GHZ):          41.2232012           7.8780412           6.9930336
 Standard basis: 6-31G(d,p) (6D, 7F)
    75 basis functions,   126 primitive gaussians,    75 cartesian basis functions
    12 alpha electrons       12 beta electrons
       nuclear repulsion energy        67.8796193904 Hartrees.
 NAtoms=    9 NActive=    9 NUniq=    9 SFac= 1.00D+00 NAtFMM=   60 NAOKFM=F Big=F
 Integral buffers will be    131072 words long.
 Raffenetti 2 integral format.
 Two-electron integral symmetry is turned off.
 One-electron integrals computed using PRISM.
 NBasis=    75 RedAO= T EigKep=  4.09D-03  NBF=    75
 NBsUse=    75 1.00D-06 EigRej= -1.00D+00 NBFU=    75
 Initial guess from the checkpoint file:  "/scratch/brown/zhao922/pyGSM/new-benchmarking/R1-3/IRC-folder/Gau-220899.chk"
 B after Tr=    -0.001405   -0.000749   -0.001375
         Rot=    1.000000    0.000529   -0.000407   -0.000134 Ang=   0.08 deg.
 ExpMin= 1.61D-01 ExpMax= 3.05D+03 ExpMxC= 4.57D+02 IAcc=3 IRadAn=         5 AccDes= 0.00D+00
 Harris functional with IExCor=  402 and IRadAn=       5 diagonalized for initial guess.
 HarFok:  IExCor=  402 AccDes= 0.00D+00 IRadAn=         5 IDoV= 1 UseB2=F ITyADJ=14
 ICtDFT=  3500011 ScaDFX=  1.000000  1.000000  1.000000  1.000000
 FoFCou: FMM=F IPFlag=           0 FMFlag=      100000 FMFlg1=           0
         NFxFlg=           0 DoJE=T BraDBF=F KetDBF=T FulRan=T
         wScrn=  0.000000 ICntrl=       500 IOpCl=  0 I1Cent=   200000004 NGrid=           0
         NMat0=    1 NMatS0=      1 NMatT0=    0 NMatD0=    1 NMtDS0=    0 NMtDT0=    0
 Symmetry not used in FoFCou.
 Keep R1 ints in memory in canonical form, NReq=25608061.
 Requested convergence on RMS density matrix=1.00D-08 within 128 cycles.
 Requested convergence on MAX density matrix=1.00D-06.
 Requested convergence on             energy=1.00D-06.
 No special actions if energy rises.
 Integral accuracy reduced to 1.0D-05 until final iterations.
 Initial convergence to 1.0D-05 achieved.  Increase integral accuracy.
 SCF Done:  E(RB3LYP) =  -117.737351760     A.U. after   12 cycles
            NFock= 12  Conv=0.76D-08     -V/T= 2.0085
 DoSCS=F DFT=T ScalE2(SS,OS)=  1.000000  1.000000
 Range of M.O.s used for correlation:     1    75
 NBasis=    75 NAE=    12 NBE=    12 NFC=     0 NFV=     0
 NROrb=     75 NOA=    12 NOB=    12 NVA=    63 NVB=    63
 Symmetrizing basis deriv contribution to polar:
 IMax=3 JMax=2 DiffMx= 0.00D+00
 G2DrvN: will do    10 centers at a time, making    1 passes.
 Calling FoFCou, ICntrl=  3107 FMM=F I1Cent=   0 AccDes= 0.00D+00.
 End of G2Drv F.D. properties file   721 does not exist.
 End of G2Drv F.D. properties file   722 does not exist.
 End of G2Drv F.D. properties file   788 does not exist.
          IDoAtm=111111111
          Differentiating once with respect to nuclear coordinates.
 Keep R1 ints in memory in canonical form, NReq=25532399.
          There are    30 degrees of freedom in the 1st order CPHF.  IDoFFX=6 NUNeed=     0.
     24 vectors produced by pass  0 Test12= 2.52D-15 3.33D-09 XBig12= 1.46D-01 1.58D-01.
 AX will form    24 AO Fock derivatives at one time.
     24 vectors produced by pass  1 Test12= 2.52D-15 3.33D-09 XBig12= 5.91D-03 1.77D-02.
     24 vectors produced by pass  2 Test12= 2.52D-15 3.33D-09 XBig12= 3.61D-05 1.34D-03.
     24 vectors produced by pass  3 Test12= 2.52D-15 3.33D-09 XBig12= 1.39D-07 7.27D-05.
     24 vectors produced by pass  4 Test12= 2.52D-15 3.33D-09 XBig12= 1.22D-10 1.87D-06.
     10 vectors produced by pass  5 Test12= 2.52D-15 3.33D-09 XBig12= 6.00D-14 3.37D-08.
 InvSVY:  IOpt=1 It=  1 EMax= 2.00D-15
 Solved reduced A of dimension   130 with    24 vectors.
 End of Minotr F.D. properties file   721 does not exist.
 End of Minotr F.D. properties file   722 does not exist.
 End of Minotr F.D. properties file   788 does not exist.
 Calling FoFJK, ICntrl=    100127 FMM=F ISym2X=0 I1Cent= 0 IOpClX= 0 NMat=1 NMatS=1 NMatT=0.
 -------------------------------------------------------------------
 Center     Atomic                   Forces (Hartrees/Bohr)
 Number     Number              X              Y              Z
 -------------------------------------------------------------------
      1        6          -0.022249608    0.008221173   -0.023179790
      2        6           0.035913777   -0.007648483    0.026022031
      3        6          -0.002109831    0.006044124    0.008900654
      4        1          -0.001432058    0.001279153   -0.002130019
      5        1           0.003216991    0.001403118    0.001279857
      6        1          -0.006328978   -0.003159904   -0.002610863
      7        1          -0.002936878   -0.001257097   -0.000977681
      8        1          -0.007080623   -0.001829162   -0.002640052
      9        1           0.003007209   -0.003052923   -0.004664136
 -------------------------------------------------------------------
 Cartesian Forces:  Max     0.035913777 RMS     0.011281503
 IRC-IRC-IRC-IRC-IRC-IRC-IRC-IRC-IRC-IRC-IRC-IRC-IRC-IRC-IRC-IRC-IRC-IRC
 Pt  6 Step number   1 out of a maximum of 100
 Modified Bulirsch-Stoer Extrapolation Cycles:
    EPS =    0.000010000000000
      PEZero:  N= 2 I= 1 D=  6.36D-04 Err=  3.49D-05
      PEZero:  N= 3 I= 2 D=  6.36D-04 Err=  2.32D-05
      PEZero:  N= 3 I= 1 D=  1.27D-03 Err=  1.25D-07
 Maximum DWI energy   std dev =  0.000002009 at pt    27
 Maximum DWI gradient std dev =  0.005895342 at pt    25
 CORRECTOR INTEGRATION CONVERGENCE:
   Recorrection delta-x convergence threshold:    0.010000
   Delta-x Convergence Met
 Point Number:   6          Path Number:   1
   CHANGE IN THE REACTION COORDINATE =    0.12216
   NET REACTION COORDINATE UP TO THIS POINT =    0.73300
  # OF POINTS ALONG THE PATH =   6
  # OF STEPS =   1

 Calculating another point on the path.
 IRC-IRC-IRC-IRC-IRC-IRC-IRC-IRC-IRC-IRC-IRC-IRC-IRC-IRC-IRC-IRC-IRC-IRC
                          Input orientation:                          
 ---------------------------------------------------------------------
 Center     Atomic      Atomic             Coordinates (Angstroms)
 Number     Number       Type             X           Y           Z
 ---------------------------------------------------------------------
      1          6           0       -1.329122    0.127615   -0.591786
      2          6           0        0.341225    0.278754    0.541748
      3          6           0        1.258264   -0.485359    0.085743
      4          1           0       -0.113569    0.808085    1.364975
      5          1           0       -1.746666   -0.473753    0.206950
      6          1           0       -2.015542    0.944648   -0.847603
      7          1           0       -1.038525   -0.486317   -1.442871
      8          1           0       -0.398489    0.785956   -0.478448
      9          1           0        2.093576   -0.638099    0.771864
 ---------------------------------------------------------------------
                    Distance matrix (angstroms):
                    1          2          3          4          5
     1  C    0.000000
     2  C    2.024303   0.000000
     3  C    2.743966   1.277799   0.000000
     4  H    2.401983   1.079227   2.278455   0.000000
     5  H    1.083497   2.244470   3.007396   2.377212   0.000000
     6  H    1.097342   2.815682   3.692406   2.920899   1.787802
     7  H    1.088900   2.535302   2.758967   3.227231   1.795419
     8  H    1.145573   1.358393   2.163188   1.865442   1.968303
     9  H    3.763073   1.991057   1.091713   2.704574   3.885048
                    6          7          8          9
     6  H    0.000000
     7  H    1.832094   0.000000
     8  H    1.666230   1.720011   0.000000
     9  H    4.691761   3.839029   3.130751   0.000000
 Symmetry turned off by external request.
 Stoichiometry    C3H6
 Framework group  C1[X(C3H6)]
 Deg. of freedom    21
 Full point group                 C1      NOp   1
 Rotational constants (GHZ):          41.2866892           7.8192627           6.9418390
 Standard basis: 6-31G(d,p) (6D, 7F)
    75 basis functions,   126 primitive gaussians,    75 cartesian basis functions
    12 alpha electrons       12 beta electrons
       nuclear repulsion energy        67.8203458213 Hartrees.
 NAtoms=    9 NActive=    9 NUniq=    9 SFac= 1.00D+00 NAtFMM=   60 NAOKFM=F Big=F
 Integral buffers will be    131072 words long.
 Raffenetti 2 integral format.
 Two-electron integral symmetry is turned off.
 One-electron integrals computed using PRISM.
 NBasis=    75 RedAO= T EigKep=  3.96D-03  NBF=    75
 NBsUse=    75 1.00D-06 EigRej= -1.00D+00 NBFU=    75
 Initial guess from the checkpoint file:  "/scratch/brown/zhao922/pyGSM/new-benchmarking/R1-3/IRC-folder/Gau-220899.chk"
 B after Tr=    -0.001290   -0.000732   -0.001457
         Rot=    1.000000    0.000501   -0.000415   -0.000110 Ang=   0.08 deg.
 ExpMin= 1.61D-01 ExpMax= 3.05D+03 ExpMxC= 4.57D+02 IAcc=3 IRadAn=         5 AccDes= 0.00D+00
 Harris functional with IExCor=  402 and IRadAn=       5 diagonalized for initial guess.
 HarFok:  IExCor=  402 AccDes= 0.00D+00 IRadAn=         5 IDoV= 1 UseB2=F ITyADJ=14
 ICtDFT=  3500011 ScaDFX=  1.000000  1.000000  1.000000  1.000000
 FoFCou: FMM=F IPFlag=           0 FMFlag=      100000 FMFlg1=           0
         NFxFlg=           0 DoJE=T BraDBF=F KetDBF=T FulRan=T
         wScrn=  0.000000 ICntrl=       500 IOpCl=  0 I1Cent=   200000004 NGrid=           0
         NMat0=    1 NMatS0=      1 NMatT0=    0 NMatD0=    1 NMtDS0=    0 NMtDT0=    0
 Symmetry not used in FoFCou.
 Keep R1 ints in memory in canonical form, NReq=25608061.
 Requested convergence on RMS density matrix=1.00D-08 within 128 cycles.
 Requested convergence on MAX density matrix=1.00D-06.
 Requested convergence on             energy=1.00D-06.
 No special actions if energy rises.
 Integral accuracy reduced to 1.0D-05 until final iterations.
 Initial convergence to 1.0D-05 achieved.  Increase integral accuracy.
 SCF Done:  E(RB3LYP) =  -117.740060394     A.U. after   12 cycles
            NFock= 12  Conv=0.34D-08     -V/T= 2.0083
 DoSCS=F DFT=T ScalE2(SS,OS)=  1.000000  1.000000
 Range of M.O.s used for correlation:     1    75
 NBasis=    75 NAE=    12 NBE=    12 NFC=     0 NFV=     0
 NROrb=     75 NOA=    12 NOB=    12 NVA=    63 NVB=    63
 Symmetrizing basis deriv contribution to polar:
 IMax=3 JMax=2 DiffMx= 0.00D+00
 G2DrvN: will do    10 centers at a time, making    1 passes.
 Calling FoFCou, ICntrl=  3107 FMM=F I1Cent=   0 AccDes= 0.00D+00.
 End of G2Drv F.D. properties file   721 does not exist.
 End of G2Drv F.D. properties file   722 does not exist.
 End of G2Drv F.D. properties file   788 does not exist.
          IDoAtm=111111111
          Differentiating once with respect to nuclear coordinates.
 Keep R1 ints in memory in canonical form, NReq=25532399.
          There are    30 degrees of freedom in the 1st order CPHF.  IDoFFX=6 NUNeed=     0.
     24 vectors produced by pass  0 Test12= 2.52D-15 3.33D-09 XBig12= 1.42D-01 1.57D-01.
 AX will form    24 AO Fock derivatives at one time.
     24 vectors produced by pass  1 Test12= 2.52D-15 3.33D-09 XBig12= 6.14D-03 1.81D-02.
     24 vectors produced by pass  2 Test12= 2.52D-15 3.33D-09 XBig12= 3.68D-05 1.31D-03.
     24 vectors produced by pass  3 Test12= 2.52D-15 3.33D-09 XBig12= 1.44D-07 8.10D-05.
     24 vectors produced by pass  4 Test12= 2.52D-15 3.33D-09 XBig12= 1.30D-10 1.86D-06.
     11 vectors produced by pass  5 Test12= 2.52D-15 3.33D-09 XBig12= 6.43D-14 3.63D-08.
 InvSVY:  IOpt=1 It=  1 EMax= 1.55D-15
 Solved reduced A of dimension   131 with    24 vectors.
 End of Minotr F.D. properties file   721 does not exist.
 End of Minotr F.D. properties file   722 does not exist.
 End of Minotr F.D. properties file   788 does not exist.
 Calling FoFJK, ICntrl=    100127 FMM=F ISym2X=0 I1Cent= 0 IOpClX= 0 NMat=1 NMatS=1 NMatT=0.
 -------------------------------------------------------------------
 Center     Atomic                   Forces (Hartrees/Bohr)
 Number     Number              X              Y              Z
 -------------------------------------------------------------------
      1        6          -0.025282101    0.008205614   -0.025120112
      2        6           0.037487922   -0.007229068    0.028232989
      3        6          -0.000803300    0.005948387    0.010037986
      4        1          -0.001434739    0.001380131   -0.002216895
      5        1           0.003210214    0.001454821    0.001202434
      6        1          -0.006834374   -0.003542823   -0.002792832
      7        1          -0.003221872   -0.001376418   -0.001047962
      8        1          -0.006610011   -0.001113300   -0.002829024
      9        1           0.003488262   -0.003727344   -0.005466584
 -------------------------------------------------------------------
 Cartesian Forces:  Max     0.037487922 RMS     0.012081652
 IRC-IRC-IRC-IRC-IRC-IRC-IRC-IRC-IRC-IRC-IRC-IRC-IRC-IRC-IRC-IRC-IRC-IRC
 Pt  7 Step number   1 out of a maximum of 100
 Modified Bulirsch-Stoer Extrapolation Cycles:
    EPS =    0.000010000000000
      PEZero:  N= 2 I= 1 D=  6.37D-04 Err=  2.55D-05
      PEZero:  N= 3 I= 2 D=  6.37D-04 Err=  1.69D-05
      PEZero:  N= 3 I= 1 D=  1.27D-03 Err=  9.79D-08
 Maximum DWI energy   std dev =  0.000001379 at pt    28
 Maximum DWI gradient std dev =  0.004438687 at pt    24
 CORRECTOR INTEGRATION CONVERGENCE:
   Recorrection delta-x convergence threshold:    0.010000
   Delta-x Convergence Met
 Point Number:   7          Path Number:   1
   CHANGE IN THE REACTION COORDINATE =    0.12218
   NET REACTION COORDINATE UP TO THIS POINT =    0.85518
  # OF POINTS ALONG THE PATH =   7
  # OF STEPS =   1

 Calculating another point on the path.
 IRC-IRC-IRC-IRC-IRC-IRC-IRC-IRC-IRC-IRC-IRC-IRC-IRC-IRC-IRC-IRC-IRC-IRC
                          Input orientation:                          
 ---------------------------------------------------------------------
 Center     Atomic      Atomic             Coordinates (Angstroms)
 Number     Number       Type             X           Y           Z
 ---------------------------------------------------------------------
      1          6           0       -1.335189    0.129514   -0.597740
      2          6           0        0.349970    0.277141    0.548426
      3          6           0        1.258214   -0.484001    0.088166
      4          1           0       -0.117537    0.812044    1.358953
      5          1           0       -1.737985   -0.469776    0.210197
      6          1           0       -2.034867    0.934586   -0.855472
      7          1           0       -1.047640   -0.490217   -1.445817
      8          1           0       -0.416328    0.783535   -0.486444
      9          1           0        2.103863   -0.649220    0.755971
 ---------------------------------------------------------------------
                    Distance matrix (angstroms):
                    1          2          3          4          5
     1  C    0.000000
     2  C    2.043344   0.000000
     3  C    2.751837   1.271253   0.000000
     4  H    2.403575   1.077793   2.277569   0.000000
     5  H    1.083584   2.243176   2.998716   2.364012   0.000000
     6  H    1.097323   2.844401   3.707725   2.931698   1.787742
     7  H    1.089029   2.553264   2.769495   3.229196   1.794262
     8  H    1.133330   1.383692   2.177364   1.869646   1.950096
     9  H    3.777042   1.994332   1.090131   2.726444   3.884568
                    6          7          8          9
     6  H    0.000000
     7  H    1.831171   0.000000
     8  H    1.666934   1.715049   0.000000
     9  H    4.715324   3.847743   3.154005   0.000000
 Symmetry turned off by external request.
 Stoichiometry    C3H6
 Framework group  C1[X(C3H6)]
 Deg. of freedom    21
 Full point group                 C1      NOp   1
 Rotational constants (GHZ):          41.3198050           7.7573903           6.8881339
 Standard basis: 6-31G(d,p) (6D, 7F)
    75 basis functions,   126 primitive gaussians,    75 cartesian basis functions
    12 alpha electrons       12 beta electrons
       nuclear repulsion energy        67.7442654502 Hartrees.
 NAtoms=    9 NActive=    9 NUniq=    9 SFac= 1.00D+00 NAtFMM=   60 NAOKFM=F Big=F
 Integral buffers will be    131072 words long.
 Raffenetti 2 integral format.
 Two-electron integral symmetry is turned off.
 One-electron integrals computed using PRISM.
 NBasis=    75 RedAO= T EigKep=  3.83D-03  NBF=    75
 NBsUse=    75 1.00D-06 EigRej= -1.00D+00 NBFU=    75
 Initial guess from the checkpoint file:  "/scratch/brown/zhao922/pyGSM/new-benchmarking/R1-3/IRC-folder/Gau-220899.chk"
 B after Tr=    -0.001201   -0.000726   -0.001535
         Rot=    1.000000    0.000472   -0.000421   -0.000089 Ang=   0.07 deg.
 ExpMin= 1.61D-01 ExpMax= 3.05D+03 ExpMxC= 4.57D+02 IAcc=3 IRadAn=         5 AccDes= 0.00D+00
 Harris functional with IExCor=  402 and IRadAn=       5 diagonalized for initial guess.
 HarFok:  IExCor=  402 AccDes= 0.00D+00 IRadAn=         5 IDoV= 1 UseB2=F ITyADJ=14
 ICtDFT=  3500011 ScaDFX=  1.000000  1.000000  1.000000  1.000000
 FoFCou: FMM=F IPFlag=           0 FMFlag=      100000 FMFlg1=           0
         NFxFlg=           0 DoJE=T BraDBF=F KetDBF=T FulRan=T
         wScrn=  0.000000 ICntrl=       500 IOpCl=  0 I1Cent=   200000004 NGrid=           0
         NMat0=    1 NMatS0=      1 NMatT0=    0 NMatD0=    1 NMtDS0=    0 NMtDT0=    0
 Symmetry not used in FoFCou.
 Keep R1 ints in memory in canonical form, NReq=25608061.
 Requested convergence on RMS density matrix=1.00D-08 within 128 cycles.
 Requested convergence on MAX density matrix=1.00D-06.
 Requested convergence on             energy=1.00D-06.
 No special actions if energy rises.
 Integral accuracy reduced to 1.0D-05 until final iterations.
 Initial convergence to 1.0D-05 achieved.  Increase integral accuracy.
 SCF Done:  E(RB3LYP) =  -117.742924849     A.U. after   11 cycles
            NFock= 11  Conv=0.92D-08     -V/T= 2.0082
 DoSCS=F DFT=T ScalE2(SS,OS)=  1.000000  1.000000
 Range of M.O.s used for correlation:     1    75
 NBasis=    75 NAE=    12 NBE=    12 NFC=     0 NFV=     0
 NROrb=     75 NOA=    12 NOB=    12 NVA=    63 NVB=    63
 Symmetrizing basis deriv contribution to polar:
 IMax=3 JMax=2 DiffMx= 0.00D+00
 G2DrvN: will do    10 centers at a time, making    1 passes.
 Calling FoFCou, ICntrl=  3107 FMM=F I1Cent=   0 AccDes= 0.00D+00.
 End of G2Drv F.D. properties file   721 does not exist.
 End of G2Drv F.D. properties file   722 does not exist.
 End of G2Drv F.D. properties file   788 does not exist.
          IDoAtm=111111111
          Differentiating once with respect to nuclear coordinates.
 Keep R1 ints in memory in canonical form, NReq=25532399.
          There are    30 degrees of freedom in the 1st order CPHF.  IDoFFX=6 NUNeed=     0.
     24 vectors produced by pass  0 Test12= 2.52D-15 3.33D-09 XBig12= 1.38D-01 1.54D-01.
 AX will form    24 AO Fock derivatives at one time.
     24 vectors produced by pass  1 Test12= 2.52D-15 3.33D-09 XBig12= 6.38D-03 1.85D-02.
     24 vectors produced by pass  2 Test12= 2.52D-15 3.33D-09 XBig12= 3.76D-05 1.26D-03.
     24 vectors produced by pass  3 Test12= 2.52D-15 3.33D-09 XBig12= 1.44D-07 8.63D-05.
     24 vectors produced by pass  4 Test12= 2.52D-15 3.33D-09 XBig12= 1.30D-10 1.79D-06.
     11 vectors produced by pass  5 Test12= 2.52D-15 3.33D-09 XBig12= 6.67D-14 3.92D-08.
 InvSVY:  IOpt=1 It=  1 EMax= 1.78D-15
 Solved reduced A of dimension   131 with    24 vectors.
 End of Minotr F.D. properties file   721 does not exist.
 End of Minotr F.D. properties file   722 does not exist.
 End of Minotr F.D. properties file   788 does not exist.
[...]
   3                   -0.95172  -0.35366  -1.41264   0.75628   1.07299
   4                   -0.95044  -0.37387  -1.40384   0.73644   1.10283
   5                   -0.95005  -0.39302  -1.39529   0.71558   1.13150
   6                   -0.94976  -0.40667  -1.38949   0.69201   1.15442
   7                   -0.94978  -0.41365  -1.38784   0.66789   1.16830
   8                   -0.95036  -0.41778  -1.38837   0.64353   1.17670
   9                   -0.95127  -0.42088  -1.38986   0.61804   1.18183
  10                   -0.95232  -0.42357  -1.39180   0.59098   1.18446
  11                   -0.95339  -0.42607  -1.39390   0.56212   1.18490
  12                   -0.95443  -0.42846  -1.39604   0.53143   1.18326
  13                   -0.95541  -0.43079  -1.39812   0.49896   1.17959
  14                   -0.95634  -0.43304  -1.40011   0.46482   1.17391
  15                   -0.95723  -0.43524  -1.40199   0.42916   1.16626
  16                   -0.95812  -0.43737  -1.40376   0.39214   1.15666
  17                   -0.95905  -0.43945  -1.40542   0.35394   1.14516
  18                   -0.96004  -0.44146  -1.40699   0.31473   1.13185
  19                   -0.96113  -0.44342  -1.40849   0.27468   1.11679
  20                   -0.96237  -0.44534  -1.40993   0.23393   1.10010
  21                   -0.96377  -0.44721  -1.41132   0.19264   1.08189
  22                   -0.96539  -0.44906  -1.41270   0.15092   1.06231
  23                   -0.96723  -0.45088  -1.41408   0.10890   1.04153
  24                   -0.96932  -0.45270  -1.41547   0.06667   1.01972
  25                   -0.97169  -0.45453  -1.41689   0.02433   0.99710
  26                   -0.97438  -0.45637  -1.41835  -0.01802   0.97391
  27                   -0.97741  -0.45826  -1.41989  -0.06026   0.95040
  28                   -0.98082  -0.46021  -1.42151  -0.10224   0.92687
  29                   -0.98467  -0.46225  -1.42323  -0.14375   0.90366
  30                   -0.98909  -0.46446  -1.42510  -0.18430   0.88126
  31                   -0.99393  -0.46678  -1.42708  -0.22401   0.85975
  32                   -0.99954  -0.46937  -1.42925  -0.26160   0.84009
  33                   -1.00594  -0.47223  -1.43165  -0.29641   0.82291
  34                   -1.01315  -0.47539  -1.43425  -0.32763   0.80883
  35                   -1.02111  -0.47884  -1.43703  -0.35480   0.79818
  36                   -1.02964  -0.48251  -1.43992  -0.37811   0.79080
  37                   -1.03854  -0.48632  -1.44287  -0.39830   0.78617
  38                   -1.04765  -0.49022  -1.44581  -0.41619   0.78370
  39                   -1.05684  -0.49415  -1.44872  -0.43247   0.78290
  40                   -1.06603  -0.49809  -1.45157  -0.44763   0.78343
  41                   -1.07516  -0.50202  -1.45434  -0.46198   0.78505
  42                   -1.08418  -0.50591  -1.45703  -0.47574   0.78756
  43                   -1.09305  -0.50977  -1.45963  -0.48905   0.79084
  44                   -1.10175  -0.51358  -1.46213  -0.50200   0.79475
  45                   -1.11025  -0.51734  -1.46453  -0.51466   0.79922
  46                   -1.11853  -0.52105  -1.46684  -0.52709   0.80414
  47                   -1.12657  -0.52471  -1.46904  -0.53931   0.80944
  48                   -1.13437  -0.52830  -1.47116  -0.55137   0.81506
  49                   -1.14192  -0.53184  -1.47318  -0.56328   0.82093
  50                   -1.14919  -0.53531  -1.47511  -0.57508   0.82700
  51                   -1.15620  -0.53872  -1.47696  -0.58677   0.83323
  52                   -1.16293  -0.54206  -1.47873  -0.59839   0.83958
  53                   -1.16938  -0.54534  -1.48043  -0.60996   0.84601
  54                   -1.17555  -0.54854  -1.48206  -0.62149   0.85250
  55                   -1.18144  -0.55167  -1.48363  -0.63300   0.85903
  56                   -1.18706  -0.55473  -1.48515  -0.64452   0.86558
  57                   -1.19240  -0.55771  -1.48662  -0.65606   0.87213
  58                   -1.19747  -0.56061  -1.48804  -0.66766   0.87867
  59                   -1.20228  -0.56342  -1.48943  -0.67932   0.88521
  60                   -1.20682  -0.56614  -1.49080  -0.69108   0.89172
  61                   -1.21112  -0.56877  -1.49214  -0.70295   0.89821
  62                   -1.21517  -0.57131  -1.49346  -0.71496   0.90468
  63                   -1.21899  -0.57374  -1.49476  -0.72713   0.91113
  64                   -1.22258  -0.57607  -1.49606  -0.73949   0.91756
  65                   -1.22595  -0.57829  -1.49736  -0.75204   0.92396
  66                   -1.22912  -0.58038  -1.49866  -0.76481   0.93034
  67                   -1.23208  -0.58236  -1.49995  -0.77782   0.93670
  68                   -1.23486  -0.58420  -1.50125  -0.79107   0.94304
  69                   -1.23747  -0.58591  -1.50254  -0.80457   0.94935
  70                   -1.23991  -0.58748  -1.50384  -0.81833   0.95562
  71                   -1.24219  -0.58890  -1.50513  -0.83233   0.96187
  72                   -1.24433  -0.59016  -1.50641  -0.84658   0.96806
  73                   -1.24635  -0.59127  -1.50768  -0.86105   0.97421
  74                   -1.24825  -0.59222  -1.50894  -0.87572   0.98029
  75                   -1.25005  -0.59302  -1.51016  -0.89058   0.98630
  76                   -1.25178  -0.59365  -1.51137  -0.90558   0.99223
  77                   -1.25345  -0.59412  -1.51254  -0.92070   0.99806
  78                   -1.25507  -0.59444  -1.51369  -0.93593   1.00380
  79                   -1.25669  -0.59460  -1.51481  -0.95123   1.00943
  80                   -1.25831  -0.59463  -1.51591  -0.96658   1.01495
  81                   -1.25997  -0.59451  -1.51698  -0.98195   1.02036
  82                   -1.26169  -0.59426  -1.51805  -0.99734   1.02564
  83                   -1.26349  -0.59389  -1.51912  -1.01273   1.03080
  84                   -1.26540  -0.59340  -1.52019  -1.02810   1.03584
  85                   -1.26744  -0.59281  -1.52127  -1.04346   1.04075
  86                   -1.26964  -0.59212  -1.52239  -1.05877   1.04554
  87                   -1.27202  -0.59135  -1.52355  -1.07404   1.05019
  88                   -1.27459  -0.59049  -1.52476  -1.08925   1.05470
  89                   -1.27739  -0.58957  -1.52604  -1.10439   1.05908
  90                   -1.28042  -0.58858  -1.52740  -1.11945   1.06332
                          Z8        X9        Y9        Z9
   1                   -0.21682   1.97813  -0.28162   0.88654
   2                   -0.19547   1.97706  -0.29335   0.88873
   3                   -0.17349   1.97602  -0.30505   0.89023
   4                   -0.15133   1.97458  -0.31725   0.89224
   5                   -0.13106   1.97239  -0.33402   0.89677
   6                   -0.12253   1.97145  -0.36273   0.90478
   7                   -0.12768   1.97358  -0.39574   0.91151
   8                   -0.13917   1.97710  -0.42605   0.91559
   9                   -0.15363   1.98092  -0.45287   0.91773
  10                   -0.16973   1.98467  -0.47638   0.91848
  11                   -0.18676   1.98822  -0.49686   0.91821
  12                   -0.20426   1.99157  -0.51458   0.91717
  13                   -0.22187   1.99474  -0.52979   0.91552
  14                   -0.23930   1.99778  -0.54271   0.91339
  15                   -0.25633   2.00073  -0.55357   0.91086
  16                   -0.27276   2.00364  -0.56258   0.90799
  17                   -0.28846   2.00654  -0.56993   0.90483
  18                   -0.30331   2.00945  -0.57584   0.90142
  19                   -0.31725   2.01238  -0.58049   0.89777
  20                   -0.33024   2.01535  -0.58407   0.89391
  21                   -0.34230   2.01835  -0.58676   0.88986
  22                   -0.35345   2.02139  -0.58873   0.88562
  23                   -0.36377   2.02444  -0.59016   0.88121
  24                   -0.37335   2.02751  -0.59120   0.87662
  25                   -0.38231   2.03061  -0.59201   0.87186
  26                   -0.39081   2.03373  -0.59274   0.86690
  27                   -0.39896   2.03691  -0.59354   0.86173
  28                   -0.40692   2.04018  -0.59452   0.85629
  29                   -0.41481   2.04361  -0.59584   0.85051
  30                   -0.42271   2.04737  -0.59775   0.84417
  31                   -0.43074   2.05135  -0.60002   0.83742
  32                   -0.43876   2.05598  -0.60320   0.82975
  33                   -0.44680   2.06142  -0.60743   0.82098
  34                   -0.45481   2.06787  -0.61294   0.81089
  35                   -0.46274   2.07541  -0.61989   0.79932
  36                   -0.47060   2.08402  -0.62830   0.78627
  37                   -0.47848   2.09356  -0.63812   0.77177
  38                   -0.48647   2.10383  -0.64923   0.75589
  39                   -0.49465   2.11464  -0.66149   0.73865
  40                   -0.50304   2.12581  -0.67476   0.72010
  41                   -0.51165   2.13718  -0.68892   0.70026
  42                   -0.52048   2.14857  -0.70383   0.67914
  43                   -0.52950   2.15985  -0.71940   0.65678
  44                   -0.53868   2.17088  -0.73551   0.63320
  45                   -0.54799   2.18152  -0.75205   0.60845
  46                   -0.55740   2.19166  -0.76894   0.58257
  47                   -0.56687   2.20117  -0.78607   0.55560
  48                   -0.57637   2.20996  -0.80337   0.52761
  49                   -0.58587   2.21793  -0.82073   0.49867
  50                   -0.59536   2.22498  -0.83809   0.46884
  51                   -0.60481   2.23105  -0.85536   0.43819
  52                   -0.61421   2.23605  -0.87247   0.40683
  53                   -0.62353   2.23994  -0.88934   0.37483
  54                   -0.63279   2.24265  -0.90591   0.34230
  55                   -0.64196   2.24414  -0.92211   0.30935
  56                   -0.65104   2.24440  -0.93788   0.27608
  57                   -0.66004   2.24341  -0.95316   0.24262
  58                   -0.66894   2.24115  -0.96790   0.20909
  59                   -0.67776   2.23766  -0.98205   0.17562
  60                   -0.68648   2.23295  -0.99557   0.14235
  61                   -0.69511   2.22707  -1.00841   0.10943
  62                   -0.70366   2.22008  -1.02056   0.07700
  63                   -0.71212   2.21206  -1.03198   0.04521
  64                   -0.72050   2.20311  -1.04267   0.01421
  65                   -0.72878   2.19334  -1.05261  -0.01583
  66                   -0.73698   2.18290  -1.06180  -0.04478
  67                   -0.74510   2.17193  -1.07026  -0.07248
  68                   -0.75311   2.16061  -1.07801  -0.09879
  69                   -0.76104   2.14912  -1.08506  -0.12358
  70                   -0.76886   2.13765  -1.09147  -0.14674
  71                   -0.77657   2.12639  -1.09726  -0.16816
  72                   -0.78417   2.11553  -1.10248  -0.18779
  73                   -0.79164   2.10525  -1.10719  -0.20557
  74                   -0.79899   2.09569  -1.11143  -0.22152
  75                   -0.80621   2.08697  -1.11526  -0.23567
  76                   -0.81328   2.07918  -1.11872  -0.24808
  77                   -0.82022   2.07236  -1.12187  -0.25886
  78                   -0.82703   2.06652  -1.12473  -0.26815
  79                   -0.83371   2.06161  -1.12735  -0.27608
  80                   -0.84026   2.05758  -1.12976  -0.28283
  81                   -0.84669   2.05436  -1.13199  -0.28855
  82                   -0.85302   2.05184  -1.13406  -0.29341
  83                   -0.85925   2.04993  -1.13600  -0.29755
  84                   -0.86541   2.04854  -1.13782  -0.30109
  85                   -0.87150   2.04758  -1.13954  -0.30415
  86                   -0.87753   2.04698  -1.14118  -0.30682
  87                   -0.88352   2.04667  -1.14275  -0.30918
  88                   -0.88948   2.04662  -1.14425  -0.31128
  89                   -0.89540   2.04677  -1.14569  -0.31316
  90                   -0.90131   2.04711  -1.14709  -0.31485
 --------------------------------------------------------------------------
 
 Total number of points:                   89
 Total number of gradient calculations:    90
 Total number of Hessian calculations:     90
 IRC-IRC-IRC-IRC-IRC-IRC-IRC-IRC-IRC-IRC-IRC-IRC-IRC-IRC-IRC-IRC-IRC-IRC
                          Input orientation:                          
 ---------------------------------------------------------------------
 Center     Atomic      Atomic             Coordinates (Angstroms)
 Number     Number       Type             X           Y           Z
 ---------------------------------------------------------------------
      1          6           0       -1.189341    0.091416   -0.441657
      2          6           0        0.090995    0.285224    0.359140
      3          6           0        1.253539   -0.507461    0.073004
      4          1           0       -0.081909    0.748852    1.345358
      5          1           0       -1.837001   -0.620963    0.080546
      6          1           0       -1.750629    1.024321   -0.555858
      7          1           0       -0.955381   -0.320319   -1.426382
      8          1           0        0.798827    1.006956   -0.216978
      9          1           0        1.978240   -0.281179    0.886576
 ---------------------------------------------------------------------
                    Distance matrix (angstroms):
                    1          2          3          4          5
     1  C    0.000000
     2  C    1.522530   0.000000
     3  C    2.567332   1.435873   0.000000
     4  H    2.202737   1.103391   2.231732   0.000000
     5  H    1.095282   2.148478   3.092633   2.560564   0.000000
     6  H    1.094714   2.185192   3.430284   2.544628   1.766191
     7  H    1.092678   2.156310   2.676286   3.096550   1.771573
     8  H    2.200343   1.163545   1.607579   1.811963   3.112271
     9  H    3.454938   2.039778   1.112787   2.348544   3.914230
                    6          7          8          9
     6  H    0.000000
     7  H    1.788376   0.000000
     8  H    2.571938   2.510291   0.000000
     9  H    4.205878   3.735965   2.065947   0.000000
 Symmetry turned off by external request.
 Stoichiometry    C3H6
 Framework group  C1[X(C3H6)]
 Deg. of freedom    21
 Full point group                 C1      NOp   1
 Rotational constants (GHZ):          43.1732127           9.1013447           8.2351585

 **********************************************************************

            Population analysis using the SCF Density.

 **********************************************************************

 Alpha  occ. eigenvalues --  -10.21949 -10.20071 -10.18477  -0.81353  -0.69043
 Alpha  occ. eigenvalues --   -0.54079  -0.47435  -0.44009  -0.38180  -0.37688
 Alpha  occ. eigenvalues --   -0.33940  -0.20434
 Alpha virt. eigenvalues --   -0.04252   0.07925   0.11236   0.13875   0.16478
 Alpha virt. eigenvalues --    0.17028   0.18181   0.23239   0.31073   0.49428
 Alpha virt. eigenvalues --    0.51279   0.53384   0.58061   0.59991   0.62362
 Alpha virt. eigenvalues --    0.66142   0.68974   0.75687   0.82265   0.83841
 Alpha virt. eigenvalues --    0.85847   0.89009   0.90417   0.93259   0.99134
 Alpha virt. eigenvalues --    1.06693   1.26591   1.32307   1.49900   1.56991
 Alpha virt. eigenvalues --    1.61331   1.67113   1.80875   1.85842   1.88593
 Alpha virt. eigenvalues --    1.95813   2.03236   2.04693   2.06721   2.12417
 Alpha virt. eigenvalues --    2.19723   2.23716   2.31509   2.36357   2.37731
 Alpha virt. eigenvalues --    2.46121   2.52671   2.61260   2.62935   2.67807
 Alpha virt. eigenvalues --    2.74294   2.82286   2.85060   2.92452   3.12656
 Alpha virt. eigenvalues --    3.22798   3.30969   3.38877   3.43662   3.49962
 Alpha virt. eigenvalues --    4.18900   4.33984   4.58238
          Condensed to atoms (all electrons):
               1          2          3          4          5          6
     1  C    5.018206   0.354059  -0.078092  -0.072300   0.385158   0.365895
     2  C    0.354059   5.010705   0.378002   0.334475  -0.032444  -0.025910
     3  C   -0.078092   0.378002   5.589614  -0.035319  -0.001988   0.004657
     4  H   -0.072300   0.334475  -0.035319   0.683484  -0.000753   0.002183
     5  H    0.385158  -0.032444  -0.001988  -0.000753   0.577833  -0.031451
     6  H    0.365895  -0.025910   0.004657   0.002183  -0.031451   0.612095
     7  H    0.364845  -0.031610   0.010461   0.006513  -0.023900  -0.026243
     8  H   -0.038768   0.255973   0.026614  -0.002936   0.004212  -0.006213
     9  H    0.009510  -0.041249   0.282308  -0.020915  -0.000209  -0.000339
               7          8          9
     1  C    0.364845  -0.038768   0.009510
     2  C   -0.031610   0.255973  -0.041249
     3  C    0.010461   0.026614   0.282308
     4  H    0.006513  -0.002936  -0.020915
     5  H   -0.023900   0.004212  -0.000209
     6  H   -0.026243  -0.006213  -0.000339
     7  H    0.571888   0.000645  -0.000402
     8  H    0.000645   0.620075  -0.007926
     9  H   -0.000402  -0.007926   0.703014
 Mulliken charges:
               1
     1  C   -0.308514
     2  C   -0.202001
     3  C   -0.176257
     4  H    0.105568
     5  H    0.123542
     6  H    0.105327
     7  H    0.127804
     8  H    0.148323
     9  H    0.076208
 Sum of Mulliken charges =   0.00000
 Mulliken charges with hydrogens summed into heavy atoms:
               1
     1  C    0.048159
     2  C    0.051890
     3  C   -0.100049
 APT charges:
               1
     1  C   -0.987862
     2  C   -0.614270
     3  C   -0.444272
     4  H    0.335927
     5  H    0.374054
     6  H    0.391127
     7  H    0.307678
     8  H    0.279079
     9  H    0.358538
 Sum of APT charges =  -0.00000
 APT charges with hydrogens summed into heavy atoms:
               1
     1  C    0.084997
     2  C    0.000737
     3  C   -0.085734
 Electronic spatial extent (au):  <R**2>=            197.0758
 Charge=             -0.0000 electrons
 Dipole moment (field-independent basis, Debye):
    X=             -1.1192    Y=              1.6739    Z=              1.1308  Tot=              2.3094
 Quadrupole moment (field-independent basis, Debye-Ang):
   XX=            -21.5711   YY=            -20.8234   ZZ=            -20.3717
   XY=              2.4036   XZ=              1.6899   YZ=             -1.2905
 Traceless Quadrupole moment (field-independent basis, Debye-Ang):
   XX=             -0.6490   YY=              0.0986   ZZ=              0.5504
   XY=              2.4036   XZ=              1.6899   YZ=             -1.2905
 Octapole moment (field-independent basis, Debye-Ang**2):
  XXX=             -3.4573  YYY=              1.0294  ZZZ=              0.7176  XYY=             -1.8566
  XXY=              2.9899  XXZ=              3.1256  XZZ=             -0.7954  YZZ=              0.1193
  YYZ=              1.2763  XYZ=             -1.7807
 Hexadecapole moment (field-independent basis, Debye-Ang**3):
 XXXX=           -179.0660 YYYY=            -48.1824 ZZZZ=            -53.0416 XXXY=             18.6064
 XXXZ=            -13.9596 YYYX=             14.8124 YYYZ=             -3.9967 ZZZX=            -16.9353
 ZZZY=             -1.0717 XXYY=            -38.0194 XXZZ=            -39.2622 YYZZ=            -17.0436
 XXYZ=             -4.0399 YYXZ=             -4.4888 ZZXY=              5.1094
 N-N= 6.990672229287D+01 E-N=-4.116078214945D+02  KE= 1.166729101896D+02
  Exact polarizability:   0.000   0.000   0.000   0.000   0.000   0.000
 Approx polarizability:  51.952  -5.315  45.095   0.175   0.991  40.523

 This type of calculation cannot be archived.


 I DON'T EXACTLY UNDERSTAND WHAT YOU ARE SAYING,
 BUT YOU ARE ABSOLUTELY RIGHT.
     M.S.GORDON, IN A NDSU FACULTY MEETING
 Job cpu time:       0 days  2 hours 45 minutes 31.0 seconds.
 Elapsed time:       0 days  0 hours  7 minutes 48.0 seconds.
 File lengths (MBytes):  RWF=     10 Int=      0 D2E=      0 Chk=      3 Scr=      1
 Normal termination of Gaussian 16 at Fri Jul 17 17:42:53 2020.
