 Entering Gaussian System, Link 0=g16
 Initial command:
 /apps/cent7/gaussian/g16-B.01/g16-haswell/g16/l1.exe "/scratch/brown/zhao922/pyGSM/new-benchmarking/R1-3/IRC-folder/Gau-36235.inp" -scrdir="/scratch/brown/zhao922/pyGSM/new-benchmarking/R1-3/IRC-folder/"
 Entering Link 1 = /apps/cent7/gaussian/g16-B.01/g16-haswell/g16/l1.exe PID=     36236.
  
 Copyright (c) 1988-2017, Gaussian, Inc.  All Rights Reserved.
  
 This is part of the Gaussian(R) 16 program.  It is based on
 the Gaussian(R) 09 system (copyright 2009, Gaussian, Inc.),
 the Gaussian(R) 03 system (copyright 2003, Gaussian, Inc.),
 the Gaussian(R) 98 system (copyright 1998, Gaussian, Inc.),
 the Gaussian(R) 94 system (copyright 1995, Gaussian, Inc.),
 the Gaussian 92(TM) system (copyright 1992, Gaussian, Inc.),
 the Gaussian 90(TM) system (copyright 1990, Gaussian, Inc.),
 the Gaussian 88(TM) system (copyright 1988, Gaussian, Inc.),
 the Gaussian 86(TM) system (copyright 1986, Carnegie Mellon
 University), and the Gaussian 82(TM) system (copyright 1983,
 Carnegie Mellon University). Gaussian is a federally registered
 trademark of Gaussian, Inc.
  
 This software contains proprietary and confidential information,
 including trade secrets, belonging to Gaussian, Inc.
  
 This software is provided under written license and may be
 used, copied, transmitted, or stored only in accord with that
 written license.
  
 The following legend is applicable only to US Government
 contracts under FAR:
  
                    RESTRICTED RIGHTS LEGEND
  
 Use, reproduction and disclosure by the US Government is
 subject to restrictions as set forth in subparagraphs (a)
 and (c) of the Commercial Computer Software - Restricted
 Rights clause in FAR 52.227-19.
  
 Gaussian, Inc.
 340 Quinnipiac St., Bldg. 40, Wallingford CT 06492
  
  
 ---------------------------------------------------------------
 Warning -- This program may not be used in any manner that
 competes with the business of Gaussian, Inc. or will provide
 assistance to any competitor of Gaussian, Inc.  The licensee
 of this program is prohibited from giving any competitor of
 Gaussian, Inc. access to this program.  By using this program,
 the user acknowledges that Gaussian, Inc. is engaged in the
 business of creating and licensing software in the field of
 computational chemistry and represents and warrants to the
 licensee that it is not a competitor of Gaussian, Inc. and that
 it will not use this program in any manner prohibited above.
 ---------------------------------------------------------------
  

 Cite this work as:
 Gaussian 16, Revision B.01,
 M. J. Frisch, G. W. Trucks, H. B. Schlegel, G. E. Scuseria, 
 M. A. Robb, J. R. Cheeseman, G. Scalmani, V. Barone, 
 G. A. Petersson, H. Nakatsuji, X. Li, M. Caricato, A. V. Marenich, 
 J. Bloino, B. G. Janesko, R. Gomperts, B. Mennucci, H. P. Hratchian, 
 J. V. Ortiz, A. F. Izmaylov, J. L. Sonnenberg, D. Williams-Young, 
 F. Ding, F. Lipparini, F. Egidi, J. Goings, B. Peng, A. Petrone, 
 T. Henderson, D. Ranasinghe, V. G. Zakrzewski, J. Gao, N. Rega, 
 G. Zheng, W. Liang, M. Hada, M. Ehara, K. Toyota, R. Fukuda, 
 J. Hasegawa, M. Ishida, T. Nakajima, Y. Honda, O. Kitao, H. Nakai, 
 T. Vreven, K. Throssell, J. A. Montgomery, Jr., J. E. Peralta, 
 F. Ogliaro, M. J. Bearpark, J. J. Heyd, E. N. Brothers, K. N. Kudin, 
 V. N. Staroverov, T. A. Keith, R. Kobayashi, J. Normand, 
 K. Raghavachari, A. P. Rendell, J. C. Burant, S. S. Iyengar, 
 J. Tomasi, M. Cossi, J. M. Millam, M. Klene, C. Adamo, R. Cammi, 
 J. W. Ochterski, R. L. Martin, K. Morokuma, O. Farkas, 
 J. B. Foresman, and D. J. Fox, Gaussian, Inc., Wallingford CT, 2016.
 
 ******************************************
 Gaussian 16:  ES64L-G16RevB.01 20-Dec-2017
                17-Jul-2020 
 ******************************************
 %NProcShared=24
 Will use up to   24 processors via shared memory.
 %Mem=60GB
 ----------------------------------------------------------------------
 # B3LYP/6-31G** IRC=(CALCALL, maxpoints=60, StepSize=10, maxcyc=100, R
 eport=Cartesians)
 ----------------------------------------------------------------------
 1/6=100,10=4,18=10,26=3,38=1,39=10,42=60,44=3,71=1,129=10,172=1/1,23;
 2/12=2,17=6,18=5,29=1,40=1/2;
 3/5=1,6=6,7=101,11=2,25=1,30=1,71=2,74=-5,140=1/1,2,3;
 4//1;
 5/5=2,38=5/2;
 8/6=4,10=90,11=11/1;
 11/6=1,8=1,9=11,15=111,16=1/1,2,10;
 10/6=1,13=1/2;
 6/7=2,8=2,9=2,10=2,18=1,28=1/1;
 7/10=1,25=1/1,2,3,16;
 1/6=100,10=4,18=10,26=3,39=10,42=60,44=3,71=1,129=10/23(2);
 2/29=1/2;
 99/5=20/99;
 2/29=1/2;
 3/5=1,6=6,7=101,11=2,25=1,30=1,71=2,74=-5,140=1/1,2,3;
 4/5=5,16=3,69=1/1;
 5/5=2,38=5/2;
 8/6=4,10=90,11=11/1;
 11/6=1,8=1,9=11,15=111,16=1/1,2,10;
 10/6=1,13=1/2;
 7/10=1,25=1/1,2,3,16;
 1/6=100,10=4,18=10,26=3,39=10,42=60,44=3,71=1,129=10/23(-8);
 2/29=1/2;
 6/7=2,8=2,9=2,10=2,18=1,19=2,28=1/1;
 99/5=20/99;
 ----------
 pp_2_1 IRC
 ----------
 Symbolic Z-matrix:
 Charge =  0 Multiplicity = 1
 C                    -2.55508  -0.44211   1.45149 
 C                    -1.28781   0.2745    1.7721 
 C                    -0.10339  -0.02563   1.01997 
 H                    -1.14124   0.54389   2.82544 
 H                    -3.47621   0.13834   1.42031 
 H                    -1.64061   1.2107    1.25531 
 H                    -2.50851  -1.27609   0.75309 
 H                    -0.19574  -0.24134  -0.03925 
 H                     0.85506  -0.21624   1.49095 
 
 IRC-IRC-IRC-IRC-IRC-IRC-IRC-IRC-IRC-IRC-IRC-IRC-IRC-IRC-IRC-IRC-IRC-IRC
 ------------------------------------------------------------------------
 INPUT DATA FOR L123
 ------------------------------------------------------------------------
 GENERAL PARAMETERS:
 Follow reaction path in both directions.
 Maximum points per path      =  60
 Step size                    =   0.100 bohr
 Integration scheme           = HPC                                 
    Redo corrector integration= Yes                                 
    DWI Weight Power          =  2
    DWI will use Hessian update vectors when possible.
    Max correction cycles     = 100
 Initial Hessian              = CalcFC
 Hessian evaluation           = Analytic at all predictor steps
                              = Update at all corrector steps
 Hessian updating method      = Bofill                              
 ------------------------------------------------------------------------
 IRC-IRC-IRC-IRC-IRC-IRC-IRC-IRC-IRC-IRC-IRC-IRC-IRC-IRC-IRC-IRC-IRC-IRC
                          Input orientation:                          
 ---------------------------------------------------------------------
 Center     Atomic      Atomic             Coordinates (Angstroms)
 Number     Number       Type             X           Y           Z
 ---------------------------------------------------------------------
      1          6           0       -2.555081   -0.442109    1.451491
      2          6           0       -1.287811    0.274496    1.772101
      3          6           0       -0.103394   -0.025626    1.019972
      4          1           0       -1.141242    0.543886    2.825441
      5          1           0       -3.476208    0.138341    1.420308
      6          1           0       -1.640611    1.210701    1.255310
      7          1           0       -2.508505   -1.276087    0.753092
      8          1           0       -0.195735   -0.241338   -0.039251
      9          1           0        0.855059   -0.216236    1.490953
 ---------------------------------------------------------------------
                    Distance matrix (angstroms):
                    1          2          3          4          5
     1  C    0.000000
     2  C    1.490734   0.000000
     3  C    2.523972   1.434787   0.000000
     4  H    2.204283   1.097077   2.158979   0.000000
     5  H    1.089206   2.220671   3.400445   2.755165   0.000000
     6  H    1.899085   1.126064   1.986687   1.777448   2.132275
     7  H    1.088784   2.220986   2.723864   3.078366   1.839085
     8  H    2.798059   2.177088   1.084902   3.117214   3.610536
     9  H    3.417840   2.216248   1.084798   2.518702   4.346331
                    6          7          8          9
     6  H    0.000000
     7  H    2.681339   0.000000
     8  H    2.423215   2.654697   0.000000
     9  H    2.884449   3.602955   1.856427   0.000000
 Symmetry turned off by external request.
 Stoichiometry    C3H6
 Framework group  C1[X(C3H6)]
 Deg. of freedom    21
 Full point group                 C1      NOp   1
 Rotational constants (GHZ):          39.3556883           9.5654406           8.3590655
 Standard basis: 6-31G(d,p) (6D, 7F)
    75 basis functions,   126 primitive gaussians,    75 cartesian basis functions
    12 alpha electrons       12 beta electrons
       nuclear repulsion energy        70.1736128589 Hartrees.
 NAtoms=    9 NActive=    9 NUniq=    9 SFac= 1.00D+00 NAtFMM=   60 NAOKFM=F Big=F
 Integral buffers will be    131072 words long.
 Raffenetti 2 integral format.
 Two-electron integral symmetry is turned off.
 One-electron integrals computed using PRISM.
 NBasis=    75 RedAO= T EigKep=  4.93D-03  NBF=    75
 NBsUse=    75 1.00D-06 EigRej= -1.00D+00 NBFU=    75
 ExpMin= 1.61D-01 ExpMax= 3.05D+03 ExpMxC= 4.57D+02 IAcc=3 IRadAn=         5 AccDes= 0.00D+00
 Harris functional with IExCor=  402 and IRadAn=       5 diagonalized for initial guess.
 HarFok:  IExCor=  402 AccDes= 0.00D+00 IRadAn=         5 IDoV= 1 UseB2=F ITyADJ=14
 ICtDFT=  3500011 ScaDFX=  1.000000  1.000000  1.000000  1.000000
 FoFCou: FMM=F IPFlag=           0 FMFlag=      100000 FMFlg1=           0
         NFxFlg=           0 DoJE=T BraDBF=F KetDBF=T FulRan=T
         wScrn=  0.000000 ICntrl=       500 IOpCl=  0 I1Cent=   200000004 NGrid=           0
         NMat0=    1 NMatS0=      1 NMatT0=    0 NMatD0=    1 NMtDS0=    0 NMtDT0=    0
 Symmetry not used in FoFCou.
 Keep R1 ints in memory in canonical form, NReq=25608079.
 Requested convergence on RMS density matrix=1.00D-08 within 128 cycles.
 Requested convergence on MAX density matrix=1.00D-06.
 Requested convergence on             energy=1.00D-06.
 No special actions if energy rises.
 Integral accuracy reduced to 1.0D-05 until final iterations.
 Initial convergence to 1.0D-05 achieved.  Increase integral accuracy.
 SCF Done:  E(RB3LYP) =  -117.773226564     A.U. after   13 cycles
            NFock= 13  Conv=0.37D-08     -V/T= 2.0099
 DoSCS=F DFT=T ScalE2(SS,OS)=  1.000000  1.000000
 Range of M.O.s used for correlation:     1    75
 NBasis=    75 NAE=    12 NBE=    12 NFC=     0 NFV=     0
 NROrb=     75 NOA=    12 NOB=    12 NVA=    63 NVB=    63

 **** Warning!!: The smallest alpha delta epsilon is  0.85054889D-01

 Symmetrizing basis deriv contribution to polar:
 IMax=3 JMax=2 DiffMx= 0.00D+00
 G2DrvN: will do    10 centers at a time, making    1 passes.
 Calling FoFCou, ICntrl=  3107 FMM=F I1Cent=   0 AccDes= 0.00D+00.
 End of G2Drv F.D. properties file   721 does not exist.
 End of G2Drv F.D. properties file   722 does not exist.
 End of G2Drv F.D. properties file   788 does not exist.
          IDoAtm=111111111
          Differentiating once with respect to nuclear coordinates.
 Keep R1 ints in memory in canonical form, NReq=25532417.
          There are    30 degrees of freedom in the 1st order CPHF.  IDoFFX=6 NUNeed=     0.
     24 vectors produced by pass  0 Test12= 2.52D-15 3.33D-09 XBig12= 1.58D-01 2.14D-01.
 AX will form    24 AO Fock derivatives at one time.
     24 vectors produced by pass  1 Test12= 2.52D-15 3.33D-09 XBig12= 1.08D-02 2.32D-02.
     24 vectors produced by pass  2 Test12= 2.52D-15 3.33D-09 XBig12= 8.93D-05 2.13D-03.
     24 vectors produced by pass  3 Test12= 2.52D-15 3.33D-09 XBig12= 1.25D-07 8.17D-05.
     24 vectors produced by pass  4 Test12= 2.52D-15 3.33D-09 XBig12= 1.53D-10 2.11D-06.
     10 vectors produced by pass  5 Test12= 2.52D-15 3.33D-09 XBig12= 9.02D-14 4.56D-08.
 InvSVY:  IOpt=1 It=  1 EMax= 1.33D-15
 Solved reduced A of dimension   130 with    24 vectors.
 End of Minotr F.D. properties file   721 does not exist.
 End of Minotr F.D. properties file   722 does not exist.
 End of Minotr F.D. properties file   788 does not exist.

 **********************************************************************

            Population analysis using the SCF Density.

 **********************************************************************

 Alpha  occ. eigenvalues --  -10.20577 -10.18753 -10.18375  -0.79588  -0.65517
 Alpha  occ. eigenvalues --   -0.56922  -0.46239  -0.44069  -0.40068  -0.36551
 Alpha  occ. eigenvalues --   -0.34986  -0.16345
 Alpha virt. eigenvalues --   -0.07839   0.10079   0.13046   0.14661   0.15532
 Alpha virt. eigenvalues --    0.17968   0.21744   0.26758   0.32337   0.49578
 Alpha virt. eigenvalues --    0.53138   0.55593   0.59951   0.61120   0.62221
 Alpha virt. eigenvalues --    0.63949   0.74698   0.78435   0.81317   0.83184
 Alpha virt. eigenvalues --    0.87293   0.89457   0.91093   0.94691   0.98531
 Alpha virt. eigenvalues --    1.02782   1.32904   1.41349   1.45921   1.50246
 Alpha virt. eigenvalues --    1.63082   1.76851   1.82585   1.85009   1.94944
 Alpha virt. eigenvalues --    1.96014   2.02850   2.05505   2.06926   2.14064
 Alpha virt. eigenvalues --    2.21863   2.30868   2.31673   2.38366   2.43264
 Alpha virt. eigenvalues --    2.48224   2.52330   2.57719   2.62159   2.70380
 Alpha virt. eigenvalues --    2.76758   2.80655   2.86554   2.91908   3.21930
 Alpha virt. eigenvalues --    3.29875   3.31826   3.45255   3.46461   3.56529
 Alpha virt. eigenvalues --    4.24738   4.31968   4.59385
          Condensed to atoms (all electrons):
               1          2          3          4          5          6
     1  C    5.251789   0.390876  -0.057456  -0.052541   0.366517  -0.004266
     2  C    0.390876   4.804455   0.459407   0.373134  -0.040202   0.318605
     3  C   -0.057456   0.459407   5.185928  -0.038297   0.004561  -0.050800
     4  H   -0.052541   0.373134  -0.038297   0.597588   0.003002  -0.012438
     5  H    0.366517  -0.040202   0.004561   0.003002   0.617994  -0.009119
     6  H   -0.004266   0.318605  -0.050800  -0.012438  -0.009119   0.566270
     7  H    0.378312  -0.043156  -0.004612   0.003756  -0.039594   0.006035
     8  H   -0.002327  -0.041350   0.381544   0.005295   0.000404  -0.002197
     9  H    0.002878  -0.032285   0.379028  -0.005097  -0.000121   0.004703
               7          8          9
     1  C    0.378312  -0.002327   0.002878
     2  C   -0.043156  -0.041350  -0.032285
     3  C   -0.004612   0.381544   0.379028
     4  H    0.003756   0.005295  -0.005097
     5  H   -0.039594   0.000404  -0.000121
     6  H    0.006035  -0.002197   0.004703
     7  H    0.589116   0.003232   0.000415
     8  H    0.003232   0.588244  -0.037177
     9  H    0.000415  -0.037177   0.581270
 Mulliken charges:
               1
     1  C   -0.273783
     2  C   -0.189485
     3  C   -0.259304
     4  H    0.125597
     5  H    0.096557
     6  H    0.183207
     7  H    0.106494
     8  H    0.104331
     9  H    0.106386
 Sum of Mulliken charges =   0.00000
 Mulliken charges with hydrogens summed into heavy atoms:
               1
     1  C   -0.070732
     2  C    0.119319
     3  C   -0.048587
 APT charges:
               1
     1  C   -0.766004
     2  C   -0.794054
     3  C   -0.587846
     4  H    0.548282
     5  H    0.579965
     6  H    0.325059
     7  H    0.212520
     8  H    0.131368
     9  H    0.350709
 Sum of APT charges =   0.00000
 APT charges with hydrogens summed into heavy atoms:
               1
     1  C    0.026481
     2  C    0.079288
     3  C   -0.105769
 Electronic spatial extent (au):  <R**2>=            508.6300
 Charge=              0.0000 electrons
 Dipole moment (field-independent basis, Debye):
    X=              0.0671    Y=              0.8040    Z=             -0.2271  Tot=              0.8381
 Quadrupole moment (field-independent basis, Debye-Ang):
   XX=            -20.6775   YY=            -20.4637   ZZ=            -20.6734
   XY=             -2.4149   XZ=              1.5363   YZ=              2.2305
 Traceless Quadrupole moment (field-independent basis, Debye-Ang):
   XX=             -0.0726   YY=              0.1412   ZZ=             -0.0685
   XY=             -2.4149   XZ=              1.5363   YZ=              2.2305
 Octapole moment (field-independent basis, Debye-Ang**2):
  XXX=             83.0029  YYY=              4.0604  ZZZ=            -84.3694  XYY=             25.8043
  XXY=              6.0849  XXZ=            -31.9528  XZZ=             32.4537  YZZ=              6.1122
  YYZ=            -29.0226  XYZ=             -5.3866
 Hexadecapole moment (field-independent basis, Debye-Ang**3):
 XXXX=           -388.5719 YYYY=            -44.6529 ZZZZ=           -278.9964 XXXY=            -26.8410
 XXXZ=            133.6903 YYYX=            -15.0746 YYYZ=              1.2733 ZZZX=            135.0803
 ZZZY=             11.3648 XXYY=            -71.0981 XXZZ=           -127.8265 YYZZ=            -57.4216
 XXYZ=             12.0371 YYXZ=             41.6313 ZZXY=            -15.9672
 N-N= 7.017361285889D+01 E-N=-4.122258463832D+02  KE= 1.166161439056D+02
  Exact polarizability:   0.000   0.000   0.000   0.000   0.000   0.000
 Approx polarizability: 241.417  42.854  46.266 -47.644  -6.770  48.655
 Calling FoFJK, ICntrl=    100127 FMM=F ISym2X=0 I1Cent= 0 IOpClX= 0 NMat=1 NMatS=1 NMatT=0.
 -------------------------------------------------------------------
 Center     Atomic                   Forces (Hartrees/Bohr)
 Number     Number              X              Y              Z
 -------------------------------------------------------------------
      1        6           0.000003744    0.000004425   -0.000002519
      2        6           0.000002693   -0.000011910    0.000005106
      3        6          -0.000006110   -0.000000541    0.000001497
      4        1          -0.000000197    0.000002203   -0.000000118
      5        1          -0.000002165   -0.000001696    0.000003548
      6        1          -0.000001988    0.000005181   -0.000005008
      7        1           0.000000761    0.000000743   -0.000001165
      8        1           0.000002665    0.000000552   -0.000001319
      9        1           0.000000597    0.000001043   -0.000000022
 -------------------------------------------------------------------
 Cartesian Forces:  Max     0.000011910 RMS     0.000003595
 IRC-IRC-IRC-IRC-IRC-IRC-IRC-IRC-IRC-IRC-IRC-IRC-IRC-IRC-IRC-IRC-IRC-IRC
          ******** Start new reaction path calculation ********
 Supplied step size of   0.1000 bohr.
    Integration on MW PES will use step size of   0.1084 sqrt(amu)*bohr.
 Point Number:   0          Path Number:   1
 Calculating another point on the path.
 IRC-IRC-IRC-IRC-IRC-IRC-IRC-IRC-IRC-IRC-IRC-IRC-IRC-IRC-IRC-IRC-IRC-IRC
                          Input orientation:                          
 ---------------------------------------------------------------------
 Center     Atomic      Atomic             Coordinates (Angstroms)
 Number     Number       Type             X           Y           Z
 ---------------------------------------------------------------------
      1          6           0       -1.232490   -0.392605    0.055127
      2          6           0        0.031303    0.330798    0.377349
      3          6           0        1.215343    0.024568   -0.377294
      4          1           0        0.182391    0.585864    1.434048
      5          1           0       -2.152409    0.188800    0.000350
      6          1           0       -0.310242    1.278184   -0.122249
      7          1           0       -1.179944   -1.242203   -0.624139
      8          1           0        1.121689   -0.180185   -1.438598
      9          1           0        2.169967   -0.187055    0.093549
 ---------------------------------------------------------------------
                    Distance matrix (angstroms):
                    1          2          3          4          5
     1  C    0.000000
     2  C    1.491413   0.000000
     3  C    2.520498   1.437085   0.000000
     4  H    2.204703   1.097497   2.159399   0.000000
     5  H    1.089625   2.220561   3.392837   2.768473   0.000000
     6  H    1.916648   1.124184   1.990982   1.773147   2.143681
     7  H    1.089027   2.223607   2.720852   3.071468   1.839414
     8  H    2.796157   2.178923   1.084924   3.117884   3.595335
     9  H    3.408877   2.218693   1.085258   2.518888   4.339687
                    6          7          8          9
     6  H    0.000000
     7  H    2.713047   0.000000
     8  H    2.431057   2.662468   0.000000
     9  H    2.888759   3.584733   1.856451   0.000000
 Symmetry turned off by external request.
 Stoichiometry    C3H6
 Framework group  C1[X(C3H6)]
 Deg. of freedom    21
 Full point group                 C1      NOp   1
 Rotational constants (GHZ):          38.9108596           9.5857440           8.3738516
 Standard basis: 6-31G(d,p) (6D, 7F)
    75 basis functions,   126 primitive gaussians,    75 cartesian basis functions
    12 alpha electrons       12 beta electrons
       nuclear repulsion energy        70.1367963513 Hartrees.
 NAtoms=    9 NActive=    9 NUniq=    9 SFac= 1.00D+00 NAtFMM=   60 NAOKFM=F Big=F
 Integral buffers will be    131072 words long.
 Raffenetti 2 integral format.
 Two-electron integral symmetry is turned off.
 One-electron integrals computed using PRISM.
 NBasis=    75 RedAO= T EigKep=  5.00D-03  NBF=    75
 NBsUse=    75 1.00D-06 EigRej= -1.00D+00 NBFU=    75
 Initial guess from the checkpoint file:  "/scratch/brown/zhao922/pyGSM/new-benchmarking/R1-3/IRC-folder/Gau-36236.chk"
 B after Tr=     2.496554    0.097391   -2.636749
         Rot=    1.000000   -0.000491    0.000076    0.000249 Ang=  -0.06 deg.
 ExpMin= 1.61D-01 ExpMax= 3.05D+03 ExpMxC= 4.57D+02 IAcc=3 IRadAn=         5 AccDes= 0.00D+00
 Harris functional with IExCor=  402 and IRadAn=       5 diagonalized for initial guess.
 HarFok:  IExCor=  402 AccDes= 0.00D+00 IRadAn=         5 IDoV= 1 UseB2=F ITyADJ=14
 ICtDFT=  3500011 ScaDFX=  1.000000  1.000000  1.000000  1.000000
 FoFCou: FMM=F IPFlag=           0 FMFlag=      100000 FMFlg1=           0
         NFxFlg=           0 DoJE=T BraDBF=F KetDBF=T FulRan=T
         wScrn=  0.000000 ICntrl=       500 IOpCl=  0 I1Cent=   200000004 NGrid=           0
         NMat0=    1 NMatS0=      1 NMatT0=    0 NMatD0=    1 NMtDS0=    0 NMtDT0=    0
 Symmetry not used in FoFCou.
 Keep R1 ints in memory in canonical form, NReq=25608079.
 Requested convergence on RMS density matrix=1.00D-08 within 128 cycles.
 Requested convergence on MAX density matrix=1.00D-06.
 Requested convergence on             energy=1.00D-06.
 No special actions if energy rises.
 Integral accuracy reduced to 1.0D-05 until final iterations.
 Initial convergence to 1.0D-05 achieved.  Increase integral accuracy.
 SCF Done:  E(RB3LYP) =  -117.773274465     A.U. after   11 cycles
            NFock= 11  Conv=0.81D-08     -V/T= 2.0099
 DoSCS=F DFT=T ScalE2(SS,OS)=  1.000000  1.000000
 Range of M.O.s used for correlation:     1    75
 NBasis=    75 NAE=    12 NBE=    12 NFC=     0 NFV=     0
 NROrb=     75 NOA=    12 NOB=    12 NVA=    63 NVB=    63

 **** Warning!!: The smallest alpha delta epsilon is  0.83850915D-01

 Symmetrizing basis deriv contribution to polar:
 IMax=3 JMax=2 DiffMx= 0.00D+00
 G2DrvN: will do    10 centers at a time, making    1 passes.
 Calling FoFCou, ICntrl=  3107 FMM=F I1Cent=   0 AccDes= 0.00D+00.
 End of G2Drv F.D. properties file   721 does not exist.
 End of G2Drv F.D. properties file   722 does not exist.
 End of G2Drv F.D. properties file   788 does not exist.
          IDoAtm=111111111
          Differentiating once with respect to nuclear coordinates.
 Keep R1 ints in memory in canonical form, NReq=25532417.
          There are    30 degrees of freedom in the 1st order CPHF.  IDoFFX=6 NUNeed=     0.
     24 vectors produced by pass  0 Test12= 2.52D-15 3.33D-09 XBig12= 1.55D-01 2.09D-01.
 AX will form    24 AO Fock derivatives at one time.
     24 vectors produced by pass  1 Test12= 2.52D-15 3.33D-09 XBig12= 1.31D-02 2.55D-02.
     24 vectors produced by pass  2 Test12= 2.52D-15 3.33D-09 XBig12= 8.52D-05 2.17D-03.
     24 vectors produced by pass  3 Test12= 2.52D-15 3.33D-09 XBig12= 1.30D-07 7.62D-05.
     24 vectors produced by pass  4 Test12= 2.52D-15 3.33D-09 XBig12= 1.73D-10 2.14D-06.
     10 vectors produced by pass  5 Test12= 2.52D-15 3.33D-09 XBig12= 1.00D-13 4.70D-08.
 InvSVY:  IOpt=1 It=  1 EMax= 1.55D-15
 Solved reduced A of dimension   130 with    24 vectors.
 End of Minotr F.D. properties file   721 does not exist.
 End of Minotr F.D. properties file   722 does not exist.
 End of Minotr F.D. properties file   788 does not exist.
 Calling FoFJK, ICntrl=    100127 FMM=F ISym2X=0 I1Cent= 0 IOpClX= 0 NMat=1 NMatS=1 NMatT=0.
 -------------------------------------------------------------------
 Center     Atomic                   Forces (Hartrees/Bohr)
 Number     Number              X              Y              Z
 -------------------------------------------------------------------
      1        6           0.000313421   -0.000325898   -0.000263649
      2        6          -0.000235565    0.001021575    0.000270789
      3        6          -0.000286965   -0.000254979   -0.000252292
      4        1           0.000040724   -0.000174192    0.000003074
      5        1           0.000194689   -0.000128255   -0.000391530
      6        1           0.000123461    0.000139388    0.000318705
      7        1           0.000103272   -0.000112750    0.000429122
      8        1          -0.000028107    0.000159142   -0.000018162
      9        1          -0.000224931   -0.000324031   -0.000096057
 -------------------------------------------------------------------
 Cartesian Forces:  Max     0.001021575 RMS     0.000300129
 IRC-IRC-IRC-IRC-IRC-IRC-IRC-IRC-IRC-IRC-IRC-IRC-IRC-IRC-IRC-IRC-IRC-IRC
 Pt  1 Step number   1 out of a maximum of 100
 Modified Bulirsch-Stoer Extrapolation Cycles:
    EPS =    0.000010000000000
      PEZero:  N= 2 I= 1 D=  2.82D-04 Err=  3.68D-04
      PEZero:  N= 3 I= 2 D=  2.82D-04 Err=  2.45D-04
      PEZero:  N= 3 I= 1 D=  5.64D-04 Err=  5.84D-08
 Maximum DWI energy   std dev =  0.000000082 at pt     1
 Maximum DWI gradient std dev =  0.083582304 at pt    40
 CORRECTOR INTEGRATION CONVERGENCE:
   Recorrection delta-x convergence threshold:    0.010000
   Delta-x Convergence Met
 Point Number:   1          Path Number:   1
   CHANGE IN THE REACTION COORDINATE =    0.10835
   NET REACTION COORDINATE UP TO THIS POINT =    0.10835
  # OF POINTS ALONG THE PATH =   1
  # OF STEPS =   1

 Calculating another point on the path.
 IRC-IRC-IRC-IRC-IRC-IRC-IRC-IRC-IRC-IRC-IRC-IRC-IRC-IRC-IRC-IRC-IRC-IRC
                          Input orientation:                          
 ---------------------------------------------------------------------
 Center     Atomic      Atomic             Coordinates (Angstroms)
 Number     Number       Type             X           Y           Z
 ---------------------------------------------------------------------
      1          6           0       -1.230247   -0.394240    0.054331
      2          6           0        0.030088    0.335835    0.378668
      3          6           0        1.213233    0.023354   -0.378773
      4          1           0        0.185673    0.576458    1.438356
      5          1           0       -2.148548    0.187238   -0.024455
      6          1           0       -0.302996    1.292516   -0.104342
      7          1           0       -1.171773   -1.259133   -0.604728
      8          1           0        1.118528   -0.170237   -1.442039
      9          1           0        2.163441   -0.209495    0.091546
 ---------------------------------------------------------------------
                    Distance matrix (angstroms):
                    1          2          3          4          5
     1  C    0.000000
     2  C    1.492196   0.000000
     3  C    2.516457   1.439164   0.000000
     4  H    2.205132   1.097745   2.159574   0.000000
     5  H    1.089771   2.220595   3.384371   2.782066   0.000000
     6  H    1.931351   1.122267   1.996255   1.769591   2.152692
     7  H    1.088953   2.226086   2.717366   3.063697   1.839238
     8  H    2.793930   2.180776   1.084888   3.118404   3.579262
     9  H    3.398916   2.220590   1.085502   2.518568   4.331755
                    6          7          8          9
     6  H    0.000000
     7  H    2.741545   0.000000
     8  H    2.439224   2.670629   0.000000
     9  H    2.894430   3.565135   1.856143   0.000000
 Symmetry turned off by external request.
 Stoichiometry    C3H6
 Framework group  C1[X(C3H6)]
 Deg. of freedom    21
 Full point group                 C1      NOp   1
 Rotational constants (GHZ):          38.4707821           9.6101849           8.3914707
 Standard basis: 6-31G(d,p) (6D, 7F)
    75 basis functions,   126 primitive gaussians,    75 cartesian basis functions
    12 alpha electrons       12 beta electrons
       nuclear repulsion energy        70.1097992993 Hartrees.
 NAtoms=    9 NActive=    9 NUniq=    9 SFac= 1.00D+00 NAtFMM=   60 NAOKFM=F Big=F
 Integral buffers will be    131072 words long.
 Raffenetti 2 integral format.
 Two-electron integral symmetry is turned off.
 One-electron integrals computed using PRISM.
 NBasis=    75 RedAO= T EigKep=  5.07D-03  NBF=    75
 NBsUse=    75 1.00D-06 EigRej= -1.00D+00 NBFU=    75
 Initial guess from the checkpoint file:  "/scratch/brown/zhao922/pyGSM/new-benchmarking/R1-3/IRC-folder/Gau-36236.chk"
 B after Tr=     0.000492   -0.001044    0.000430
         Rot=    1.000000   -0.000455    0.000074    0.000215 Ang=  -0.06 deg.
 ExpMin= 1.61D-01 ExpMax= 3.05D+03 ExpMxC= 4.57D+02 IAcc=3 IRadAn=         5 AccDes= 0.00D+00
 Harris functional with IExCor=  402 and IRadAn=       5 diagonalized for initial guess.
 HarFok:  IExCor=  402 AccDes= 0.00D+00 IRadAn=         5 IDoV= 1 UseB2=F ITyADJ=14
 ICtDFT=  3500011 ScaDFX=  1.000000  1.000000  1.000000  1.000000
 FoFCou: FMM=F IPFlag=           0 FMFlag=      100000 FMFlg1=           0
         NFxFlg=           0 DoJE=T BraDBF=F KetDBF=T FulRan=T
         wScrn=  0.000000 ICntrl=       500 IOpCl=  0 I1Cent=   200000004 NGrid=           0
         NMat0=    1 NMatS0=      1 NMatT0=    0 NMatD0=    1 NMtDS0=    0 NMtDT0=    0
 Symmetry not used in FoFCou.
 Keep R1 ints in memory in canonical form, NReq=25608079.
 Requested convergence on RMS density matrix=1.00D-08 within 128 cycles.
 Requested convergence on MAX density matrix=1.00D-06.
 Requested convergence on             energy=1.00D-06.
 No special actions if energy rises.
 Integral accuracy reduced to 1.0D-05 until final iterations.
 Initial convergence to 1.0D-05 achieved.  Increase integral accuracy.
 SCF Done:  E(RB3LYP) =  -117.773419488     A.U. after   11 cycles
            NFock= 11  Conv=0.79D-08     -V/T= 2.0100
 DoSCS=F DFT=T ScalE2(SS,OS)=  1.000000  1.000000
 Range of M.O.s used for correlation:     1    75
 NBasis=    75 NAE=    12 NBE=    12 NFC=     0 NFV=     0
 NROrb=     75 NOA=    12 NOB=    12 NVA=    63 NVB=    63

 **** Warning!!: The smallest alpha delta epsilon is  0.82955688D-01

 Symmetrizing basis deriv contribution to polar:
 IMax=3 JMax=2 DiffMx= 0.00D+00
 G2DrvN: will do    10 centers at a time, making    1 passes.
 Calling FoFCou, ICntrl=  3107 FMM=F I1Cent=   0 AccDes= 0.00D+00.
 End of G2Drv F.D. properties file   721 does not exist.
 End of G2Drv F.D. properties file   722 does not exist.
 End of G2Drv F.D. properties file   788 does not exist.
          IDoAtm=111111111
          Differentiating once with respect to nuclear coordinates.
 Keep R1 ints in memory in canonical form, NReq=25532417.
          There are    30 degrees of freedom in the 1st order CPHF.  IDoFFX=6 NUNeed=     0.
     24 vectors produced by pass  0 Test12= 2.52D-15 3.33D-09 XBig12= 1.52D-01 2.04D-01.
 AX will form    24 AO Fock derivatives at one time.
     24 vectors produced by pass  1 Test12= 2.52D-15 3.33D-09 XBig12= 1.61D-02 2.84D-02.
     24 vectors produced by pass  2 Test12= 2.52D-15 3.33D-09 XBig12= 8.15D-05 2.19D-03.
     24 vectors produced by pass  3 Test12= 2.52D-15 3.33D-09 XBig12= 1.58D-07 7.11D-05.
     24 vectors produced by pass  4 Test12= 2.52D-15 3.33D-09 XBig12= 1.97D-10 2.14D-06.
     11 vectors produced by pass  5 Test12= 2.52D-15 3.33D-09 XBig12= 1.10D-13 5.33D-08.
 InvSVY:  IOpt=1 It=  1 EMax= 1.33D-15
 Solved reduced A of dimension   131 with    24 vectors.
 End of Minotr F.D. properties file   721 does not exist.
 End of Minotr F.D. properties file   722 does not exist.
 End of Minotr F.D. properties file   788 does not exist.
 Calling FoFJK, ICntrl=    100127 FMM=F ISym2X=0 I1Cent= 0 IOpClX= 0 NMat=1 NMatS=1 NMatT=0.
 -------------------------------------------------------------------
 Center     Atomic                   Forces (Hartrees/Bohr)
 Number     Number              X              Y              Z
 -------------------------------------------------------------------
      1        6           0.000747844   -0.000636071   -0.000426916
      2        6          -0.000445712    0.001957808    0.000552748
      3        6          -0.000697320   -0.000486430   -0.000531625
      4        1           0.000093690   -0.000318699    0.000068459
      5        1           0.000267995   -0.000155919   -0.000784675
      6        1           0.000224388    0.000361089    0.000587167
      7        1           0.000228198   -0.000361776    0.000735551
      8        1          -0.000082205    0.000313938   -0.000068405
      9        1          -0.000336880   -0.000673940   -0.000132304
 -------------------------------------------------------------------
 Cartesian Forces:  Max     0.001957808 RMS     0.000585642
 IRC-IRC-IRC-IRC-IRC-IRC-IRC-IRC-IRC-IRC-IRC-IRC-IRC-IRC-IRC-IRC-IRC-IRC
 Pt  2 Step number   1 out of a maximum of 100
 Modified Bulirsch-Stoer Extrapolation Cycles:
    EPS =    0.000010000000000
      PEZero:  N= 2 I= 1 D=  5.64D-04 Err=  1.14D-05
      PEZero:  N= 3 I= 2 D=  5.64D-04 Err=  7.57D-06
      PEZero:  N= 3 I= 1 D=  1.13D-03 Err=  5.75D-08
 Maximum DWI energy   std dev =  0.000000082 at pt    11
 Maximum DWI gradient std dev =  0.048154619 at pt    23
 CORRECTOR INTEGRATION CONVERGENCE:
   Recorrection delta-x convergence threshold:    0.010000
   Delta-x Convergence Met
 Point Number:   2          Path Number:   1
   CHANGE IN THE REACTION COORDINATE =    0.10833
   NET REACTION COORDINATE UP TO THIS POINT =    0.21668
  # OF POINTS ALONG THE PATH =   2
  # OF STEPS =   1

 Calculating another point on the path.
 IRC-IRC-IRC-IRC-IRC-IRC-IRC-IRC-IRC-IRC-IRC-IRC-IRC-IRC-IRC-IRC-IRC-IRC
                          Input orientation:                          
 ---------------------------------------------------------------------
 Center     Atomic      Atomic             Coordinates (Angstroms)
 Number     Number       Type             X           Y           Z
 ---------------------------------------------------------------------
      1          6           0       -1.227913   -0.395796    0.053450
      2          6           0        0.028957    0.340881    0.380105
      3          6           0        1.211022    0.022115   -0.380257
      4          1           0        0.189032    0.567001    1.442533
      5          1           0       -2.144197    0.185332   -0.049573
      6          1           0       -0.296642    1.306043   -0.086650
      7          1           0       -1.163718   -1.275603   -0.584857
      8          1           0        1.115428   -0.160313   -1.445376
      9          1           0        2.156431   -0.231917    0.089311
 ---------------------------------------------------------------------
                    Distance matrix (angstroms):
                    1          2          3          4          5
     1  C    0.000000
     2  C    1.493022   0.000000
     3  C    2.512201   1.441194   0.000000
     4  H    2.205507   1.097956   2.159612   0.000000
     5  H    1.089908   2.220679   3.375423   2.795712   0.000000
     6  H    1.945032   1.120452   2.001931   1.766483   2.161209
     7  H    1.088861   2.228597   2.713912   3.055394   1.839076
     8  H    2.791626   2.182658   1.084849   3.118848   3.562708
     9  H    3.388499   2.222342   1.085737   2.517963   4.323052
                    6          7          8          9
     6  H    0.000000
     7  H    2.768560   0.000000
     8  H    2.447505   2.679341   0.000000
     9  H    2.900664   3.545020   1.855823   0.000000
 Symmetry turned off by external request.
 Stoichiometry    C3H6
 Framework group  C1[X(C3H6)]
 Deg. of freedom    21
 Full point group                 C1      NOp   1
 Rotational constants (GHZ):          38.0336391           9.6362949           8.4101670
 Standard basis: 6-31G(d,p) (6D, 7F)
    75 basis functions,   126 primitive gaussians,    75 cartesian basis functions
    12 alpha electrons       12 beta electrons
       nuclear repulsion energy        70.0850057223 Hartrees.
 NAtoms=    9 NActive=    9 NUniq=    9 SFac= 1.00D+00 NAtFMM=   60 NAOKFM=F Big=F
 Integral buffers will be    131072 words long.
 Raffenetti 2 integral format.
 Two-electron integral symmetry is turned off.
 One-electron integrals computed using PRISM.
 NBasis=    75 RedAO= T EigKep=  5.15D-03  NBF=    75
 NBsUse=    75 1.00D-06 EigRej= -1.00D+00 NBFU=    75
 Initial guess from the checkpoint file:  "/scratch/brown/zhao922/pyGSM/new-benchmarking/R1-3/IRC-folder/Gau-36236.chk"
 B after Tr=     0.000459   -0.001071    0.000418
         Rot=    1.000000   -0.000431    0.000073    0.000205 Ang=  -0.06 deg.
 ExpMin= 1.61D-01 ExpMax= 3.05D+03 ExpMxC= 4.57D+02 IAcc=3 IRadAn=         5 AccDes= 0.00D+00
 Harris functional with IExCor=  402 and IRadAn=       5 diagonalized for initial guess.
 HarFok:  IExCor=  402 AccDes= 0.00D+00 IRadAn=         5 IDoV= 1 UseB2=F ITyADJ=14
 ICtDFT=  3500011 ScaDFX=  1.000000  1.000000  1.000000  1.000000
 FoFCou: FMM=F IPFlag=           0 FMFlag=      100000 FMFlg1=           0
         NFxFlg=           0 DoJE=T BraDBF=F KetDBF=T FulRan=T
         wScrn=  0.000000 ICntrl=       500 IOpCl=  0 I1Cent=   200000004 NGrid=           0
         NMat0=    1 NMatS0=      1 NMatT0=    0 NMatD0=    1 NMtDS0=    0 NMtDT0=    0
 Symmetry not used in FoFCou.
 Keep R1 ints in memory in canonical form, NReq=25608079.
 Requested convergence on RMS density matrix=1.00D-08 within 128 cycles.
 Requested convergence on MAX density matrix=1.00D-06.
 Requested convergence on             energy=1.00D-06.
 No special actions if energy rises.
 Integral accuracy reduced to 1.0D-05 until final iterations.
 Initial convergence to 1.0D-05 achieved.  Increase integral accuracy.
 SCF Done:  E(RB3LYP) =  -117.773661325     A.U. after   11 cycles
            NFock= 11  Conv=0.87D-08     -V/T= 2.0100
 DoSCS=F DFT=T ScalE2(SS,OS)=  1.000000  1.000000
 Range of M.O.s used for correlation:     1    75
 NBasis=    75 NAE=    12 NBE=    12 NFC=     0 NFV=     0
 NROrb=     75 NOA=    12 NOB=    12 NVA=    63 NVB=    63

 **** Warning!!: The smallest alpha delta epsilon is  0.82284558D-01

 Symmetrizing basis deriv contribution to polar:
 IMax=3 JMax=2 DiffMx= 0.00D+00
 G2DrvN: will do    10 centers at a time, making    1 passes.
 Calling FoFCou, ICntrl=  3107 FMM=F I1Cent=   0 AccDes= 0.00D+00.
 End of G2Drv F.D. properties file   721 does not exist.
 End of G2Drv F.D. properties file   722 does not exist.
 End of G2Drv F.D. properties file   788 does not exist.
          IDoAtm=111111111
          Differentiating once with respect to nuclear coordinates.
 Keep R1 ints in memory in canonical form, NReq=25532417.
          There are    30 degrees of freedom in the 1st order CPHF.  IDoFFX=6 NUNeed=     0.
     24 vectors produced by pass  0 Test12= 2.52D-15 3.33D-09 XBig12= 1.48D-01 1.99D-01.
 AX will form    24 AO Fock derivatives at one time.
     24 vectors produced by pass  1 Test12= 2.52D-15 3.33D-09 XBig12= 2.02D-02 3.17D-02.
     24 vectors produced by pass  2 Test12= 2.52D-15 3.33D-09 XBig12= 9.60D-05 2.18D-03.
     24 vectors produced by pass  3 Test12= 2.52D-15 3.33D-09 XBig12= 1.96D-07 7.23D-05.
     24 vectors produced by pass  4 Test12= 2.52D-15 3.33D-09 XBig12= 2.28D-10 2.23D-06.
     11 vectors produced by pass  5 Test12= 2.52D-15 3.33D-09 XBig12= 1.23D-13 5.95D-08.
 InvSVY:  IOpt=1 It=  1 EMax= 2.00D-15
 Solved reduced A of dimension   131 with    24 vectors.
 End of Minotr F.D. properties file   721 does not exist.
 End of Minotr F.D. properties file   722 does not exist.
 End of Minotr F.D. properties file   788 does not exist.
 Calling FoFJK, ICntrl=    100127 FMM=F ISym2X=0 I1Cent= 0 IOpClX= 0 NMat=1 NMatS=1 NMatT=0.
 -------------------------------------------------------------------
 Center     Atomic                   Forces (Hartrees/Bohr)
 Number     Number              X              Y              Z
 -------------------------------------------------------------------
      1        6           0.001240171   -0.000894440   -0.000635623
      2        6          -0.000613354    0.002902553    0.000891099
      3        6          -0.001175775   -0.000737894   -0.000813076
      4        1           0.000149682   -0.000463674    0.000131554
      5        1           0.000352209   -0.000198126   -0.001185236
      6        1           0.000286825    0.000549849    0.000848851
      7        1           0.000354059   -0.000603734    0.001055607
      8        1          -0.000131768    0.000470917   -0.000119222
      9        1          -0.000462049   -0.001025452   -0.000173953
 -------------------------------------------------------------------
 Cartesian Forces:  Max     0.002902553 RMS     0.000882041
 IRC-IRC-IRC-IRC-IRC-IRC-IRC-IRC-IRC-IRC-IRC-IRC-IRC-IRC-IRC-IRC-IRC-IRC
 Pt  3 Step number   1 out of a maximum of 100
 Modified Bulirsch-Stoer Extrapolation Cycles:
    EPS =    0.000010000000000
      PEZero:  N= 2 I= 1 D=  5.64D-04 Err=  1.08D-05
      PEZero:  N= 3 I= 2 D=  5.64D-04 Err=  7.17D-06
      PEZero:  N= 3 I= 1 D=  1.13D-03 Err=  4.40D-08
 Maximum DWI energy   std dev =  0.000000075 at pt    11
 Maximum DWI gradient std dev =  0.027071417 at pt    24
 CORRECTOR INTEGRATION CONVERGENCE:
   Recorrection delta-x convergence threshold:    0.010000
   Delta-x Convergence Met
 Point Number:   3          Path Number:   1
   CHANGE IN THE REACTION COORDINATE =    0.10834
   NET REACTION COORDINATE UP TO THIS POINT =    0.32502
  # OF POINTS ALONG THE PATH =   3
  # OF STEPS =   1

 Calculating another point on the path.
 IRC-IRC-IRC-IRC-IRC-IRC-IRC-IRC-IRC-IRC-IRC-IRC-IRC-IRC-IRC-IRC-IRC-IRC
                          Input orientation:                          
 ---------------------------------------------------------------------
 Center     Atomic      Atomic             Coordinates (Angstroms)
 Number     Number       Type             X           Y           Z
 ---------------------------------------------------------------------
      1          6           0       -1.225457   -0.397267    0.052468
      2          6           0        0.027912    0.345936    0.381683
      3          6           0        1.208678    0.020837   -0.381746
      4          1           0        0.192460    0.557576    1.446586
      5          1           0       -2.139357    0.183024   -0.074930
      6          1           0       -0.291213    1.318739   -0.069274
      7          1           0       -1.155728   -1.291580   -0.564574
      8          1           0        1.112374   -0.150350   -1.448626
      9          1           0        2.148912   -0.254329    0.086837
 ---------------------------------------------------------------------
                    Distance matrix (angstroms):
                    1          2          3          4          5
     1  C    0.000000
     2  C    1.493877   0.000000
     3  C    2.507661   1.443164   0.000000
     4  H    2.205850   1.098128   2.159534   0.000000
     5  H    1.090037   2.220831   3.365973   2.809389   0.000000
     6  H    1.957628   1.118726   2.007949   1.763842   2.169221
     7  H    1.088761   2.231114   2.710402   3.046597   1.838950
     8  H    2.789212   2.184580   1.084809   3.119239   3.545692
     9  H    3.377570   2.223937   1.085969   2.517104   4.313548
                    6          7          8          9
     6  H    0.000000
     7  H    2.794007   0.000000
     8  H    2.455787   2.688539   0.000000
     9  H    2.907425   3.524326   1.855497   0.000000
 Symmetry turned off by external request.
 Stoichiometry    C3H6
 Framework group  C1[X(C3H6)]
 Deg. of freedom    21
 Full point group                 C1      NOp   1
 Rotational constants (GHZ):          37.5988438           9.6645030           8.4302160
 Standard basis: 6-31G(d,p) (6D, 7F)
    75 basis functions,   126 primitive gaussians,    75 cartesian basis functions
    12 alpha electrons       12 beta electrons
       nuclear repulsion energy        70.0629822050 Hartrees.
 NAtoms=    9 NActive=    9 NUniq=    9 SFac= 1.00D+00 NAtFMM=   60 NAOKFM=F Big=F
 Integral buffers will be    131072 words long.
 Raffenetti 2 integral format.
 Two-electron integral symmetry is turned off.
 One-electron integrals computed using PRISM.
 NBasis=    75 RedAO= T EigKep=  5.23D-03  NBF=    75
 NBsUse=    75 1.00D-06 EigRej= -1.00D+00 NBFU=    75
 Initial guess from the checkpoint file:  "/scratch/brown/zhao922/pyGSM/new-benchmarking/R1-3/IRC-folder/Gau-36236.chk"
 B after Tr=     0.000425   -0.001095    0.000404
         Rot=    1.000000   -0.000406    0.000072    0.000193 Ang=  -0.05 deg.
 ExpMin= 1.61D-01 ExpMax= 3.05D+03 ExpMxC= 4.57D+02 IAcc=3 IRadAn=         5 AccDes= 0.00D+00
 Harris functional with IExCor=  402 and IRadAn=       5 diagonalized for initial guess.
 HarFok:  IExCor=  402 AccDes= 0.00D+00 IRadAn=         5 IDoV= 1 UseB2=F ITyADJ=14
 ICtDFT=  3500011 ScaDFX=  1.000000  1.000000  1.000000  1.000000
 FoFCou: FMM=F IPFlag=           0 FMFlag=      100000 FMFlg1=           0
         NFxFlg=           0 DoJE=T BraDBF=F KetDBF=T FulRan=T
         wScrn=  0.000000 ICntrl=       500 IOpCl=  0 I1Cent=   200000004 NGrid=           0
         NMat0=    1 NMatS0=      1 NMatT0=    0 NMatD0=    1 NMtDS0=    0 NMtDT0=    0
 Symmetry not used in FoFCou.
 Keep R1 ints in memory in canonical form, NReq=25608079.
 Requested convergence on RMS density matrix=1.00D-08 within 128 cycles.
 Requested convergence on MAX density matrix=1.00D-06.
 Requested convergence on             energy=1.00D-06.
 No special actions if energy rises.
 Integral accuracy reduced to 1.0D-05 until final iterations.
 Initial convergence to 1.0D-05 achieved.  Increase integral accuracy.
 SCF Done:  E(RB3LYP) =  -117.774000346     A.U. after   11 cycles
            NFock= 11  Conv=0.84D-08     -V/T= 2.0100
 DoSCS=F DFT=T ScalE2(SS,OS)=  1.000000  1.000000
 Range of M.O.s used for correlation:     1    75
 NBasis=    75 NAE=    12 NBE=    12 NFC=     0 NFV=     0
 NROrb=     75 NOA=    12 NOB=    12 NVA=    63 NVB=    63

 **** Warning!!: The smallest alpha delta epsilon is  0.81833257D-01

 Symmetrizing basis deriv contribution to polar:
 IMax=3 JMax=2 DiffMx= 0.00D+00
 G2DrvN: will do    10 centers at a time, making    1 passes.
 Calling FoFCou, ICntrl=  3107 FMM=F I1Cent=   0 AccDes= 0.00D+00.
 End of G2Drv F.D. properties file   721 does not exist.
 End of G2Drv F.D. properties file   722 does not exist.
 End of G2Drv F.D. properties file   788 does not exist.
          IDoAtm=111111111
          Differentiating once with respect to nuclear coordinates.
 Keep R1 ints in memory in canonical form, NReq=25532417.
          There are    30 degrees of freedom in the 1st order CPHF.  IDoFFX=6 NUNeed=     0.
     24 vectors produced by pass  0 Test12= 2.52D-15 3.33D-09 XBig12= 1.45D-01 2.01D-01.
 AX will form    24 AO Fock derivatives at one time.
     24 vectors produced by pass  1 Test12= 2.52D-15 3.33D-09 XBig12= 2.58D-02 3.57D-02.
     24 vectors produced by pass  2 Test12= 2.52D-15 3.33D-09 XBig12= 1.21D-04 2.50D-03.
     24 vectors produced by pass  3 Test12= 2.52D-15 3.33D-09 XBig12= 2.49D-07 7.90D-05.
     24 vectors produced by pass  4 Test12= 2.52D-15 3.33D-09 XBig12= 2.69D-10 2.32D-06.
     11 vectors produced by pass  5 Test12= 2.52D-15 3.33D-09 XBig12= 1.41D-13 6.55D-08.
 InvSVY:  IOpt=1 It=  1 EMax= 9.99D-16
 Solved reduced A of dimension   131 with    24 vectors.
 End of Minotr F.D. properties file   721 does not exist.
 End of Minotr F.D. properties file   722 does not exist.
 End of Minotr F.D. properties file   788 does not exist.
 Calling FoFJK, ICntrl=    100127 FMM=F ISym2X=0 I1Cent= 0 IOpClX= 0 NMat=1 NMatS=1 NMatT=0.
 -------------------------------------------------------------------
 Center     Atomic                   Forces (Hartrees/Bohr)
 Number     Number              X              Y              Z
 -------------------------------------------------------------------
      1        6           0.001785575   -0.001123456   -0.000881503
      2        6          -0.000756785    0.003847811    0.001282141
      3        6          -0.001707555   -0.001004459   -0.001098428
      4        1           0.000207233   -0.000607146    0.000191415
      5        1           0.000452072   -0.000252622   -0.001592946
      6        1           0.000325429    0.000716142    0.001100214
      7        1           0.000476282   -0.000830663    0.001389262
      8        1          -0.000178544    0.000630388   -0.000167004
      9        1          -0.000603707   -0.001375995   -0.000223150
 -------------------------------------------------------------------
 Cartesian Forces:  Max     0.003847811 RMS     0.001187524
 IRC-IRC-IRC-IRC-IRC-IRC-IRC-IRC-IRC-IRC-IRC-IRC-IRC-IRC-IRC-IRC-IRC-IRC
 Pt  4 Step number   1 out of a maximum of 100
 Modified Bulirsch-Stoer Extrapolation Cycles:
    EPS =    0.000010000000000
      PEZero:  N= 2 I= 1 D=  5.64D-04 Err=  9.70D-06
 Maximum DWI energy   std dev =  0.000000074 at pt    15
 Maximum DWI gradient std dev =  0.018842526 at pt    16
 CORRECTOR INTEGRATION CONVERGENCE:
   Recorrection delta-x convergence threshold:    0.010000
   Delta-x Convergence Met
 Point Number:   4          Path Number:   1
   CHANGE IN THE REACTION COORDINATE =    0.10834
   NET REACTION COORDINATE UP TO THIS POINT =    0.43336
  # OF POINTS ALONG THE PATH =   4
  # OF STEPS =   1

 Calculating another point on the path.
 IRC-IRC-IRC-IRC-IRC-IRC-IRC-IRC-IRC-IRC-IRC-IRC-IRC-IRC-IRC-IRC-IRC-IRC
                          Input orientation:                          
 ---------------------------------------------------------------------
 Center     Atomic      Atomic             Coordinates (Angstroms)
 Number     Number       Type             X           Y           Z
 ---------------------------------------------------------------------
      1          6           0       -1.222875   -0.398661    0.051389
      2          6           0        0.026940    0.350991    0.383402
      3          6           0        1.206200    0.019522   -0.383242
      4          1           0        0.195935    0.548216    1.450509
      5          1           0       -2.134012    0.180318   -0.100471
      6          1           0       -0.286571    1.330674   -0.052254
      7          1           0       -1.147840   -1.307037   -0.543915
      8          1           0        1.109380   -0.140337   -1.451789
      9          1           0        2.140891   -0.276687    0.084129
 ---------------------------------------------------------------------
                    Distance matrix (angstroms):
                    1          2          3          4          5
     1  C    0.000000
     2  C    1.494740   0.000000
     3  C    2.502836   1.445085   0.000000
     4  H    2.206159   1.098260   2.159351   0.000000
     5  H    1.090160   2.221030   3.356015   2.823038   0.000000
     6  H    1.969265   1.117078   2.014210   1.761633   2.176852
     7  H    1.088652   2.233625   2.706858   3.037338   1.838859
     8  H    2.786698   2.186551   1.084768   3.119587   3.528239
     9  H    3.366136   2.225384   1.086195   2.516011   4.303223
                    6          7          8          9
     6  H    0.000000
     7  H    2.817984   0.000000
     8  H    2.463991   2.698233   0.000000
     9  H    2.914581   3.503114   1.855168   0.000000
 Symmetry turned off by external request.
 Stoichiometry    C3H6
 Framework group  C1[X(C3H6)]
 Deg. of freedom    21
 Full point group                 C1      NOp   1
 Rotational constants (GHZ):          37.1668535           9.6948384           8.4516408
 Standard basis: 6-31G(d,p) (6D, 7F)
    75 basis functions,   126 primitive gaussians,    75 cartesian basis functions
    12 alpha electrons       12 beta electrons
       nuclear repulsion energy        70.0437624324 Hartrees.
 NAtoms=    9 NActive=    9 NUniq=    9 SFac= 1.00D+00 NAtFMM=   60 NAOKFM=F Big=F
 Integral buffers will be    131072 words long.
 Raffenetti 2 integral format.
 Two-electron integral symmetry is turned off.
 One-electron integrals computed using PRISM.
 NBasis=    75 RedAO= T EigKep=  5.31D-03  NBF=    75
 NBsUse=    75 1.00D-06 EigRej= -1.00D+00 NBFU=    75
 Initial guess from the checkpoint file:  "/scratch/brown/zhao922/pyGSM/new-benchmarking/R1-3/IRC-folder/Gau-36236.chk"
 B after Tr=     0.000395   -0.001111    0.000388
         Rot=    1.000000   -0.000381    0.000072    0.000181 Ang=  -0.05 deg.
 ExpMin= 1.61D-01 ExpMax= 3.05D+03 ExpMxC= 4.57D+02 IAcc=3 IRadAn=         5 AccDes= 0.00D+00
 Harris functional with IExCor=  402 and IRadAn=       5 diagonalized for initial guess.
 HarFok:  IExCor=  402 AccDes= 0.00D+00 IRadAn=         5 IDoV= 1 UseB2=F ITyADJ=14
 ICtDFT=  3500011 ScaDFX=  1.000000  1.000000  1.000000  1.000000
 FoFCou: FMM=F IPFlag=           0 FMFlag=      100000 FMFlg1=           0
         NFxFlg=           0 DoJE=T BraDBF=F KetDBF=T FulRan=T
         wScrn=  0.000000 ICntrl=       500 IOpCl=  0 I1Cent=   200000004 NGrid=           0
         NMat0=    1 NMatS0=      1 NMatT0=    0 NMatD0=    1 NMtDS0=    0 NMtDT0=    0
 Symmetry not used in FoFCou.
 Keep R1 ints in memory in canonical form, NReq=25608079.
 Requested convergence on RMS density matrix=1.00D-08 within 128 cycles.
 Requested convergence on MAX density matrix=1.00D-06.
 Requested convergence on             energy=1.00D-06.
 No special actions if energy rises.
 Integral accuracy reduced to 1.0D-05 until final iterations.
 Initial convergence to 1.0D-05 achieved.  Increase integral accuracy.
 SCF Done:  E(RB3LYP) =  -117.774436966     A.U. after   11 cycles
            NFock= 11  Conv=0.82D-08     -V/T= 2.0100
 DoSCS=F DFT=T ScalE2(SS,OS)=  1.000000  1.000000
 Range of M.O.s used for correlation:     1    75
 NBasis=    75 NAE=    12 NBE=    12 NFC=     0 NFV=     0
 NROrb=     75 NOA=    12 NOB=    12 NVA=    63 NVB=    63

 **** Warning!!: The smallest alpha delta epsilon is  0.81591227D-01

 Symmetrizing basis deriv contribution to polar:
 IMax=3 JMax=2 DiffMx= 0.00D+00
 G2DrvN: will do    10 centers at a time, making    1 passes.
 Calling FoFCou, ICntrl=  3107 FMM=F I1Cent=   0 AccDes= 0.00D+00.
 End of G2Drv F.D. properties file   721 does not exist.
 End of G2Drv F.D. properties file   722 does not exist.
 End of G2Drv F.D. properties file   788 does not exist.
          IDoAtm=111111111
          Differentiating once with respect to nuclear coordinates.
 Keep R1 ints in memory in canonical form, NReq=25532417.
          There are    30 degrees of freedom in the 1st order CPHF.  IDoFFX=6 NUNeed=     0.
     24 vectors produced by pass  0 Test12= 2.52D-15 3.33D-09 XBig12= 1.42D-01 2.03D-01.
 AX will form    24 AO Fock derivatives at one time.
     24 vectors produced by pass  1 Test12= 2.52D-15 3.33D-09 XBig12= 3.38D-02 4.01D-02.
     24 vectors produced by pass  2 Test12= 2.52D-15 3.33D-09 XBig12= 1.57D-04 3.01D-03.
     24 vectors produced by pass  3 Test12= 2.52D-15 3.33D-09 XBig12= 3.26D-07 8.97D-05.
     24 vectors produced by pass  4 Test12= 2.52D-15 3.33D-09 XBig12= 3.26D-10 2.59D-06.
     11 vectors produced by pass  5 Test12= 2.52D-15 3.33D-09 XBig12= 1.69D-13 7.22D-08.
 InvSVY:  IOpt=1 It=  1 EMax= 1.55D-15
 Solved reduced A of dimension   131 with    24 vectors.
 End of Minotr F.D. properties file   721 does not exist.
 End of Minotr F.D. properties file   722 does not exist.
 End of Minotr F.D. properties file   788 does not exist.
 Calling FoFJK, ICntrl=    100127 FMM=F ISym2X=0 I1Cent= 0 IOpClX= 0 NMat=1 NMatS=1 NMatT=0.
 -------------------------------------------------------------------
 Center     Atomic                   Forces (Hartrees/Bohr)
 Number     Number              X              Y              Z
 -------------------------------------------------------------------
      1        6           0.002384565   -0.001326793   -0.001161625
      2        6          -0.000883432    0.004790109    0.001723833
      3        6          -0.002292082   -0.001285537   -0.001387013
      4        1           0.000265247   -0.000747519    0.000247414
      5        1           0.000568762   -0.000319756   -0.002005209
      6        1           0.000346854    0.000862077    0.001339982
      7        1           0.000593535   -0.001041204    0.001734391
      8        1          -0.000222413    0.000792659   -0.000212142
      9        1          -0.000761036   -0.001724035   -0.000279630
 -------------------------------------------------------------------
 Cartesian Forces:  Max     0.004790109 RMS     0.001502049
 IRC-IRC-IRC-IRC-IRC-IRC-IRC-IRC-IRC-IRC-IRC-IRC-IRC-IRC-IRC-IRC-IRC-IRC
 Pt  5 Step number   1 out of a maximum of 100
 Modified Bulirsch-Stoer Extrapolation Cycles:
    EPS =    0.000010000000000
      PEZero:  N= 2 I= 1 D=  5.64D-04 Err=  8.53D-06
 Maximum DWI energy   std dev =  0.000000077 at pt    15
 Maximum DWI gradient std dev =  0.014423931 at pt    16
 CORRECTOR INTEGRATION CONVERGENCE:
   Recorrection delta-x convergence threshold:    0.010000
   Delta-x Convergence Met
 Point Number:   5          Path Number:   1
   CHANGE IN THE REACTION COORDINATE =    0.10834
   NET REACTION COORDINATE UP TO THIS POINT =    0.54171
  # OF POINTS ALONG THE PATH =   5
  # OF STEPS =   1

 Calculating another point on the path.
 IRC-IRC-IRC-IRC-IRC-IRC-IRC-IRC-IRC-IRC-IRC-IRC-IRC-IRC-IRC-IRC-IRC-IRC
                          Input orientation:                          
 ---------------------------------------------------------------------
 Center     Atomic      Atomic             Coordinates (Angstroms)
 Number     Number       Type             X           Y           Z
 ---------------------------------------------------------------------
      1          6           0       -1.220164   -0.399982    0.050216
      2          6           0        0.026027    0.356037    0.385257
      3          6           0        1.203590    0.018169   -0.384742
      4          1           0        0.199438    0.538953    1.454300
      5          1           0       -2.128149    0.177217   -0.126144
      6          1           0       -0.282599    1.341914   -0.035621
      7          1           0       -1.140084   -1.321949   -0.522912
      8          1           0        1.106457   -0.130266   -1.454864
      9          1           0        2.132375   -0.298954    0.081191
 ---------------------------------------------------------------------
                    Distance matrix (angstroms):
                    1          2          3          4          5
     1  C    0.000000
     2  C    1.495597   0.000000
     3  C    2.497723   1.446965   0.000000
     4  H    2.206427   1.098354   2.159076   0.000000
     5  H    1.090275   2.221257   3.345542   2.836603   0.000000
     6  H    1.980050   1.115500   2.020630   1.759821   2.184209
     7  H    1.088536   2.236118   2.703297   3.027646   1.838803
     8  H    2.784093   2.188576   1.084725   3.119899   3.510373
     9  H    3.354204   2.226695   1.086417   2.514708   4.292061
                    6          7          8          9
     6  H    0.000000
     7  H    2.840580   0.000000
     8  H    2.472051   2.708429   0.000000
     9  H    2.922018   3.481443   1.854839   0.000000
 Symmetry turned off by external request.
 Stoichiometry    C3H6
 Framework group  C1[X(C3H6)]
 Deg. of freedom    21
 Full point group                 C1      NOp   1
 Rotational constants (GHZ):          36.7381042           9.7273316           8.4744591
 Standard basis: 6-31G(d,p) (6D, 7F)
    75 basis functions,   126 primitive gaussians,    75 cartesian basis functions
    12 alpha electrons       12 beta electrons
       nuclear repulsion energy        70.0273784893 Hartrees.
 NAtoms=    9 NActive=    9 NUniq=    9 SFac= 1.00D+00 NAtFMM=   60 NAOKFM=F Big=F
 Integral buffers will be    131072 words long.
 Raffenetti 2 integral format.
 Two-electron integral symmetry is turned off.
 One-electron integrals computed using PRISM.
 NBasis=    75 RedAO= T EigKep=  5.39D-03  NBF=    75
 NBsUse=    75 1.00D-06 EigRej= -1.00D+00 NBFU=    75
 Initial guess from the checkpoint file:  "/scratch/brown/zhao922/pyGSM/new-benchmarking/R1-3/IRC-folder/Gau-36236.chk"
 B after Tr=     0.000369   -0.001122    0.000372
         Rot=    1.000000   -0.000357    0.000071    0.000171 Ang=  -0.05 deg.
 ExpMin= 1.61D-01 ExpMax= 3.05D+03 ExpMxC= 4.57D+02 IAcc=3 IRadAn=         5 AccDes= 0.00D+00
 Harris functional with IExCor=  402 and IRadAn=       5 diagonalized for initial guess.
 HarFok:  IExCor=  402 AccDes= 0.00D+00 IRadAn=         5 IDoV= 1 UseB2=F ITyADJ=14
 ICtDFT=  3500011 ScaDFX=  1.000000  1.000000  1.000000  1.000000
 FoFCou: FMM=F IPFlag=           0 FMFlag=      100000 FMFlg1=           0
         NFxFlg=           0 DoJE=T BraDBF=F KetDBF=T FulRan=T
         wScrn=  0.000000 ICntrl=       500 IOpCl=  0 I1Cent=   200000004 NGrid=           0
         NMat0=    1 NMatS0=      1 NMatT0=    0 NMatD0=    1 NMtDS0=    0 NMtDT0=    0
 Symmetry not used in FoFCou.
 Keep R1 ints in memory in canonical form, NReq=25608079.
 Requested convergence on RMS density matrix=1.00D-08 within 128 cycles.
 Requested convergence on MAX density matrix=1.00D-06.
 Requested convergence on             energy=1.00D-06.
 No special actions if energy rises.
 Integral accuracy reduced to 1.0D-05 until final iterations.
 Initial convergence to 1.0D-05 achieved.  Increase integral accuracy.
 SCF Done:  E(RB3LYP) =  -117.774971497     A.U. after   11 cycles
            NFock= 11  Conv=0.80D-08     -V/T= 2.0100
 DoSCS=F DFT=T ScalE2(SS,OS)=  1.000000  1.000000
 Range of M.O.s used for correlation:     1    75
 NBasis=    75 NAE=    12 NBE=    12 NFC=     0 NFV=     0
 NROrb=     75 NOA=    12 NOB=    12 NVA=    63 NVB=    63

 **** Warning!!: The smallest alpha delta epsilon is  0.81549657D-01

 Symmetrizing basis deriv contribution to polar:
 IMax=3 JMax=2 DiffMx= 0.00D+00
 G2DrvN: will do    10 centers at a time, making    1 passes.
 Calling FoFCou, ICntrl=  3107 FMM=F I1Cent=   0 AccDes= 0.00D+00.
 End of G2Drv F.D. properties file   721 does not exist.
 End of G2Drv F.D. properties file   722 does not exist.
 End of G2Drv F.D. properties file   788 does not exist.
          IDoAtm=111111111
          Differentiating once with respect to nuclear coordinates.
 Keep R1 ints in memory in canonical form, NReq=25532410.
          There are    30 degrees of freedom in the 1st order CPHF.  IDoFFX=6 NUNeed=     0.
     24 vectors produced by pass  0 Test12= 2.52D-15 3.33D-09 XBig12= 1.39D-01 2.05D-01.
 AX will form    24 AO Fock derivatives at one time.
     24 vectors produced by pass  1 Test12= 2.52D-15 3.33D-09 XBig12= 4.49D-02 4.93D-02.
     24 vectors produced by pass  2 Test12= 2.52D-15 3.33D-09 XBig12= 2.11D-04 3.80D-03.
     24 vectors produced by pass  3 Test12= 2.52D-15 3.33D-09 XBig12= 4.39D-07 1.10D-04.
     24 vectors produced by pass  4 Test12= 2.52D-15 3.33D-09 XBig12= 4.09D-10 2.95D-06.
     11 vectors produced by pass  5 Test12= 2.52D-15 3.33D-09 XBig12= 2.14D-13 8.04D-08.
 InvSVY:  IOpt=1 It=  1 EMax= 1.33D-15
 Solved reduced A of dimension   131 with    24 vectors.
 End of Minotr F.D. properties file   721 does not exist.
 End of Minotr F.D. properties file   722 does not exist.
 End of Minotr F.D. properties file   788 does not exist.
 Calling FoFJK, ICntrl=    100127 FMM=F ISym2X=0 I1Cent= 0 IOpClX= 0 NMat=1 NMatS=1 NMatT=0.
 -------------------------------------------------------------------
 Center     Atomic                   Forces (Hartrees/Bohr)
 Number     Number              X              Y              Z
 -------------------------------------------------------------------
      1        6           0.003038212   -0.001507529   -0.001473988
      2        6          -0.000998261    0.005724178    0.002214031
      3        6          -0.002928900   -0.001580838   -0.001677978
      4        1           0.000322715   -0.000882954    0.000299321
      5        1           0.000702734   -0.000399276   -0.002419066
      6        1           0.000355738    0.000990146    0.001566524
      7        1           0.000704444   -0.001233945    0.002088862
      8        1          -0.000263064    0.000957923   -0.000254449
      9        1          -0.000933617   -0.002067705   -0.000343257
 -------------------------------------------------------------------
 Cartesian Forces:  Max     0.005724178 RMS     0.001825456
 IRC-IRC-IRC-IRC-IRC-IRC-IRC-IRC-IRC-IRC-IRC-IRC-IRC-IRC-IRC-IRC-IRC-IRC
 Pt  6 Step number   1 out of a maximum of 100
 Modified Bulirsch-Stoer Extrapolation Cycles:
    EPS =    0.000010000000000
      PEZero:  N= 2 I= 1 D=  5.64D-04 Err=  7.42D-06
 Maximum DWI energy   std dev =  0.000000082 at pt    15
 Maximum DWI gradient std dev =  0.011658872 at pt    16
 CORRECTOR INTEGRATION CONVERGENCE:
   Recorrection delta-x convergence threshold:    0.010000
   Delta-x Convergence Met
 Point Number:   6          Path Number:   1
   CHANGE IN THE REACTION COORDINATE =    0.10835
   NET REACTION COORDINATE UP TO THIS POINT =    0.65005
  # OF POINTS ALONG THE PATH =   6
  # OF STEPS =   1

 Calculating another point on the path.
 IRC-IRC-IRC-IRC-IRC-IRC-IRC-IRC-IRC-IRC-IRC-IRC-IRC-IRC-IRC-IRC-IRC-IRC
                          Input orientation:                          
 ---------------------------------------------------------------------
 Center     Atomic      Atomic             Coordinates (Angstroms)
 Number     Number       Type             X           Y           Z
 ---------------------------------------------------------------------
      1          6           0       -1.217318   -0.401237    0.048954
      2          6           0        0.025165    0.361066    0.387246
      3          6           0        1.200846    0.016778   -0.386248
      4          1           0        0.202949    0.529817    1.457955
      5          1           0       -2.121757    0.173726   -0.151900
      6          1           0       -0.279194    1.352516   -0.019401
      7          1           0       -1.132489   -1.336299   -0.501598
      8          1           0        1.103614   -0.120125   -1.457851
      9          1           0        2.123373   -0.321100    0.078027
 ---------------------------------------------------------------------
                    Distance matrix (angstroms):
                    1          2          3          4          5
     1  C    0.000000
     2  C    1.496434   0.000000
     3  C    2.492319   1.448811   0.000000
     4  H    2.206651   1.098409   2.158724   0.000000
     5  H    1.090383   2.221497   3.334553   2.850034   0.000000
     6  H    1.990075   1.113987   2.027138   1.758373   2.191378
     7  H    1.088413   2.238584   2.699736   3.017555   1.838781
     8  H    2.781404   2.190657   1.084679   3.120184   3.492116
     9  H    3.341779   2.227879   1.086632   2.513223   4.280052
                    6          7          8          9
     6  H    0.000000
     7  H    2.861879   0.000000
     8  H    2.479913   2.719128   0.000000
     9  H    2.929644   3.459369   1.854513   0.000000
 Symmetry turned off by external request.
 Stoichiometry    C3H6
 Framework group  C1[X(C3H6)]
 Deg. of freedom    21
 Full point group                 C1      NOp   1
 Rotational constants (GHZ):          36.3129916           9.7620205           8.4986880
 Standard basis: 6-31G(d,p) (6D, 7F)
    75 basis functions,   126 primitive gaussians,    75 cartesian basis functions
    12 alpha electrons       12 beta electrons
       nuclear repulsion energy        70.0138663011 Hartrees.
 NAtoms=    9 NActive=    9 NUniq=    9 SFac= 1.00D+00 NAtFMM=   60 NAOKFM=F Big=F
 Integral buffers will be    131072 words long.
 Raffenetti 2 integral format.
 Two-electron integral symmetry is turned off.
 One-electron integrals computed using PRISM.
 NBasis=    75 RedAO= T EigKep=  5.47D-03  NBF=    75
 NBsUse=    75 1.00D-06 EigRej= -1.00D+00 NBFU=    75
 Initial guess from the checkpoint file:  "/scratch/brown/zhao922/pyGSM/new-benchmarking/R1-3/IRC-folder/Gau-36236.chk"
 B after Tr=     0.000347   -0.001126    0.000355
         Rot=    1.000000   -0.000333    0.000071    0.000161 Ang=  -0.04 deg.
 ExpMin= 1.61D-01 ExpMax= 3.05D+03 ExpMxC= 4.57D+02 IAcc=3 IRadAn=         5 AccDes= 0.00D+00
 Harris functional with IExCor=  402 and IRadAn=       5 diagonalized for initial guess.
 HarFok:  IExCor=  402 AccDes= 0.00D+00 IRadAn=         5 IDoV= 1 UseB2=F ITyADJ=14
 ICtDFT=  3500011 ScaDFX=  1.000000  1.000000  1.000000  1.000000
 FoFCou: FMM=F IPFlag=           0 FMFlag=      100000 FMFlg1=           0
         NFxFlg=           0 DoJE=T BraDBF=F KetDBF=T FulRan=T
         wScrn=  0.000000 ICntrl=       500 IOpCl=  0 I1Cent=   200000004 NGrid=           0
         NMat0=    1 NMatS0=      1 NMatT0=    0 NMatD0=    1 NMtDS0=    0 NMtDT0=    0
 Symmetry not used in FoFCou.
 Keep R1 ints in memory in canonical form, NReq=25608079.
 Requested convergence on RMS density matrix=1.00D-08 within 128 cycles.
 Requested convergence on MAX density matrix=1.00D-06.
 Requested convergence on             energy=1.00D-06.
 No special actions if energy rises.
 Integral accuracy reduced to 1.0D-05 until final iterations.
 Initial convergence to 1.0D-05 achieved.  Increase integral accuracy.
 SCF Done:  E(RB3LYP) =  -117.775604051     A.U. after   11 cycles
            NFock= 11  Conv=0.67D-08     -V/T= 2.0101
 DoSCS=F DFT=T ScalE2(SS,OS)=  1.000000  1.000000
 Range of M.O.s used for correlation:     1    75
 NBasis=    75 NAE=    12 NBE=    12 NFC=     0 NFV=     0
 NROrb=     75 NOA=    12 NOB=    12 NVA=    63 NVB=    63

 **** Warning!!: The smallest alpha delta epsilon is  0.81701073D-01

 Symmetrizing basis deriv contribution to polar:
 IMax=3 JMax=2 DiffMx= 0.00D+00
 G2DrvN: will do    10 centers at a time, making    1 passes.
 Calling FoFCou, ICntrl=  3107 FMM=F I1Cent=   0 AccDes= 0.00D+00.
 End of G2Drv F.D. properties file   721 does not exist.
 End of G2Drv F.D. properties file   722 does not exist.
 End of G2Drv F.D. properties file   788 does not exist.
          IDoAtm=111111111
          Differentiating once with respect to nuclear coordinates.
 Keep R1 ints in memory in canonical form, NReq=25532403.
          There are    30 degrees of freedom in the 1st order CPHF.  IDoFFX=6 NUNeed=     0.
     24 vectors produced by pass  0 Test12= 2.52D-15 3.33D-09 XBig12= 1.36D-01 2.06D-01.
 AX will form    24 AO Fock derivatives at one time.
     24 vectors produced by pass  1 Test12= 2.52D-15 3.33D-09 XBig12= 5.96D-02 6.46D-02.
     24 vectors produced by pass  2 Test12= 2.52D-15 3.33D-09 XBig12= 2.95D-04 5.02D-03.
     24 vectors produced by pass  3 Test12= 2.52D-15 3.33D-09 XBig12= 6.08D-07 1.35D-04.
     24 vectors produced by pass  4 Test12= 2.52D-15 3.33D-09 XBig12= 5.31D-10 3.43D-06.
     11 vectors produced by pass  5 Test12= 2.52D-15 3.33D-09 XBig12= 2.87D-13 9.10D-08.
 InvSVY:  IOpt=1 It=  1 EMax= 1.11D-15
 Solved reduced A of dimension   131 with    24 vectors.
 End of Minotr F.D. properties file   721 does not exist.
 End of Minotr F.D. properties file   722 does not exist.
 End of Minotr F.D. properties file   788 does not exist.
 Calling FoFJK, ICntrl=    100127 FMM=F ISym2X=0 I1Cent= 0 IOpClX= 0 NMat=1 NMatS=1 NMatT=0.
 -------------------------------------------------------------------
 Center     Atomic                   Forces (Hartrees/Bohr)
 Number     Number              X              Y              Z
 -------------------------------------------------------------------
      1        6           0.003747302   -0.001667825   -0.001816870
      2        6          -0.001104570    0.006644393    0.002749925
      3        6          -0.003617640   -0.001890036   -0.001970059
      4        1           0.000378647   -0.001011604    0.000347054
      5        1           0.000854109   -0.000490830   -0.002831378
      6        1           0.000355450    0.001102305    0.001778394
      7        1           0.000807663   -0.001407522    0.002450407
      8        1          -0.000300157    0.001126181   -0.000293662
      9        1          -0.001120804   -0.002405061   -0.000413811
 -------------------------------------------------------------------
 Cartesian Forces:  Max     0.006644393 RMS     0.002157403
 IRC-IRC-IRC-IRC-IRC-IRC-IRC-IRC-IRC-IRC-IRC-IRC-IRC-IRC-IRC-IRC-IRC-IRC
 Pt  7 Step number   1 out of a maximum of 100
 Modified Bulirsch-Stoer Extrapolation Cycles:
    EPS =    0.000010000000000
      PEZero:  N= 2 I= 1 D=  5.64D-04 Err=  6.97D-06
 Maximum DWI energy   std dev =  0.000000088 at pt    12
 Maximum DWI gradient std dev =  0.009764481 at pt    16
 CORRECTOR INTEGRATION CONVERGENCE:
   Recorrection delta-x convergence threshold:    0.010000
   Delta-x Convergence Met
 Point Number:   7          Path Number:   1
   CHANGE IN THE REACTION COORDINATE =    0.10835
   NET REACTION COORDINATE UP TO THIS POINT =    0.75840
  # OF POINTS ALONG THE PATH =   7
  # OF STEPS =   1

 Calculating another point on the path.
 IRC-IRC-IRC-IRC-IRC-IRC-IRC-IRC-IRC-IRC-IRC-IRC-IRC-IRC-IRC-IRC-IRC-IRC
                          Input orientation:                          
 ---------------------------------------------------------------------
 Center     Atomic      Atomic             Coordinates (Angstroms)
 Number     Number       Type             X           Y           Z
 ---------------------------------------------------------------------
      1          6           0       -1.214335   -0.402431    0.047604
      2          6           0        0.024345    0.366072    0.389364
      3          6           0        1.197966    0.015350   -0.387758
      4          1           0        0.206450    0.520839    1.461477
      5          1           0       -2.114830    0.169850   -0.177693
      6          1           0       -0.276271    1.362533   -0.003612
      7          1           0       -1.125080   -1.350072   -0.480006
      8          1           0        1.100861   -0.109908   -1.460747
      9          1           0        2.113895   -0.343099    0.074642
 ---------------------------------------------------------------------
                    Distance matrix (angstroms):
                    1          2          3          4          5
     1  C    0.000000
     2  C    1.497239   0.000000
     3  C    2.486620   1.450625   0.000000
     4  H    2.206830   1.098427   2.158308   0.000000
     5  H    1.090484   2.221739   3.323043   2.863287   0.000000
     6  H    1.999421   1.112535   2.033677   1.757258   2.198430
     7  H    1.088285   2.241012   2.696189   3.007099   1.838793
     8  H    2.778636   2.192796   1.084631   3.120450   3.473493
     9  H    3.328868   2.228945   1.086841   2.511583   4.267189
                    6          7          8          9
     6  H    0.000000
     7  H    2.881954   0.000000
     8  H    2.487532   2.730325   0.000000
     9  H    2.937379   3.436945   1.854193   0.000000
 Symmetry turned off by external request.
 Stoichiometry    C3H6
 Framework group  C1[X(C3H6)]
 Deg. of freedom    21
 Full point group                 C1      NOp   1
 Rotational constants (GHZ):          35.8918840           9.7989512           8.5243452
 Standard basis: 6-31G(d,p) (6D, 7F)
    75 basis functions,   126 primitive gaussians,    75 cartesian basis functions
    12 alpha electrons       12 beta electrons
       nuclear repulsion energy        70.0032709399 Hartrees.
 NAtoms=    9 NActive=    9 NUniq=    9 SFac= 1.00D+00 NAtFMM=   60 NAOKFM=F Big=F
 Integral buffers will be    131072 words long.
 Raffenetti 2 integral format.
 Two-electron integral symmetry is turned off.
 One-electron integrals computed using PRISM.
 NBasis=    75 RedAO= T EigKep=  5.55D-03  NBF=    75
 NBsUse=    75 1.00D-06 EigRej= -1.00D+00 NBFU=    75
 Initial guess from the checkpoint file:  "/scratch/brown/zhao922/pyGSM/new-benchmarking/R1-3/IRC-folder/Gau-36236.chk"
 B after Tr=     0.000327   -0.001125    0.000339
         Rot=    1.000000   -0.000309    0.000070    0.000153 Ang=  -0.04 deg.
 ExpMin= 1.61D-01 ExpMax= 3.05D+03 ExpMxC= 4.57D+02 IAcc=3 IRadAn=         5 AccDes= 0.00D+00
 Harris functional with IExCor=  402 and IRadAn=       5 diagonalized for initial guess.
 HarFok:  IExCor=  402 AccDes= 0.00D+00 IRadAn=         5 IDoV= 1 UseB2=F ITyADJ=14
 ICtDFT=  3500011 ScaDFX=  1.000000  1.000000  1.000000  1.000000
 FoFCou: FMM=F IPFlag=           0 FMFlag=      100000 FMFlg1=           0
         NFxFlg=           0 DoJE=T BraDBF=F KetDBF=T FulRan=T
         wScrn=  0.000000 ICntrl=       500 IOpCl=  0 I1Cent=   200000004 NGrid=           0
         NMat0=    1 NMatS0=      1 NMatT0=    0 NMatD0=    1 NMtDS0=    0 NMtDT0=    0
 Symmetry not used in FoFCou.
 Keep R1 ints in memory in canonical form, NReq=25608079.
 Requested convergence on RMS density matrix=1.00D-08 within 128 cycles.
 Requested convergence on MAX density matrix=1.00D-06.
 Requested convergence on             energy=1.00D-06.
 No special actions if energy rises.
 Integral accuracy reduced to 1.0D-05 until final iterations.
 Initial convergence to 1.0D-05 achieved.  Increase integral accuracy.
 SCF Done:  E(RB3LYP) =  -117.776334467     A.U. after   11 cycles
            NFock= 11  Conv=0.64D-08     -V/T= 2.0101
 DoSCS=F DFT=T ScalE2(SS,OS)=  1.000000  1.000000
 Range of M.O.s used for correlation:     1    75
 NBasis=    75 NAE=    12 NBE=    12 NFC=     0 NFV=     0
 NROrb=     75 NOA=    12 NOB=    12 NVA=    63 NVB=    63

 **** Warning!!: The smallest alpha delta epsilon is  0.82039077D-01

 Symmetrizing basis deriv contribution to polar:
 IMax=3 JMax=2 DiffMx= 0.00D+00
 G2DrvN: will do    10 centers at a time, making    1 passes.
 Calling FoFCou, ICntrl=  3107 FMM=F I1Cent=   0 AccDes= 0.00D+00.
 End of G2Drv F.D. properties file   721 does not exist.
 End of G2Drv F.D. properties file   722 does not exist.
 End of G2Drv F.D. properties file   788 does not exist.
          IDoAtm=111111111
          Differentiating once with respect to nuclear coordinates.
 Keep R1 ints in memory in canonical form, NReq=25532403.
          There are    30 degrees of freedom in the 1st order CPHF.  IDoFFX=6 NUNeed=     0.
     24 vectors produced by pass  0 Test12= 2.52D-15 3.33D-09 XBig12= 1.33D-01 2.06D-01.
 AX will form    24 AO Fock derivatives at one time.
     24 vectors produced by pass  1 Test12= 2.52D-15 3.33D-09 XBig12= 7.63D-02 8.21D-02.
     24 vectors produced by pass  2 Test12= 2.52D-15 3.33D-09 XBig12= 4.23D-04 6.87D-03.
     24 vectors produced by pass  3 Test12= 2.52D-15 3.33D-09 XBig12= 8.50D-07 1.62D-04.
     24 vectors produced by pass  4 Test12= 2.52D-15 3.33D-09 XBig12= 7.04D-10 4.57D-06.
     11 vectors produced by pass  5 Test12= 2.52D-15 3.33D-09 XBig12= 4.05D-13 1.04D-07.
 InvSVY:  IOpt=1 It=  1 EMax= 1.67D-15
 Solved reduced A of dimension   131 with    24 vectors.
[...]
  61                   -1.18793  -1.22475  -0.64270   1.12484  -0.19001
  62                   -1.17993  -1.24205  -0.62384   1.12175  -0.18013
  63                   -1.17184  -1.25894  -0.60448   1.11860  -0.17024
  64                   -1.16379  -1.27540  -0.58466   1.11549  -0.16031
  65                   -1.15579  -1.29137  -0.56440   1.11242  -0.15035
  66                   -1.14790  -1.30683  -0.54377   1.10942  -0.14034
  67                   -1.14014  -1.32175  -0.52278   1.10649  -0.13026
  68                   -1.13254  -1.33611  -0.50148   1.10365  -0.12012
  69                   -1.12513  -1.34989  -0.47990   1.10089  -0.10991
  70                   -1.11793  -1.36308  -0.45808   1.09823  -0.09961
  71                   -1.11096  -1.37567  -0.43604   1.09567  -0.08922
  72                   -1.10423  -1.38766  -0.41381   1.09322  -0.07873
  73                   -1.09777  -1.39903  -0.39144   1.09088  -0.06815
  74                   -1.09159  -1.40978  -0.36895   1.08866  -0.05747
  75                   -1.08571  -1.41992  -0.34637   1.08656  -0.04669
  76                   -1.08012  -1.42943  -0.32373   1.08458  -0.03581
  77                   -1.07484  -1.43833  -0.30106   1.08273  -0.02485
  78                   -1.06988  -1.44660  -0.27840   1.08100  -0.01380
  79                   -1.06525  -1.45427  -0.25577   1.07940  -0.00267
  80                   -1.06094  -1.46132  -0.23320   1.07793   0.00852
  81                   -1.05697  -1.46777  -0.21073   1.07659   0.01978
  82                   -1.05333  -1.47362  -0.18838   1.07538   0.03108
  83                   -1.05002  -1.47889  -0.16618   1.07429   0.04242
  84                   -1.04704  -1.48356  -0.14415   1.07332   0.05379
  85                   -1.04439  -1.48767  -0.12233   1.07247   0.06516
  86                   -1.04207  -1.49121  -0.10074   1.07174   0.07653
  87                   -1.04006  -1.49420  -0.07940   1.07111   0.08788
  88                   -1.03836  -1.49665  -0.05834   1.07059   0.09919
  89                   -1.03697  -1.49857  -0.03760   1.07017   0.11044
  90                   -1.03586  -1.49998  -0.01718   1.06985   0.12162
  91                   -1.03504  -1.50088   0.00288   1.06960   0.13271
  92                   -1.03448  -1.50130   0.02255   1.06943   0.14369
  93                   -1.03417  -1.50124   0.04182   1.06933   0.15454
  94                   -1.03410  -1.50073   0.06065   1.06929   0.16524
  95                   -1.03424  -1.49978   0.07902   1.06930   0.17577
  96                   -1.03458  -1.49841   0.09691   1.06934   0.18610
  97                   -1.03510  -1.49664   0.11430   1.06941   0.19621
  98                   -1.03577  -1.49449   0.13114   1.06949   0.20609
  99                   -1.03658  -1.49199   0.14744   1.06957   0.21571
 100                   -1.03749  -1.48915   0.16315   1.06964   0.22505
 101                   -1.03847  -1.48600   0.17827   1.06968   0.23408
 102                   -1.03951  -1.48257   0.19277   1.06968   0.24280
 103                   -1.04058  -1.47888   0.20663   1.06962   0.25117
 104                   -1.04164  -1.47495   0.21985   1.06949   0.25919
 105                   -1.04267  -1.47083   0.23242   1.06928   0.26684
 106                   -1.04365  -1.46652   0.24432   1.06896   0.27410
 107                   -1.04454  -1.46207   0.25556   1.06853   0.28097
 108                   -1.04532  -1.45749   0.26613   1.06798   0.28745
 109                   -1.04597  -1.45281   0.27604   1.06727   0.29351
 110                   -1.04647  -1.44806   0.28531   1.06641   0.29917
 111                   -1.04680  -1.44326   0.29394   1.06538   0.30442
 112                   -1.04693  -1.43843   0.30194   1.06416   0.30927
 113                   -1.04684  -1.43359   0.30933   1.06275   0.31372
 114                   -1.04654  -1.42876   0.31613   1.06112   0.31777
 115                   -1.04599  -1.42395   0.32235   1.05928   0.32144
 116                   -1.04519  -1.41919   0.32802   1.05720   0.32472
 117                   -1.04412  -1.41449   0.33316   1.05489   0.32763
 118                   -1.04278  -1.40986   0.33778   1.05231   0.33017
 119                   -1.04116  -1.40532   0.34190   1.04948   0.33234
 120                   -1.03924  -1.40088   0.34553   1.04636   0.33416
 121                   -1.03701  -1.39655   0.34870   1.04296   0.33563
                          Z8        X9        Y9        Z9
   1                   -1.20161   2.20651   0.35043   0.04899
   2                   -1.20834   2.20625   0.35228   0.04786
   3                   -1.21507   2.20601   0.35393   0.04688
   4                   -1.22181   2.20582   0.35535   0.04609
   5                   -1.22856   2.20567   0.35649   0.04548
   6                   -1.23532   2.20558   0.35735   0.04504
   7                   -1.24209   2.20553   0.35790   0.04478
   8                   -1.24886   2.20554   0.35814   0.04465
   9                   -1.25561   2.20561   0.35804   0.04463
  10                   -1.26234   2.20574   0.35761   0.04466
  11                   -1.26903   2.20591   0.35683   0.04468
  12                   -1.27567   2.20614   0.35572   0.04457
  13                   -1.28222   2.20640   0.35427   0.04416
  14                   -1.28865   2.20669   0.35251   0.04317
  15                   -1.29486   2.20696   0.35054   0.04113
  16                   -1.30062   2.20712   0.34869   0.03725
  17                   -1.30544   2.20695   0.34772   0.03044
  18                   -1.30860   2.20602   0.34828   0.02049
  19                   -1.31025   2.20433   0.34741   0.01173
  20                   -1.31199   2.20310   0.34108   0.00986
  21                   -1.31420   2.20261   0.33199   0.01210
  22                   -1.31666   2.20249   0.32205   0.01581
  23                   -1.31927   2.20256   0.31181   0.02008
  24                   -1.32198   2.20272   0.30145   0.02458
  25                   -1.32475   2.20293   0.29106   0.02914
  26                   -1.32756   2.20316   0.28067   0.03370
  27                   -1.33041   2.20339   0.27029   0.03820
  28                   -1.33328   2.20361   0.25994   0.04261
  29                   -1.33616   2.20383   0.24962   0.04691
  30                   -1.33906   2.20403   0.23935   0.05109
  31                   -1.34195   2.20421   0.22912   0.05513
  32                   -1.34484   2.20438   0.21894   0.05903
  33                   -1.34771   2.20453   0.20882   0.06276
  34                   -1.35057   2.20467   0.19876   0.06632
  35                   -1.35340   2.20479   0.18876   0.06970
  36                   -1.35619   2.20492   0.17883   0.07290
  37                   -1.35896   2.20504   0.16898   0.07589
  38                   -1.36169   2.20516   0.15921   0.07869
  39                   -1.36438   2.20529   0.14952   0.08128
  40                   -1.36704   2.20543   0.13990   0.08366
  41                   -1.36968   2.20558   0.13034   0.08585
  42                   -1.37232   2.20574   0.12079   0.08784
  43                   -1.37495   2.20591   0.11121   0.08965
  44                   -1.37761   2.20607   0.10153   0.09130
  45                   -1.38031   2.20622   0.09168   0.09279
  46                   -1.38307   2.20633   0.08155   0.09413
  47                   -1.38591   2.20639   0.07105   0.09535
  48                   -1.38885   2.20635   0.06007   0.09644
  49                   -1.39190   2.20619   0.04846   0.09741
  50                   -1.39507   2.20585   0.03612   0.09825
  51                   -1.39837   2.20529   0.02290   0.09897
  52                   -1.40180   2.20445   0.00868   0.09954
  53                   -1.40535   2.20326  -0.00664   0.09994
  54                   -1.40900   2.20166  -0.02313   0.10017
  55                   -1.41273   2.19959  -0.04079   0.10019
  56                   -1.41651   2.19700  -0.05956   0.09999
  57                   -1.42030   2.19386  -0.07931   0.09954
  58                   -1.42408   2.19016  -0.09989   0.09884
  59                   -1.42780   2.18588  -0.12112   0.09787
  60                   -1.43147   2.18105  -0.14282   0.09665
  61                   -1.43505   2.17563  -0.16490   0.09516
  62                   -1.43857   2.16971  -0.18710   0.09344
  63                   -1.44199   2.16324  -0.20947   0.09145
  64                   -1.44533   2.15625  -0.23188   0.08922
  65                   -1.44858   2.14875  -0.25429   0.08675
  66                   -1.45174   2.14074  -0.27664   0.08405
  67                   -1.45482   2.13223  -0.29891   0.08112
  68                   -1.45781   2.12324  -0.32105   0.07796
  69                   -1.46071   2.11377  -0.34305   0.07458
  70                   -1.46351   2.10383  -0.36488   0.07098
  71                   -1.46622   2.09344  -0.38652   0.06716
  72                   -1.46882   2.08259  -0.40795   0.06313
  73                   -1.47132   2.07131  -0.42916   0.05889
  74                   -1.47370   2.05961  -0.45011   0.05446
  75                   -1.47596   2.04750  -0.47081   0.04982
  76                   -1.47810   2.03499  -0.49122   0.04499
  77                   -1.48010   2.02211  -0.51132   0.03998
  78                   -1.48196   2.00887  -0.53111   0.03478
  79                   -1.48366   1.99529  -0.55055   0.02943
  80                   -1.48521   1.98139  -0.56963   0.02391
  81                   -1.48659   1.96720  -0.58833   0.01824
  82                   -1.48780   1.95275  -0.60664   0.01243
  83                   -1.48882   1.93805  -0.62453   0.00650
  84                   -1.48966   1.92315  -0.64198   0.00046
  85                   -1.49029   1.90806  -0.65898  -0.00568
  86                   -1.49073   1.89283  -0.67551  -0.01189
  87                   -1.49095   1.87749  -0.69155  -0.01817
  88                   -1.49096   1.86208  -0.70708  -0.02449
  89                   -1.49076   1.84663  -0.72209  -0.03083
  90                   -1.49033   1.83118  -0.73656  -0.03717
  91                   -1.48968   1.81578  -0.75048  -0.04348
  92                   -1.48880   1.80046  -0.76384  -0.04974
  93                   -1.48770   1.78526  -0.77661  -0.05593
  94                   -1.48637   1.77024  -0.78880  -0.06201
  95                   -1.48483   1.75543  -0.80039  -0.06797
  96                   -1.48306   1.74088  -0.81137  -0.07378
  97                   -1.48108   1.72663  -0.82174  -0.07940
  98                   -1.47889   1.71272  -0.83148  -0.08481
  99                   -1.47650   1.69919  -0.84060  -0.08999
 100                   -1.47392   1.68607  -0.84909  -0.09490
 101                   -1.47115   1.67341  -0.85695  -0.09954
 102                   -1.46822   1.66123  -0.86419  -0.10387
 103                   -1.46514   1.64955  -0.87080  -0.10788
 104                   -1.46191   1.63840  -0.87681  -0.11155
 105                   -1.45855   1.62778  -0.88221  -0.11488
 106                   -1.45508   1.61771  -0.88703  -0.11786
 107                   -1.45152   1.60818  -0.89128  -0.12049
 108                   -1.44787   1.59917  -0.89498  -0.12278
 109                   -1.44416   1.59069  -0.89816  -0.12473
 110                   -1.44041   1.58269  -0.90086  -0.12635
 111                   -1.43661   1.57516  -0.90309  -0.12766
 112                   -1.43280   1.56806  -0.90489  -0.12869
 113                   -1.42898   1.56135  -0.90629  -0.12945
 114                   -1.42517   1.55500  -0.90734  -0.12997
 115                   -1.42138   1.54895  -0.90807  -0.13027
 116                   -1.41763   1.54316  -0.90851  -0.13038
 117                   -1.41393   1.53759  -0.90871  -0.13033
 118                   -1.41028   1.53220  -0.90870  -0.13014
 119                   -1.40671   1.52695  -0.90852  -0.12984
 120                   -1.40322   1.52178  -0.90820  -0.12945
 121                   -1.39983   1.51667  -0.90780  -0.12900
 --------------------------------------------------------------------------
 
 Total number of points:                  120
 Total number of gradient calculations:   121
 Total number of Hessian calculations:    121
 IRC-IRC-IRC-IRC-IRC-IRC-IRC-IRC-IRC-IRC-IRC-IRC-IRC-IRC-IRC-IRC-IRC-IRC
                          Input orientation:                          
 ---------------------------------------------------------------------
 Center     Atomic      Atomic             Coordinates (Angstroms)
 Number     Number       Type             X           Y           Z
 ---------------------------------------------------------------------
      1          6           0       -1.255024   -0.203161   -0.045140
      2          6           0        0.116287    0.250118    0.365743
      3          6           0        1.243677   -0.017093   -0.292997
      4          1           0        0.167302    0.856661    1.270636
      5          1           0       -1.773584   -0.705916    0.780755
      6          1           0       -1.881709    0.651236   -0.333813
      7          1           0       -1.212817   -0.893071   -0.893615
      8          1           0        1.244791   -0.614964   -1.201642
      9          1           0        2.206509    0.350456    0.048984
 ---------------------------------------------------------------------
                    Distance matrix (angstroms):
                    1          2          3          4          5
     1  C    0.000000
     2  C    1.501592   0.000000
     3  C    2.517848   1.332797   0.000000
     4  H    2.208506   1.090564   2.089731   0.000000
     5  H    1.097165   2.158205   3.275864   2.539423   0.000000
     6  H    1.098207   2.154590   3.196305   2.610537   1.759492
     7  H    1.094380   2.158560   2.676274   3.106489   1.775670
     8  H    2.784987   2.116266   1.087698   3.072266   3.612306
     9  H    3.506788   2.116467   1.085858   2.430440   4.182410
                    6          7          8          9
     6  H    0.000000
     7  H    1.773606   0.000000
     8  H    3.483014   2.492400   0.000000
     9  H    4.117101   3.758543   1.849596   0.000000
 Symmetry turned off by external request.
 Stoichiometry    C3H6
 Framework group  C1[X(C3H6)]
 Deg. of freedom    21
 Full point group                 C1      NOp   1
 Rotational constants (GHZ):          46.8207036           9.2540081           8.1139622

 **********************************************************************

            Population analysis using the SCF Density.

 **********************************************************************

 Alpha  occ. eigenvalues --  -10.18734 -10.18085 -10.17296  -0.77985  -0.68042
 Alpha  occ. eigenvalues --   -0.54942  -0.46085  -0.41551  -0.40791  -0.36750
 Alpha  occ. eigenvalues --   -0.34120  -0.25016
 Alpha virt. eigenvalues --    0.02698   0.11372   0.13568   0.15047   0.17610
 Alpha virt. eigenvalues --    0.18075   0.19324   0.28637   0.37550   0.49334
 Alpha virt. eigenvalues --    0.52579   0.53418   0.60531   0.62867   0.65411
 Alpha virt. eigenvalues --    0.67742   0.71408   0.77379   0.83588   0.85832
 Alpha virt. eigenvalues --    0.87498   0.88811   0.92388   0.94318   1.11906
 Alpha virt. eigenvalues --    1.20866   1.30748   1.32150   1.40176   1.49031
 Alpha virt. eigenvalues --    1.61728   1.80791   1.81868   1.88145   1.95962
 Alpha virt. eigenvalues --    2.01650   2.04500   2.08076   2.10909   2.13204
 Alpha virt. eigenvalues --    2.15627   2.29341   2.36382   2.37227   2.46925
 Alpha virt. eigenvalues --    2.50165   2.57162   2.64978   2.66457   2.69330
 Alpha virt. eigenvalues --    2.83731   2.85920   2.87023   3.01697   3.17237
 Alpha virt. eigenvalues --    3.27051   3.42275   3.43335   3.46718   3.67500
 Alpha virt. eigenvalues --    4.17973   4.38843   4.59004
          Condensed to atoms (all electrons):
               1          2          3          4          5          6
     1  C    4.931239   0.390767  -0.045125  -0.057106   0.376830   0.377291
     2  C    0.390767   4.716221   0.692819   0.382032  -0.030637  -0.032525
     3  C   -0.045125   0.692819   4.880937  -0.043601   0.001204  -0.000897
     4  H   -0.057106   0.382032  -0.043601   0.636212  -0.002092  -0.000385
     5  H    0.376830  -0.030637   0.001204  -0.002092   0.606452  -0.036076
     6  H    0.377291  -0.032525  -0.000897  -0.000385  -0.036076   0.604097
     7  H    0.383512  -0.033798  -0.007465   0.004979  -0.029873  -0.029460
     8  H   -0.012963  -0.034955   0.380922   0.006361   0.000149   0.000228
     9  H    0.005604  -0.026025   0.376959  -0.009914  -0.000192  -0.000186
               7          8          9
     1  C    0.383512  -0.012963   0.005604
     2  C   -0.033798  -0.034955  -0.026025
     3  C   -0.007465   0.380922   0.376959
     4  H    0.004979   0.006361  -0.009914
     5  H   -0.029873   0.000149  -0.000192
     6  H   -0.029460   0.000228  -0.000186
     7  H    0.595051   0.006664   0.000006
     8  H    0.006664   0.610362  -0.046237
     9  H    0.000006  -0.046237   0.605797
 Mulliken charges:
               1
     1  C   -0.350050
     2  C   -0.023897
     3  C   -0.235754
     4  H    0.083515
     5  H    0.114234
     6  H    0.117912
     7  H    0.110384
     8  H    0.089468
     9  H    0.094187
 Sum of Mulliken charges =  -0.00000
 Mulliken charges with hydrogens summed into heavy atoms:
               1
     1  C   -0.007519
     2  C    0.059618
     3  C   -0.052099
 APT charges:
               1
     1  C   -1.036642
     2  C   -0.544872
     3  C   -0.619222
     4  H    0.346009
     5  H    0.392164
     6  H    0.382804
     7  H    0.309861
     8  H    0.322528
     9  H    0.447370
 Sum of APT charges =  -0.00000
 APT charges with hydrogens summed into heavy atoms:
               1
     1  C    0.048187
     2  C   -0.198863
     3  C    0.150676
 Electronic spatial extent (au):  <R**2>=            196.9958
 Charge=             -0.0000 electrons
 Dipole moment (field-independent basis, Debye):
    X=             -0.3568    Y=              0.0308    Z=              0.0806  Tot=              0.3671
 Quadrupole moment (field-independent basis, Debye-Ang):
   XX=            -18.9175   YY=            -20.4864   ZZ=            -19.4782
   XY=              0.1698   XZ=             -0.2379   YZ=              1.1410
 Traceless Quadrupole moment (field-independent basis, Debye-Ang):
   XX=              0.7099   YY=             -0.8591   ZZ=              0.1492
   XY=              0.1698   XZ=             -0.2379   YZ=              1.1410
 Octapole moment (field-independent basis, Debye-Ang**2):
  XXX=              3.0234  YYY=              0.3436  ZZZ=              0.6225  XYY=             -0.6653
  XXY=              1.0928  XXZ=              0.3057  XZZ=              0.1275  YZZ=             -0.2663
  YYZ=              0.2295  XYZ=              1.1817
 Hexadecapole moment (field-independent basis, Debye-Ang**3):
 XXXX=           -178.7341 YYYY=            -38.3873 ZZZZ=            -46.7654 XXXY=             -5.7918
 XXXZ=              6.0910 YYYX=             -7.4166 YYYZ=             -5.0448 ZZZX=              5.2394
 ZZZY=             -3.8694 XXYY=            -36.8369 XXZZ=            -38.4487 YYZZ=            -13.1232
 XXYZ=             -1.7273 YYXZ=              2.2606 ZZXY=             -2.1079
 N-N= 7.061605837761D+01 E-N=-4.134147020949D+02  KE= 1.166981699131D+02
  Exact polarizability:   0.000   0.000   0.000   0.000   0.000   0.000
 Approx polarizability:  59.494  -2.539  31.160 -10.872   8.224  41.010

 This type of calculation cannot be archived.


 A warm smile is the universal language of kindness.
                             -- William Arthur Ward
 Job cpu time:       0 days  3 hours 47 minutes 17.7 seconds.
 Elapsed time:       0 days  0 hours 10 minutes 39.7 seconds.
 File lengths (MBytes):  RWF=     10 Int=      0 D2E=      0 Chk=      3 Scr=      1
 Normal termination of Gaussian 16 at Fri Jul 17 18:02:21 2020.
