 Entering Gaussian System, Link 0=g16
 Initial command:
 /apps/cent7/gaussian/g16-B.01/g16-haswell/g16/l1.exe "/scratch/brown/zhao922/pyGSM/new-benchmarking/R1-3/IRC-folder/Gau-1062.inp" -scrdir="/scratch/brown/zhao922/pyGSM/new-benchmarking/R1-3/IRC-folder/"
 Entering Link 1 = /apps/cent7/gaussian/g16-B.01/g16-haswell/g16/l1.exe PID=      1063.
  
 Copyright (c) 1988-2017, Gaussian, Inc.  All Rights Reserved.
  
 This is part of the Gaussian(R) 16 program.  It is based on
 the Gaussian(R) 09 system (copyright 2009, Gaussian, Inc.),
 the Gaussian(R) 03 system (copyright 2003, Gaussian, Inc.),
 the Gaussian(R) 98 system (copyright 1998, Gaussian, Inc.),
 the Gaussian(R) 94 system (copyright 1995, Gaussian, Inc.),
 the Gaussian 92(TM) system (copyright 1992, Gaussian, Inc.),
 the Gaussian 90(TM) system (copyright 1990, Gaussian, Inc.),
 the Gaussian 88(TM) system (copyright 1988, Gaussian, Inc.),
 the Gaussian 86(TM) system (copyright 1986, Carnegie Mellon
 University), and the Gaussian 82(TM) system (copyright 1983,
 Carnegie Mellon University). Gaussian is a federally registered
 trademark of Gaussian, Inc.
  
 This software contains proprietary and confidential information,
 including trade secrets, belonging to Gaussian, Inc.
  
 This software is provided under written license and may be
 used, copied, transmitted, or stored only in accord with that
 written license.
  
 The following legend is applicable only to US Government
 contracts under FAR:
  
                    RESTRICTED RIGHTS LEGEND
  
 Use, reproduction and disclosure by the US Government is
 subject to restrictions as set forth in subparagraphs (a)
 and (c) of the Commercial Computer Software - Restricted
 Rights clause in FAR 52.227-19.
  
 Gaussian, Inc.
 340 Quinnipiac St., Bldg. 40, Wallingford CT 06492
  
  
 ---------------------------------------------------------------
 Warning -- This program may not be used in any manner that
 competes with the business of Gaussian, Inc. or will provide
 assistance to any competitor of Gaussian, Inc.  The licensee
 of this program is prohibited from giving any competitor of
 Gaussian, Inc. access to this program.  By using this program,
 the user acknowledges that Gaussian, Inc. is engaged in the
 business of creating and licensing software in the field of
 computational chemistry and represents and warrants to the
 licensee that it is not a competitor of Gaussian, Inc. and that
 it will not use this program in any manner prohibited above.
 ---------------------------------------------------------------
  

 Cite this work as:
 Gaussian 16, Revision B.01,
 M. J. Frisch, G. W. Trucks, H. B. Schlegel, G. E. Scuseria, 
 M. A. Robb, J. R. Cheeseman, G. Scalmani, V. Barone, 
 G. A. Petersson, H. Nakatsuji, X. Li, M. Caricato, A. V. Marenich, 
 J. Bloino, B. G. Janesko, R. Gomperts, B. Mennucci, H. P. Hratchian, 
 J. V. Ortiz, A. F. Izmaylov, J. L. Sonnenberg, D. Williams-Young, 
 F. Ding, F. Lipparini, F. Egidi, J. Goings, B. Peng, A. Petrone, 
 T. Henderson, D. Ranasinghe, V. G. Zakrzewski, J. Gao, N. Rega, 
 G. Zheng, W. Liang, M. Hada, M. Ehara, K. Toyota, R. Fukuda, 
 J. Hasegawa, M. Ishida, T. Nakajima, Y. Honda, O. Kitao, H. Nakai, 
 T. Vreven, K. Throssell, J. A. Montgomery, Jr., J. E. Peralta, 
 F. Ogliaro, M. J. Bearpark, J. J. Heyd, E. N. Brothers, K. N. Kudin, 
 V. N. Staroverov, T. A. Keith, R. Kobayashi, J. Normand, 
 K. Raghavachari, A. P. Rendell, J. C. Burant, S. S. Iyengar, 
 J. Tomasi, M. Cossi, J. M. Millam, M. Klene, C. Adamo, R. Cammi, 
 J. W. Ochterski, R. L. Martin, K. Morokuma, O. Farkas, 
 J. B. Foresman, and D. J. Fox, Gaussian, Inc., Wallingford CT, 2016.
 
 ******************************************
 Gaussian 16:  ES64L-G16RevB.01 20-Dec-2017
                17-Jul-2020 
 ******************************************
 %NProcShared=24
 Will use up to   24 processors via shared memory.
 %Mem=60GB
 ----------------------------------------------------------------------
 # B3LYP/6-31G** IRC=(CALCALL, maxpoints=60, StepSize=10, maxcyc=100, R
 eport=Cartesians)
 ----------------------------------------------------------------------
 1/6=100,10=4,18=10,26=3,38=1,39=10,42=60,44=3,71=1,129=10,172=1/1,23;
 2/12=2,17=6,18=5,29=1,40=1/2;
 3/5=1,6=6,7=101,11=2,25=1,30=1,71=2,74=-5,140=1/1,2,3;
 4//1;
 5/5=2,38=5/2;
 8/6=4,10=90,11=11/1;
 11/6=1,8=1,9=11,15=111,16=1/1,2,10;
 10/6=1,13=1/2;
 6/7=2,8=2,9=2,10=2,18=1,28=1/1;
 7/10=1,25=1/1,2,3,16;
 1/6=100,10=4,18=10,26=3,39=10,42=60,44=3,71=1,129=10/23(2);
 2/29=1/2;
 99/5=20/99;
 2/29=1/2;
 3/5=1,6=6,7=101,11=2,25=1,30=1,71=2,74=-5,140=1/1,2,3;
 4/5=5,16=3,69=1/1;
 5/5=2,38=5/2;
 8/6=4,10=90,11=11/1;
 11/6=1,8=1,9=11,15=111,16=1/1,2,10;
 10/6=1,13=1/2;
 7/10=1,25=1/1,2,3,16;
 1/6=100,10=4,18=10,26=3,39=10,42=60,44=3,71=1,129=10/23(-8);
 2/29=1/2;
 6/7=2,8=2,9=2,10=2,18=1,19=2,28=1/1;
 99/5=20/99;
 ----------
 pp_2_0 IRC
 ----------
 Symbolic Z-matrix:
 Charge =  0 Multiplicity = 1
 C                    -2.38701  -0.08158   0.84144 
 C                    -1.38611   0.139     1.7531 
 C                    -0.07766  -0.13965   1.21326 
 H                    -1.48845   0.99421   2.42062 
 H                    -2.26464  -0.64759   2.86435 
 H                    -3.34063   0.44636   0.87168 
 H                    -2.24528  -0.81862   0.05602 
 H                     0.74136   0.52627   1.45736 
 H                     0.16842  -1.12441   0.83289 
 
 IRC-IRC-IRC-IRC-IRC-IRC-IRC-IRC-IRC-IRC-IRC-IRC-IRC-IRC-IRC-IRC-IRC-IRC
 ------------------------------------------------------------------------
 INPUT DATA FOR L123
 ------------------------------------------------------------------------
 GENERAL PARAMETERS:
 Follow reaction path in both directions.
 Maximum points per path      =  60
 Step size                    =   0.100 bohr
 Integration scheme           = HPC                                 
    Redo corrector integration= Yes                                 
    DWI Weight Power          =  2
    DWI will use Hessian update vectors when possible.
    Max correction cycles     = 100
 Initial Hessian              = CalcFC
 Hessian evaluation           = Analytic at all predictor steps
                              = Update at all corrector steps
 Hessian updating method      = Bofill                              
 ------------------------------------------------------------------------
 IRC-IRC-IRC-IRC-IRC-IRC-IRC-IRC-IRC-IRC-IRC-IRC-IRC-IRC-IRC-IRC-IRC-IRC
                          Input orientation:                          
 ---------------------------------------------------------------------
 Center     Atomic      Atomic             Coordinates (Angstroms)
 Number     Number       Type             X           Y           Z
 ---------------------------------------------------------------------
      1          6           0       -2.387007   -0.081577    0.841442
      2          6           0       -1.386109    0.138999    1.753095
      3          6           0       -0.077660   -0.139650    1.213263
      4          1           0       -1.488447    0.994205    2.420623
      5          1           0       -2.264642   -0.647588    2.864351
      6          1           0       -3.340628    0.446362    0.871676
      7          1           0       -2.245285   -0.818621    0.056023
      8          1           0        0.741359    0.526266    1.457359
      9          1           0        0.168415   -1.124414    0.832885
 ---------------------------------------------------------------------
                    Distance matrix (angstroms):
                    1          2          3          4          5
     1  C    0.000000
     2  C    1.371700   0.000000
     3  C    2.339809   1.442603   0.000000
     4  H    2.111523   1.089699   2.175699   0.000000
     5  H    2.104163   1.620318   2.786931   1.869454   0.000000
     6  H    1.090425   2.165991   3.332724   2.475872   2.515000
     7  H    1.086371   2.129618   2.549275   3.074162   2.813598
     8  H    3.245844   2.182557   1.083429   2.473637   3.520455
     9  H    2.760030   2.204437   1.083974   3.123244   3.205306
                    6          7          8          9
     6  H    0.000000
     7  H    1.861518   0.000000
     8  H    4.124564   3.562654   0.000000
     9  H    3.844766   2.554011   1.855526   0.000000
 Symmetry turned off by external request.
 Stoichiometry    C3H6
 Framework group  C1[X(C3H6)]
 Deg. of freedom    21
 Full point group                 C1      NOp   1
 Rotational constants (GHZ):          34.6507290          10.4808961           8.9082543
 Standard basis: 6-31G(d,p) (6D, 7F)
    75 basis functions,   126 primitive gaussians,    75 cartesian basis functions
    12 alpha electrons       12 beta electrons
       nuclear repulsion energy        70.5499709077 Hartrees.
 NAtoms=    9 NActive=    9 NUniq=    9 SFac= 1.00D+00 NAtFMM=   60 NAOKFM=F Big=F
 Integral buffers will be    131072 words long.
 Raffenetti 2 integral format.
 Two-electron integral symmetry is turned off.
 One-electron integrals computed using PRISM.
 NBasis=    75 RedAO= T EigKep=  5.81D-03  NBF=    75
 NBsUse=    75 1.00D-06 EigRej= -1.00D+00 NBFU=    75
 ExpMin= 1.61D-01 ExpMax= 3.05D+03 ExpMxC= 4.57D+02 IAcc=3 IRadAn=         5 AccDes= 0.00D+00
 Harris functional with IExCor=  402 and IRadAn=       5 diagonalized for initial guess.
 HarFok:  IExCor=  402 AccDes= 0.00D+00 IRadAn=         5 IDoV= 1 UseB2=F ITyADJ=14
 ICtDFT=  3500011 ScaDFX=  1.000000  1.000000  1.000000  1.000000
 FoFCou: FMM=F IPFlag=           0 FMFlag=      100000 FMFlg1=           0
         NFxFlg=           0 DoJE=T BraDBF=F KetDBF=T FulRan=T
         wScrn=  0.000000 ICntrl=       500 IOpCl=  0 I1Cent=   200000004 NGrid=           0
         NMat0=    1 NMatS0=      1 NMatT0=    0 NMatD0=    1 NMtDS0=    0 NMtDT0=    0
 Symmetry not used in FoFCou.
 Keep R1 ints in memory in canonical form, NReq=25608061.
 Requested convergence on RMS density matrix=1.00D-08 within 128 cycles.
 Requested convergence on MAX density matrix=1.00D-06.
 Requested convergence on             energy=1.00D-06.
 No special actions if energy rises.
 Integral accuracy reduced to 1.0D-05 until final iterations.
 EnCoef did     7 forward-backward iterations
 EnCoef did     1 forward-backward iterations
 EnCoef did     2 forward-backward iterations
 EnCoef did     3 forward-backward iterations
 Rare condition: small coef for last iteration:  0.000D+00
 Initial convergence to 1.0D-05 achieved.  Increase integral accuracy.
 SCF Done:  E(RB3LYP) =  -117.707974812     A.U. after   19 cycles
            NFock= 19  Conv=0.76D-08     -V/T= 2.0099
 DoSCS=F DFT=T ScalE2(SS,OS)=  1.000000  1.000000
 Range of M.O.s used for correlation:     1    75
 NBasis=    75 NAE=    12 NBE=    12 NFC=     0 NFV=     0
 NROrb=     75 NOA=    12 NOB=    12 NVA=    63 NVB=    63

 **** Warning!!: The smallest alpha delta epsilon is  0.38830489D-01

 Symmetrizing basis deriv contribution to polar:
 IMax=3 JMax=2 DiffMx= 0.00D+00
 G2DrvN: will do    10 centers at a time, making    1 passes.
 Calling FoFCou, ICntrl=  3107 FMM=F I1Cent=   0 AccDes= 0.00D+00.
 End of G2Drv F.D. properties file   721 does not exist.
 End of G2Drv F.D. properties file   722 does not exist.
 End of G2Drv F.D. properties file   788 does not exist.
          IDoAtm=111111111
          Differentiating once with respect to nuclear coordinates.
 Keep R1 ints in memory in canonical form, NReq=25532406.
          There are    30 degrees of freedom in the 1st order CPHF.  IDoFFX=6 NUNeed=     0.
     24 vectors produced by pass  0 Test12= 2.52D-15 3.33D-09 XBig12= 2.17D-01 3.69D-01.
 AX will form    24 AO Fock derivatives at one time.
     24 vectors produced by pass  1 Test12= 2.52D-15 3.33D-09 XBig12= 1.65D-01 2.48D-01.
     24 vectors produced by pass  2 Test12= 2.52D-15 3.33D-09 XBig12= 1.32D-03 7.12D-03.
     24 vectors produced by pass  3 Test12= 2.52D-15 3.33D-09 XBig12= 2.12D-06 3.02D-04.
     24 vectors produced by pass  4 Test12= 2.52D-15 3.33D-09 XBig12= 2.14D-09 6.63D-06.
     10 vectors produced by pass  5 Test12= 2.52D-15 3.33D-09 XBig12= 1.49D-12 2.73D-07.
      1 vectors produced by pass  6 Test12= 2.52D-15 3.33D-09 XBig12= 1.11D-15 5.87D-09.
 InvSVY:  IOpt=1 It=  1 EMax= 1.78D-15
 Solved reduced A of dimension   131 with    24 vectors.
 End of Minotr F.D. properties file   721 does not exist.
 End of Minotr F.D. properties file   722 does not exist.
 End of Minotr F.D. properties file   788 does not exist.

 **********************************************************************

            Population analysis using the SCF Density.

 **********************************************************************

 Alpha  occ. eigenvalues --  -10.26898 -10.23081 -10.15862  -0.82193  -0.67202
 Alpha  occ. eigenvalues --   -0.57864  -0.50227  -0.44449  -0.39443  -0.38125
 Alpha  occ. eigenvalues --   -0.33882  -0.14578
 Alpha virt. eigenvalues --   -0.10695   0.04148   0.09304   0.11381   0.15641
 Alpha virt. eigenvalues --    0.17224   0.21920   0.28152   0.31379   0.47573
 Alpha virt. eigenvalues --    0.51295   0.56559   0.58096   0.60401   0.62841
 Alpha virt. eigenvalues --    0.66072   0.73913   0.77785   0.78529   0.80564
 Alpha virt. eigenvalues --    0.86056   0.89654   0.92025   0.95402   1.00374
 Alpha virt. eigenvalues --    1.02657   1.22465   1.38160   1.40251   1.51122
 Alpha virt. eigenvalues --    1.55521   1.76298   1.83097   1.86683   1.93272
 Alpha virt. eigenvalues --    1.94376   1.97882   2.05249   2.09312   2.12364
 Alpha virt. eigenvalues --    2.17553   2.25660   2.29581   2.33623   2.41058
 Alpha virt. eigenvalues --    2.41994   2.49137   2.52669   2.54450   2.62066
 Alpha virt. eigenvalues --    2.71281   2.73221   2.80219   2.86408   2.99653
 Alpha virt. eigenvalues --    3.19674   3.32539   3.38412   3.47268   3.64460
 Alpha virt. eigenvalues --    4.17531   4.29744   4.53699
          Condensed to atoms (all electrons):
               1          2          3          4          5          6
     1  C    4.949941   0.545981  -0.034779  -0.042716  -0.080337   0.346502
     2  C    0.545981   4.729335   0.429666   0.391837   0.046473  -0.035053
     3  C   -0.034779   0.429666   5.254383  -0.039289  -0.023380   0.008558
     4  H   -0.042716   0.391837  -0.039289   0.568075  -0.022465  -0.007464
     5  H   -0.080337   0.046473  -0.023380  -0.022465   1.278275   0.017851
     6  H    0.346502  -0.035053   0.008558  -0.007464   0.017851   0.562233
     7  H    0.372346  -0.035234  -0.003690   0.004946   0.002491  -0.037025
     8  H    0.003446  -0.026983   0.381486  -0.005044  -0.000675  -0.000323
     9  H   -0.005596  -0.036409   0.389056   0.004243  -0.002128  -0.000068
               7          8          9
     1  C    0.372346   0.003446  -0.005596
     2  C   -0.035234  -0.026983  -0.036409
     3  C   -0.003690   0.381486   0.389056
     4  H    0.004946  -0.005044   0.004243
     5  H    0.002491  -0.000675  -0.002128
     6  H   -0.037025  -0.000323  -0.000068
     7  H    0.533146   0.000068   0.004561
     8  H    0.000068   0.587546  -0.035977
     9  H    0.004561  -0.035977   0.587312
 Mulliken charges:
               1
     1  C   -0.054789
     2  C   -0.009612
     3  C   -0.362011
     4  H    0.147877
     5  H   -0.216105
     6  H    0.144788
     7  H    0.158390
     8  H    0.096456
     9  H    0.095007
 Sum of Mulliken charges =  -0.00000
 Mulliken charges with hydrogens summed into heavy atoms:
               1
     1  C    0.248389
     2  C   -0.077840
     3  C   -0.170549
 APT charges:
               1
     1  C   -0.338121
     2  C   -0.535839
     3  C   -0.794489
     4  H    0.565319
     5  H   -0.284999
     6  H    0.648215
     7  H    0.201549
     8  H    0.304568
     9  H    0.233796
 Sum of APT charges =  -0.00000
 APT charges with hydrogens summed into heavy atoms:
               1
     1  C    0.511644
     2  C   -0.255519
     3  C   -0.256125
 Electronic spatial extent (au):  <R**2>=            487.1216
 Charge=             -0.0000 electrons
 Dipole moment (field-independent basis, Debye):
    X=             -1.4406    Y=              0.8792    Z=             -1.7068  Tot=              2.4004
 Quadrupole moment (field-independent basis, Debye-Ang):
   XX=            -15.7830   YY=            -20.1345   ZZ=            -27.8592
   XY=             -2.0614   XZ=              3.6217   YZ=              4.3369
 Traceless Quadrupole moment (field-independent basis, Debye-Ang):
   XX=              5.4759   YY=              1.1244   ZZ=             -6.6003
   XY=             -2.0614   XZ=              3.6217   YZ=              4.3369
 Octapole moment (field-independent basis, Debye-Ang**2):
  XXX=             66.1590  YYY=              4.6050  ZZZ=           -108.8713  XYY=             26.9692
  XXY=              7.6306  XXZ=            -36.4933  XZZ=             43.6122  YZZ=             13.4745
  YYZ=            -28.6752  XYZ=             -7.7181
 Hexadecapole moment (field-independent basis, Debye-Ang**3):
 XXXX=           -325.2809 YYYY=            -39.9944 ZZZZ=           -379.0570 XXXY=            -21.9685
 XXXZ=            127.8180 YYYX=             -6.4797 YYYZ=              7.0856 ZZZX=            166.4966
 ZZZY=             36.6429 XXYY=            -69.0442 XXZZ=           -155.4672 YYZZ=            -59.2574
 XXYZ=             19.8528 YYXZ=             39.2033 ZZXY=            -23.0732
 N-N= 7.054997090766D+01 E-N=-4.125005952020D+02  KE= 1.165546639583D+02
  Exact polarizability:   0.000   0.000   0.000   0.000   0.000   0.000
 Approx polarizability: 270.816  38.120  41.489-108.332 -18.379 117.553
 Calling FoFJK, ICntrl=    100127 FMM=F ISym2X=0 I1Cent= 0 IOpClX= 0 NMat=1 NMatS=1 NMatT=0.
 -------------------------------------------------------------------
 Center     Atomic                   Forces (Hartrees/Bohr)
 Number     Number              X              Y              Z
 -------------------------------------------------------------------
      1        6          -0.000000769   -0.000001944   -0.000000155
      2        6          -0.000000087    0.000001085    0.000000244
      3        6          -0.000000532   -0.000000177    0.000000232
      4        1          -0.000000276   -0.000000094   -0.000000725
      5        1           0.000000144    0.000000386    0.000000702
      6        1          -0.000000086    0.000000427   -0.000000302
      7        1           0.000000965    0.000000596   -0.000000628
      8        1          -0.000000078   -0.000000325    0.000000245
      9        1           0.000000720    0.000000046    0.000000388
 -------------------------------------------------------------------
 Cartesian Forces:  Max     0.000001944 RMS     0.000000611
 IRC-IRC-IRC-IRC-IRC-IRC-IRC-IRC-IRC-IRC-IRC-IRC-IRC-IRC-IRC-IRC-IRC-IRC
          ******** Start new reaction path calculation ********
 Supplied step size of   0.1000 bohr.
    Integration on MW PES will use step size of   0.1263 sqrt(amu)*bohr.
 Point Number:   0          Path Number:   1
 Calculating another point on the path.
 IRC-IRC-IRC-IRC-IRC-IRC-IRC-IRC-IRC-IRC-IRC-IRC-IRC-IRC-IRC-IRC-IRC-IRC
                          Input orientation:                          
 ---------------------------------------------------------------------
 Center     Atomic      Atomic             Coordinates (Angstroms)
 Number     Number       Type             X           Y           Z
 ---------------------------------------------------------------------
      1          6           0       -1.087473   -0.045254   -0.444452
      2          6           0       -0.079138    0.181395    0.454392
      3          6           0        1.223064   -0.100865   -0.075490
      4          1           0       -0.189631    1.025385    1.136801
      5          1           0       -1.008921   -0.622536    1.576891
      6          1           0       -2.042319    0.479920   -0.411688
      7          1           0       -0.943717   -0.777777   -1.235295
      8          1           0        2.045139    0.558293    0.177701
      9          1           0        1.467282   -1.083305   -0.463916
 ---------------------------------------------------------------------
                    Distance matrix (angstroms):
                    1          2          3          4          5
     1  C    0.000000
     2  C    1.369682   0.000000
     3  C    2.340472   1.433938   0.000000
     4  H    2.110154   1.090967   2.175729   0.000000
     5  H    2.103628   1.664574   2.825643   1.892237   0.000000
     6  H    1.090235   2.166400   3.333627   2.475440   2.497552
     7  H    1.087514   2.126628   2.549176   3.073577   2.817222
     8  H    3.250323   2.175124   1.083699   2.476337   3.560810
     9  H    2.757663   2.198675   1.084299   3.123176   3.241725
                    6          7          8          9
     6  H    0.000000
     7  H    1.862003   0.000000
     8  H    4.130476   3.565796   0.000000
     9  H    3.842356   2.549763   1.854841   0.000000
 Symmetry turned off by external request.
 Stoichiometry    C3H6
 Framework group  C1[X(C3H6)]
 Deg. of freedom    21
 Full point group                 C1      NOp   1
 Rotational constants (GHZ):          34.8696916          10.4594528           8.9061067
 Standard basis: 6-31G(d,p) (6D, 7F)
    75 basis functions,   126 primitive gaussians,    75 cartesian basis functions
    12 alpha electrons       12 beta electrons
       nuclear repulsion energy        70.5782482174 Hartrees.
 NAtoms=    9 NActive=    9 NUniq=    9 SFac= 1.00D+00 NAtFMM=   60 NAOKFM=F Big=F
 Integral buffers will be    131072 words long.
 Raffenetti 2 integral format.
 Two-electron integral symmetry is turned off.
 One-electron integrals computed using PRISM.
 NBasis=    75 RedAO= T EigKep=  5.74D-03  NBF=    75
 NBsUse=    75 1.00D-06 EigRej= -1.00D+00 NBFU=    75
 Initial guess from the checkpoint file:  "/scratch/brown/zhao922/pyGSM/new-benchmarking/R1-3/IRC-folder/Gau-1063.chk"
 B after Tr=     2.459049    0.076727   -2.435368
         Rot=    0.999999   -0.001122    0.000478    0.000074 Ang=  -0.14 deg.
 ExpMin= 1.61D-01 ExpMax= 3.05D+03 ExpMxC= 4.57D+02 IAcc=3 IRadAn=         5 AccDes= 0.00D+00
 Harris functional with IExCor=  402 and IRadAn=       5 diagonalized for initial guess.
 HarFok:  IExCor=  402 AccDes= 0.00D+00 IRadAn=         5 IDoV= 1 UseB2=F ITyADJ=14
 ICtDFT=  3500011 ScaDFX=  1.000000  1.000000  1.000000  1.000000
 FoFCou: FMM=F IPFlag=           0 FMFlag=      100000 FMFlg1=           0
         NFxFlg=           0 DoJE=T BraDBF=F KetDBF=T FulRan=T
         wScrn=  0.000000 ICntrl=       500 IOpCl=  0 I1Cent=   200000004 NGrid=           0
         NMat0=    1 NMatS0=      1 NMatT0=    0 NMatD0=    1 NMtDS0=    0 NMtDT0=    0
 Symmetry not used in FoFCou.
 Keep R1 ints in memory in canonical form, NReq=25608061.
 Requested convergence on RMS density matrix=1.00D-08 within 128 cycles.
 Requested convergence on MAX density matrix=1.00D-06.
 Requested convergence on             energy=1.00D-06.
 No special actions if energy rises.
 Integral accuracy reduced to 1.0D-05 until final iterations.
 Initial convergence to 1.0D-05 achieved.  Increase integral accuracy.
 SCF Done:  E(RB3LYP) =  -117.709061480     A.U. after   17 cycles
            NFock= 17  Conv=0.61D-08     -V/T= 2.0099
 DoSCS=F DFT=T ScalE2(SS,OS)=  1.000000  1.000000
 Range of M.O.s used for correlation:     1    75
 NBasis=    75 NAE=    12 NBE=    12 NFC=     0 NFV=     0
 NROrb=     75 NOA=    12 NOB=    12 NVA=    63 NVB=    63

 **** Warning!!: The smallest alpha delta epsilon is  0.41007318D-01

 Symmetrizing basis deriv contribution to polar:
 IMax=3 JMax=2 DiffMx= 0.00D+00
 G2DrvN: will do    10 centers at a time, making    1 passes.
 Calling FoFCou, ICntrl=  3107 FMM=F I1Cent=   0 AccDes= 0.00D+00.
 End of G2Drv F.D. properties file   721 does not exist.
 End of G2Drv F.D. properties file   722 does not exist.
 End of G2Drv F.D. properties file   788 does not exist.
          IDoAtm=111111111
          Differentiating once with respect to nuclear coordinates.
 Keep R1 ints in memory in canonical form, NReq=25532406.
          There are    30 degrees of freedom in the 1st order CPHF.  IDoFFX=6 NUNeed=     0.
     24 vectors produced by pass  0 Test12= 2.52D-15 3.33D-09 XBig12= 3.45D-01 5.25D-01.
 AX will form    24 AO Fock derivatives at one time.
     24 vectors produced by pass  1 Test12= 2.52D-15 3.33D-09 XBig12= 3.26D-01 3.52D-01.
     24 vectors produced by pass  2 Test12= 2.52D-15 3.33D-09 XBig12= 2.50D-03 9.69D-03.
     24 vectors produced by pass  3 Test12= 2.52D-15 3.33D-09 XBig12= 4.62D-06 4.62D-04.
     24 vectors produced by pass  4 Test12= 2.52D-15 3.33D-09 XBig12= 4.77D-09 1.26D-05.
      9 vectors produced by pass  5 Test12= 2.52D-15 3.33D-09 XBig12= 3.00D-12 3.61D-07.
      1 vectors produced by pass  6 Test12= 2.52D-15 3.33D-09 XBig12= 2.57D-15 8.02D-09.
 InvSVY:  IOpt=1 It=  1 EMax= 1.33D-15
 Solved reduced A of dimension   130 with    24 vectors.
 End of Minotr F.D. properties file   721 does not exist.
 End of Minotr F.D. properties file   722 does not exist.
 End of Minotr F.D. properties file   788 does not exist.
 Calling FoFJK, ICntrl=    100127 FMM=F ISym2X=0 I1Cent= 0 IOpClX= 0 NMat=1 NMatS=1 NMatT=0.
 -------------------------------------------------------------------
 Center     Atomic                   Forces (Hartrees/Bohr)
 Number     Number              X              Y              Z
 -------------------------------------------------------------------
      1        6          -0.007126913   -0.007556140    0.013215077
      2        6           0.020900139    0.012227413   -0.022660307
      3        6          -0.001903004    0.001534923    0.006538021
      4        1          -0.000361980   -0.001557933    0.001294977
      5        1          -0.011178794   -0.003081964   -0.000814674
      6        1          -0.000445501   -0.001180281    0.001701670
      7        1          -0.000046629    0.000603629   -0.000086562
      8        1           0.000807325   -0.001823630    0.002877487
      9        1          -0.000644644    0.000833983   -0.002065689
 -------------------------------------------------------------------
 Cartesian Forces:  Max     0.022660307 RMS     0.007680963
 IRC-IRC-IRC-IRC-IRC-IRC-IRC-IRC-IRC-IRC-IRC-IRC-IRC-IRC-IRC-IRC-IRC-IRC
 Pt  1 Step number   1 out of a maximum of 100
 Modified Bulirsch-Stoer Extrapolation Cycles:
    EPS =    0.000010000000000
      PEZero:  N= 2 I= 1 D=  3.29D-04 Err=  6.52D-04
      PEZero:  N= 3 I= 2 D=  3.29D-04 Err=  4.35D-04
      PEZero:  N= 3 I= 1 D=  6.58D-04 Err=  4.07D-07
 Maximum DWI energy   std dev =  0.000009581 at pt     1
 Maximum DWI gradient std dev =  0.030116555 at pt    26
 CORRECTOR INTEGRATION CONVERGENCE:
   Recorrection delta-x convergence threshold:    0.010000
   Delta-x Convergence Met
 Point Number:   1          Path Number:   1
   CHANGE IN THE REACTION COORDINATE =    0.12613
   NET REACTION COORDINATE UP TO THIS POINT =    0.12613
  # OF POINTS ALONG THE PATH =   1
  # OF STEPS =   1

 Calculating another point on the path.
 IRC-IRC-IRC-IRC-IRC-IRC-IRC-IRC-IRC-IRC-IRC-IRC-IRC-IRC-IRC-IRC-IRC-IRC
                          Input orientation:                          
 ---------------------------------------------------------------------
 Center     Atomic      Atomic             Coordinates (Angstroms)
 Number     Number       Type             X           Y           Z
 ---------------------------------------------------------------------
      1          6           0       -1.090068   -0.047947   -0.440000
      2          6           0       -0.071928    0.185482    0.447037
      3          6           0        1.222398   -0.100316   -0.073157
      4          1           0       -0.190632    1.020161    1.141351
      5          1           0       -1.052664   -0.634351    1.570233
      6          1           0       -2.044461    0.475822   -0.405186
      7          1           0       -0.944313   -0.775948   -1.235642
      8          1           0        2.048556    0.550577    0.189549
      9          1           0        1.464320   -1.079417   -0.473027
 ---------------------------------------------------------------------
                    Distance matrix (angstroms):
                    1          2          3          4          5
     1  C    0.000000
     2  C    1.370378   0.000000
     3  C    2.341968   1.423925   0.000000
     4  H    2.109623   1.092177   2.174201   0.000000
     5  H    2.094351   1.701628   2.856892   1.914275   0.000000
     6  H    1.089225   2.168287   3.333848   2.474826   2.473545
     7  H    1.088244   2.125280   2.549997   3.073132   2.811535
     8  H    3.256612   2.167036   1.084072   2.477983   3.595540
     9  H    2.754981   2.192383   1.084925   3.123029   3.272340
                    6          7          8          9
     6  H    0.000000
     7  H    1.861964   0.000000
     8  H    4.136675   3.570448   0.000000
     9  H    3.838608   2.544639   1.853974   0.000000
 Symmetry turned off by external request.
 Stoichiometry    C3H6
 Framework group  C1[X(C3H6)]
 Deg. of freedom    21
 Full point group                 C1      NOp   1
 Rotational constants (GHZ):          35.1575805          10.4354930           8.9022015
 Standard basis: 6-31G(d,p) (6D, 7F)
    75 basis functions,   126 primitive gaussians,    75 cartesian basis functions
    12 alpha electrons       12 beta electrons
       nuclear repulsion energy        70.6130362573 Hartrees.
 NAtoms=    9 NActive=    9 NUniq=    9 SFac= 1.00D+00 NAtFMM=   60 NAOKFM=F Big=F
 Integral buffers will be    131072 words long.
 Raffenetti 2 integral format.
 Two-electron integral symmetry is turned off.
 One-electron integrals computed using PRISM.
 NBasis=    75 RedAO= T EigKep=  5.67D-03  NBF=    75
 NBsUse=    75 1.00D-06 EigRej= -1.00D+00 NBFU=    75
 Initial guess from the checkpoint file:  "/scratch/brown/zhao922/pyGSM/new-benchmarking/R1-3/IRC-folder/Gau-1063.chk"
 B after Tr=    -0.001802   -0.000839    0.000330
         Rot=    0.999999   -0.001168    0.000503    0.000124 Ang=  -0.15 deg.
 ExpMin= 1.61D-01 ExpMax= 3.05D+03 ExpMxC= 4.57D+02 IAcc=3 IRadAn=         5 AccDes= 0.00D+00
 Harris functional with IExCor=  402 and IRadAn=       5 diagonalized for initial guess.
 HarFok:  IExCor=  402 AccDes= 0.00D+00 IRadAn=         5 IDoV= 1 UseB2=F ITyADJ=14
 ICtDFT=  3500011 ScaDFX=  1.000000  1.000000  1.000000  1.000000
 FoFCou: FMM=F IPFlag=           0 FMFlag=      100000 FMFlg1=           0
         NFxFlg=           0 DoJE=T BraDBF=F KetDBF=T FulRan=T
         wScrn=  0.000000 ICntrl=       500 IOpCl=  0 I1Cent=   200000004 NGrid=           0
         NMat0=    1 NMatS0=      1 NMatT0=    0 NMatD0=    1 NMtDS0=    0 NMtDT0=    0
 Symmetry not used in FoFCou.
 Keep R1 ints in memory in canonical form, NReq=25608061.
 Requested convergence on RMS density matrix=1.00D-08 within 128 cycles.
 Requested convergence on MAX density matrix=1.00D-06.
 Requested convergence on             energy=1.00D-06.
 No special actions if energy rises.
 Integral accuracy reduced to 1.0D-05 until final iterations.
 Initial convergence to 1.0D-05 achieved.  Increase integral accuracy.
 SCF Done:  E(RB3LYP) =  -117.712012887     A.U. after   16 cycles
            NFock= 16  Conv=0.57D-08     -V/T= 2.0099
 DoSCS=F DFT=T ScalE2(SS,OS)=  1.000000  1.000000
 Range of M.O.s used for correlation:     1    75
 NBasis=    75 NAE=    12 NBE=    12 NFC=     0 NFV=     0
 NROrb=     75 NOA=    12 NOB=    12 NVA=    63 NVB=    63

 **** Warning!!: The smallest alpha delta epsilon is  0.46093999D-01

 Symmetrizing basis deriv contribution to polar:
 IMax=3 JMax=2 DiffMx= 0.00D+00
 G2DrvN: will do    10 centers at a time, making    1 passes.
 Calling FoFCou, ICntrl=  3107 FMM=F I1Cent=   0 AccDes= 0.00D+00.
 End of G2Drv F.D. properties file   721 does not exist.
 End of G2Drv F.D. properties file   722 does not exist.
 End of G2Drv F.D. properties file   788 does not exist.
          IDoAtm=111111111
          Differentiating once with respect to nuclear coordinates.
 Keep R1 ints in memory in canonical form, NReq=25532406.
          There are    30 degrees of freedom in the 1st order CPHF.  IDoFFX=6 NUNeed=     0.
     24 vectors produced by pass  0 Test12= 2.52D-15 3.33D-09 XBig12= 4.20D-01 5.91D-01.
 AX will form    24 AO Fock derivatives at one time.
     24 vectors produced by pass  1 Test12= 2.52D-15 3.33D-09 XBig12= 3.95D-01 3.76D-01.
     24 vectors produced by pass  2 Test12= 2.52D-15 3.33D-09 XBig12= 2.87D-03 1.08D-02.
     24 vectors produced by pass  3 Test12= 2.52D-15 3.33D-09 XBig12= 6.30D-06 4.98D-04.
     24 vectors produced by pass  4 Test12= 2.52D-15 3.33D-09 XBig12= 6.05D-09 1.59D-05.
      9 vectors produced by pass  5 Test12= 2.52D-15 3.33D-09 XBig12= 3.40D-12 3.36D-07.
      1 vectors produced by pass  6 Test12= 2.52D-15 3.33D-09 XBig12= 3.09D-15 9.44D-09.
 InvSVY:  IOpt=1 It=  1 EMax= 1.33D-15
 Solved reduced A of dimension   130 with    24 vectors.
 End of Minotr F.D. properties file   721 does not exist.
 End of Minotr F.D. properties file   722 does not exist.
 End of Minotr F.D. properties file   788 does not exist.
 Calling FoFJK, ICntrl=    100127 FMM=F ISym2X=0 I1Cent= 0 IOpClX= 0 NMat=1 NMatS=1 NMatT=0.
 -------------------------------------------------------------------
 Center     Atomic                   Forces (Hartrees/Bohr)
 Number     Number              X              Y              Z
 -------------------------------------------------------------------
      1        6          -0.014554856   -0.014803255    0.022857916
      2        6           0.037400679    0.021671286   -0.036607664
      3        6          -0.002843465    0.002810062    0.012421024
      4        1          -0.000188979   -0.002219943    0.001669585
      5        1          -0.018689528   -0.004919655   -0.004103055
      6        1          -0.000815261   -0.001679986    0.002803058
      7        1          -0.000453170    0.000775839   -0.000001786
      8        1           0.001523098   -0.003505467    0.005175643
      9        1          -0.001378519    0.001871119   -0.004214720
 -------------------------------------------------------------------
 Cartesian Forces:  Max     0.037400679 RMS     0.013343197
 IRC-IRC-IRC-IRC-IRC-IRC-IRC-IRC-IRC-IRC-IRC-IRC-IRC-IRC-IRC-IRC-IRC-IRC
 Pt  2 Step number   1 out of a maximum of 100
 Modified Bulirsch-Stoer Extrapolation Cycles:
    EPS =    0.000010000000000
      PEZero:  N= 2 I= 1 D=  6.57D-04 Err=  9.41D-05
      PEZero:  N= 3 I= 2 D=  6.57D-04 Err=  6.27D-05
      PEZero:  N= 3 I= 1 D=  1.31D-03 Err=  4.01D-08
 Maximum DWI energy   std dev =  0.000017587 at pt    27
 Maximum DWI gradient std dev =  0.012979415 at pt    67
 CORRECTOR INTEGRATION CONVERGENCE:
   Recorrection delta-x convergence threshold:    0.010000
   Delta-x Convergence Met
 Point Number:   2          Path Number:   1
   CHANGE IN THE REACTION COORDINATE =    0.12612
   NET REACTION COORDINATE UP TO THIS POINT =    0.25224
  # OF POINTS ALONG THE PATH =   2
  # OF STEPS =   1

 Calculating another point on the path.
 IRC-IRC-IRC-IRC-IRC-IRC-IRC-IRC-IRC-IRC-IRC-IRC-IRC-IRC-IRC-IRC-IRC-IRC
                          Input orientation:                          
 ---------------------------------------------------------------------
 Center     Atomic      Atomic             Coordinates (Angstroms)
 Number     Number       Type             X           Y           Z
 ---------------------------------------------------------------------
      1          6           0       -1.093112   -0.050969   -0.435593
      2          6           0       -0.064592    0.189694    0.440262
      3          6           0        1.221884   -0.099755   -0.070654
      4          1           0       -0.190570    1.015838    1.144638
      5          1           0       -1.094694   -0.645113    1.557341
      6          1           0       -2.046310    0.472402   -0.398954
      7          1           0       -0.945795   -0.774580   -1.235494
      8          1           0        2.052287    0.542198    0.201641
      9          1           0        1.460909   -1.074760   -0.483498
 ---------------------------------------------------------------------
                    Distance matrix (angstroms):
                    1          2          3          4          5
     1  C    0.000000
     2  C    1.372185   0.000000
     3  C    2.344092   1.414156   0.000000
     4  H    2.109452   1.092946   2.171752   0.000000
     5  H    2.079614   1.733747   2.883456   1.935593   0.000000
     6  H    1.088046   2.170579   3.334102   2.474221   2.445711
     7  H    1.088650   2.124735   2.551680   3.072620   2.799797
     8  H    3.263655   2.159254   1.084351   2.478706   3.626447
     9  H    2.751993   2.186168   1.085453   3.122308   3.298595
                    6          7          8          9
     6  H    0.000000
     7  H    1.861692   0.000000
     8  H    4.142955   3.575997   0.000000
     9  H    3.834246   2.539257   1.853023   0.000000
 Symmetry turned off by external request.
 Stoichiometry    C3H6
 Framework group  C1[X(C3H6)]
 Deg. of freedom    21
 Full point group                 C1      NOp   1
 Rotational constants (GHZ):          35.4882892          10.4088912           8.8960683
 Standard basis: 6-31G(d,p) (6D, 7F)
    75 basis functions,   126 primitive gaussians,    75 cartesian basis functions
    12 alpha electrons       12 beta electrons
       nuclear repulsion energy        70.6498715230 Hartrees.
 NAtoms=    9 NActive=    9 NUniq=    9 SFac= 1.00D+00 NAtFMM=   60 NAOKFM=F Big=F
 Integral buffers will be    131072 words long.
 Raffenetti 2 integral format.
 Two-electron integral symmetry is turned off.
 One-electron integrals computed using PRISM.
 NBasis=    75 RedAO= T EigKep=  5.59D-03  NBF=    75
 NBsUse=    75 1.00D-06 EigRej= -1.00D+00 NBFU=    75
 Initial guess from the checkpoint file:  "/scratch/brown/zhao922/pyGSM/new-benchmarking/R1-3/IRC-folder/Gau-1063.chk"
 B after Tr=    -0.001721   -0.000750    0.000007
         Rot=    0.999999   -0.001194    0.000503    0.000153 Ang=  -0.15 deg.
 ExpMin= 1.61D-01 ExpMax= 3.05D+03 ExpMxC= 4.57D+02 IAcc=3 IRadAn=         5 AccDes= 0.00D+00
 Harris functional with IExCor=  402 and IRadAn=       5 diagonalized for initial guess.
 HarFok:  IExCor=  402 AccDes= 0.00D+00 IRadAn=         5 IDoV= 1 UseB2=F ITyADJ=14
 ICtDFT=  3500011 ScaDFX=  1.000000  1.000000  1.000000  1.000000
 FoFCou: FMM=F IPFlag=           0 FMFlag=      100000 FMFlg1=           0
         NFxFlg=           0 DoJE=T BraDBF=F KetDBF=T FulRan=T
         wScrn=  0.000000 ICntrl=       500 IOpCl=  0 I1Cent=   200000004 NGrid=           0
         NMat0=    1 NMatS0=      1 NMatT0=    0 NMatD0=    1 NMtDS0=    0 NMtDT0=    0
 Symmetry not used in FoFCou.
 Keep R1 ints in memory in canonical form, NReq=25608061.
 Requested convergence on RMS density matrix=1.00D-08 within 128 cycles.
 Requested convergence on MAX density matrix=1.00D-06.
 Requested convergence on             energy=1.00D-06.
 No special actions if energy rises.
 Integral accuracy reduced to 1.0D-05 until final iterations.
 Initial convergence to 1.0D-05 achieved.  Increase integral accuracy.
 SCF Done:  E(RB3LYP) =  -117.716165509     A.U. after   15 cycles
            NFock= 15  Conv=0.26D-08     -V/T= 2.0099
 DoSCS=F DFT=T ScalE2(SS,OS)=  1.000000  1.000000
 Range of M.O.s used for correlation:     1    75
 NBasis=    75 NAE=    12 NBE=    12 NFC=     0 NFV=     0
 NROrb=     75 NOA=    12 NOB=    12 NVA=    63 NVB=    63

 **** Warning!!: The smallest alpha delta epsilon is  0.52958322D-01

 Symmetrizing basis deriv contribution to polar:
 IMax=3 JMax=2 DiffMx= 0.00D+00
 G2DrvN: will do    10 centers at a time, making    1 passes.
 Calling FoFCou, ICntrl=  3107 FMM=F I1Cent=   0 AccDes= 0.00D+00.
 End of G2Drv F.D. properties file   721 does not exist.
 End of G2Drv F.D. properties file   722 does not exist.
 End of G2Drv F.D. properties file   788 does not exist.
          IDoAtm=111111111
          Differentiating once with respect to nuclear coordinates.
 Keep R1 ints in memory in canonical form, NReq=25532406.
          There are    30 degrees of freedom in the 1st order CPHF.  IDoFFX=6 NUNeed=     0.
     24 vectors produced by pass  0 Test12= 2.52D-15 3.33D-09 XBig12= 4.09D-01 5.80D-01.
 AX will form    24 AO Fock derivatives at one time.
     24 vectors produced by pass  1 Test12= 2.52D-15 3.33D-09 XBig12= 3.59D-01 3.42D-01.
     24 vectors produced by pass  2 Test12= 2.52D-15 3.33D-09 XBig12= 2.48D-03 1.07D-02.
     24 vectors produced by pass  3 Test12= 2.52D-15 3.33D-09 XBig12= 5.77D-06 4.43D-04.
     24 vectors produced by pass  4 Test12= 2.52D-15 3.33D-09 XBig12= 5.17D-09 1.48D-05.
      9 vectors produced by pass  5 Test12= 2.52D-15 3.33D-09 XBig12= 2.94D-12 2.76D-07.
      1 vectors produced by pass  6 Test12= 2.52D-15 3.33D-09 XBig12= 2.70D-15 9.60D-09.
 InvSVY:  IOpt=1 It=  1 EMax= 1.33D-15
 Solved reduced A of dimension   130 with    24 vectors.
 End of Minotr F.D. properties file   721 does not exist.
 End of Minotr F.D. properties file   722 does not exist.
 End of Minotr F.D. properties file   788 does not exist.
 Calling FoFJK, ICntrl=    100127 FMM=F ISym2X=0 I1Cent= 0 IOpClX= 0 NMat=1 NMatS=1 NMatT=0.
 -------------------------------------------------------------------
 Center     Atomic                   Forces (Hartrees/Bohr)
 Number     Number              X              Y              Z
 -------------------------------------------------------------------
      1        6          -0.020534196   -0.020522983    0.028908717
      2        6           0.047145841    0.027875172   -0.042612436
      3        6          -0.002499679    0.003524206    0.016499142
      4        1           0.000310576   -0.002240007    0.001494074
      5        1          -0.022535914   -0.005652464   -0.008488456
      6        1          -0.000945777   -0.001644026    0.003322940
      7        1          -0.001030392    0.000617776    0.000232317
      8        1           0.002057869   -0.004727230    0.006621025
      9        1          -0.001968328    0.002769556   -0.005977322
 -------------------------------------------------------------------
 Cartesian Forces:  Max     0.047145841 RMS     0.016708916
 IRC-IRC-IRC-IRC-IRC-IRC-IRC-IRC-IRC-IRC-IRC-IRC-IRC-IRC-IRC-IRC-IRC-IRC
 Pt  3 Step number   1 out of a maximum of 100
 Modified Bulirsch-Stoer Extrapolation Cycles:
    EPS =    0.000010000000000
      PEZero:  N= 2 I= 1 D=  6.57D-04 Err=  9.02D-05
      PEZero:  N= 3 I= 2 D=  6.57D-04 Err=  6.02D-05
      PEZero:  N= 3 I= 1 D=  1.31D-03 Err=  2.10D-08
 Maximum DWI energy   std dev =  0.000013763 at pt    34
 Maximum DWI gradient std dev =  0.005064196 at pt    69
 CORRECTOR INTEGRATION CONVERGENCE:
   Recorrection delta-x convergence threshold:    0.010000
   Delta-x Convergence Met
 Point Number:   3          Path Number:   1
   CHANGE IN THE REACTION COORDINATE =    0.12612
   NET REACTION COORDINATE UP TO THIS POINT =    0.37837
  # OF POINTS ALONG THE PATH =   3
  # OF STEPS =   1

 Calculating another point on the path.
 IRC-IRC-IRC-IRC-IRC-IRC-IRC-IRC-IRC-IRC-IRC-IRC-IRC-IRC-IRC-IRC-IRC-IRC
                          Input orientation:                          
 ---------------------------------------------------------------------
 Center     Atomic      Atomic             Coordinates (Angstroms)
 Number     Number       Type             X           Y           Z
 ---------------------------------------------------------------------
      1          6           0       -1.096406   -0.054245   -0.431129
      2          6           0       -0.057402    0.194007    0.433981
      3          6           0        1.221591   -0.099220   -0.068078
      4          1           0       -0.189541    1.012309    1.146934
      5          1           0       -1.134921   -0.654972    1.538817
      6          1           0       -2.047899    0.469836   -0.393105
      7          1           0       -0.948079   -0.773820   -1.234830
      8          1           0        2.056201    0.533364    0.213798
      9          1           0        1.457159   -1.069437   -0.494978
 ---------------------------------------------------------------------
                    Distance matrix (angstroms):
                    1          2          3          4          5
     1  C    0.000000
     2  C    1.374618   0.000000
     3  C    2.346687   1.404943   0.000000
     4  H    2.109556   1.093335   2.168650   0.000000
     5  H    2.059865   1.761384   2.905876   1.956308   0.000000
     6  H    1.086944   2.173070   3.334521   2.473760   2.414755
     7  H    1.088909   2.124835   2.554185   3.072204   2.782472
     8  H    3.271108   2.151967   1.084524   2.478607   3.653913
     9  H    2.748706   2.180172   1.085845   3.121084   3.320690
                    6          7          8          9
     6  H    0.000000
     7  H    1.861394   0.000000
     8  H    4.149218   3.582311   0.000000
     9  H    3.829514   2.533760   1.852077   0.000000
 Symmetry turned off by external request.
 Stoichiometry    C3H6
 Framework group  C1[X(C3H6)]
 Deg. of freedom    21
 Full point group                 C1      NOp   1
 Rotational constants (GHZ):          35.8582360          10.3804208           8.8882154
 Standard basis: 6-31G(d,p) (6D, 7F)
    75 basis functions,   126 primitive gaussians,    75 cartesian basis functions
    12 alpha electrons       12 beta electrons
       nuclear repulsion energy        70.6882264216 Hartrees.
 NAtoms=    9 NActive=    9 NUniq=    9 SFac= 1.00D+00 NAtFMM=   60 NAOKFM=F Big=F
 Integral buffers will be    131072 words long.
 Raffenetti 2 integral format.
 Two-electron integral symmetry is turned off.
 One-electron integrals computed using PRISM.
 NBasis=    75 RedAO= T EigKep=  5.50D-03  NBF=    75
 NBsUse=    75 1.00D-06 EigRej= -1.00D+00 NBFU=    75
 Initial guess from the checkpoint file:  "/scratch/brown/zhao922/pyGSM/new-benchmarking/R1-3/IRC-folder/Gau-1063.chk"
 B after Tr=    -0.001639   -0.000667   -0.000279
         Rot=    0.999999   -0.001214    0.000502    0.000177 Ang=  -0.15 deg.
 ExpMin= 1.61D-01 ExpMax= 3.05D+03 ExpMxC= 4.57D+02 IAcc=3 IRadAn=         5 AccDes= 0.00D+00
 Harris functional with IExCor=  402 and IRadAn=       5 diagonalized for initial guess.
 HarFok:  IExCor=  402 AccDes= 0.00D+00 IRadAn=         5 IDoV= 1 UseB2=F ITyADJ=14
 ICtDFT=  3500011 ScaDFX=  1.000000  1.000000  1.000000  1.000000
 FoFCou: FMM=F IPFlag=           0 FMFlag=      100000 FMFlg1=           0
         NFxFlg=           0 DoJE=T BraDBF=F KetDBF=T FulRan=T
         wScrn=  0.000000 ICntrl=       500 IOpCl=  0 I1Cent=   200000004 NGrid=           0
         NMat0=    1 NMatS0=      1 NMatT0=    0 NMatD0=    1 NMtDS0=    0 NMtDT0=    0
 Symmetry not used in FoFCou.
 Keep R1 ints in memory in canonical form, NReq=25608061.
 Requested convergence on RMS density matrix=1.00D-08 within 128 cycles.
 Requested convergence on MAX density matrix=1.00D-06.
 Requested convergence on             energy=1.00D-06.
 No special actions if energy rises.
 Integral accuracy reduced to 1.0D-05 until final iterations.
 Initial convergence to 1.0D-05 achieved.  Increase integral accuracy.
 SCF Done:  E(RB3LYP) =  -117.721061115     A.U. after   15 cycles
            NFock= 15  Conv=0.14D-08     -V/T= 2.0099
 DoSCS=F DFT=T ScalE2(SS,OS)=  1.000000  1.000000
 Range of M.O.s used for correlation:     1    75
 NBasis=    75 NAE=    12 NBE=    12 NFC=     0 NFV=     0
 NROrb=     75 NOA=    12 NOB=    12 NVA=    63 NVB=    63

 **** Warning!!: The smallest alpha delta epsilon is  0.60554864D-01

 Symmetrizing basis deriv contribution to polar:
 IMax=3 JMax=2 DiffMx= 0.00D+00
 G2DrvN: will do    10 centers at a time, making    1 passes.
 Calling FoFCou, ICntrl=  3107 FMM=F I1Cent=   0 AccDes= 0.00D+00.
 End of G2Drv F.D. properties file   721 does not exist.
 End of G2Drv F.D. properties file   722 does not exist.
 End of G2Drv F.D. properties file   788 does not exist.
          IDoAtm=111111111
          Differentiating once with respect to nuclear coordinates.
 Keep R1 ints in memory in canonical form, NReq=25532406.
          There are    30 degrees of freedom in the 1st order CPHF.  IDoFFX=6 NUNeed=     0.
     24 vectors produced by pass  0 Test12= 2.52D-15 3.33D-09 XBig12= 3.67D-01 5.42D-01.
 AX will form    24 AO Fock derivatives at one time.
     24 vectors produced by pass  1 Test12= 2.52D-15 3.33D-09 XBig12= 2.90D-01 2.94D-01.
     24 vectors produced by pass  2 Test12= 2.52D-15 3.33D-09 XBig12= 1.93D-03 1.07D-02.
     24 vectors produced by pass  3 Test12= 2.52D-15 3.33D-09 XBig12= 4.32D-06 3.52D-04.
     24 vectors produced by pass  4 Test12= 2.52D-15 3.33D-09 XBig12= 3.69D-09 1.20D-05.
      9 vectors produced by pass  5 Test12= 2.52D-15 3.33D-09 XBig12= 2.14D-12 2.38D-07.
      1 vectors produced by pass  6 Test12= 2.52D-15 3.33D-09 XBig12= 1.79D-15 8.29D-09.
 InvSVY:  IOpt=1 It=  1 EMax= 1.33D-15
 Solved reduced A of dimension   130 with    24 vectors.
 End of Minotr F.D. properties file   721 does not exist.
 End of Minotr F.D. properties file   722 does not exist.
 End of Minotr F.D. properties file   788 does not exist.
 Calling FoFJK, ICntrl=    100127 FMM=F ISym2X=0 I1Cent= 0 IOpClX= 0 NMat=1 NMatS=1 NMatT=0.
 -------------------------------------------------------------------
 Center     Atomic                   Forces (Hartrees/Bohr)
 Number     Number              X              Y              Z
 -------------------------------------------------------------------
      1        6          -0.024873430   -0.024954927    0.033268059
      2        6           0.052033102    0.032101068   -0.044576361
      3        6          -0.001249352    0.003769547    0.019056397
      4        1           0.000913481   -0.001976652    0.001140687
      5        1          -0.024313422   -0.005838812   -0.013110813
      6        1          -0.000901071   -0.001295237    0.003466620
      7        1          -0.001642806    0.000274300    0.000583330
      8        1           0.002437591   -0.005588129    0.007504009
      9        1          -0.002404092    0.003508841   -0.007331929
 -------------------------------------------------------------------
 Cartesian Forces:  Max     0.052033102 RMS     0.018696613
 IRC-IRC-IRC-IRC-IRC-IRC-IRC-IRC-IRC-IRC-IRC-IRC-IRC-IRC-IRC-IRC-IRC-IRC
 Pt  4 Step number   1 out of a maximum of 100
 Modified Bulirsch-Stoer Extrapolation Cycles:
    EPS =    0.000010000000000
      PEZero:  N= 2 I= 1 D=  6.57D-04 Err=  8.37D-05
      PEZero:  N= 3 I= 2 D=  6.57D-04 Err=  5.58D-05
      PEZero:  N= 3 I= 1 D=  1.31D-03 Err=  1.73D-08
 Maximum DWI energy   std dev =  0.000008115 at pt    34
 Maximum DWI gradient std dev =  0.002578673 at pt    70
 CORRECTOR INTEGRATION CONVERGENCE:
   Recorrection delta-x convergence threshold:    0.010000
   Delta-x Convergence Met
 Point Number:   4          Path Number:   1
   CHANGE IN THE REACTION COORDINATE =    0.12613
   NET REACTION COORDINATE UP TO THIS POINT =    0.50450
  # OF POINTS ALONG THE PATH =   4
  # OF STEPS =   1

 Calculating another point on the path.
 IRC-IRC-IRC-IRC-IRC-IRC-IRC-IRC-IRC-IRC-IRC-IRC-IRC-IRC-IRC-IRC-IRC-IRC
                          Input orientation:                          
 ---------------------------------------------------------------------
 Center     Atomic      Atomic             Coordinates (Angstroms)
 Number     Number       Type             X           Y           Z
 ---------------------------------------------------------------------
      1          6           0       -1.099857   -0.057721   -0.426573
      2          6           0       -0.050480    0.198378    0.428178
      3          6           0        1.221525   -0.098727   -0.065492
      4          1           0       -0.187674    1.009586    1.148426
      5          1           0       -1.173129   -0.663967    1.514973
      6          1           0       -2.049175    0.468210   -0.387795
      7          1           0       -0.951074   -0.773740   -1.233612
      8          1           0        2.060224    0.524243    0.225870
      9          1           0        1.453198   -1.063579   -0.507174
 ---------------------------------------------------------------------
                    Distance matrix (angstroms):
                    1          2          3          4          5
     1  C    0.000000
     2  C    1.377454   0.000000
     3  C    2.349655   1.396416   0.000000
     4  H    2.109940   1.093452   2.165132   0.000000
     5  H    2.035314   1.784686   2.924335   1.976426   0.000000
     6  H    1.085961   2.175639   3.335083   2.473510   2.381136
     7  H    1.089096   2.125471   2.557408   3.071992   2.759724
     8  H    3.278792   2.145271   1.084620   2.477844   3.678071
     9  H    2.745239   2.174504   1.086138   3.119533   3.338617
                    6          7          8          9
     6  H    0.000000
     7  H    1.861093   0.000000
     8  H    4.155344   3.589257   0.000000
     9  H    3.824558   2.528288   1.851220   0.000000
 Symmetry turned off by external request.
 Stoichiometry    C3H6
 Framework group  C1[X(C3H6)]
 Deg. of freedom    21
 Full point group                 C1      NOp   1
 Rotational constants (GHZ):          36.2646920          10.3507772           8.8789882
 Standard basis: 6-31G(d,p) (6D, 7F)
    75 basis functions,   126 primitive gaussians,    75 cartesian basis functions
    12 alpha electrons       12 beta electrons
       nuclear repulsion energy        70.7275969960 Hartrees.
 NAtoms=    9 NActive=    9 NUniq=    9 SFac= 1.00D+00 NAtFMM=   60 NAOKFM=F Big=F
 Integral buffers will be    131072 words long.
 Raffenetti 2 integral format.
 Two-electron integral symmetry is turned off.
 One-electron integrals computed using PRISM.
 NBasis=    75 RedAO= T EigKep=  5.39D-03  NBF=    75
 NBsUse=    75 1.00D-06 EigRej= -1.00D+00 NBFU=    75
 Initial guess from the checkpoint file:  "/scratch/brown/zhao922/pyGSM/new-benchmarking/R1-3/IRC-folder/Gau-1063.chk"
 B after Tr=    -0.001546   -0.000584   -0.000545
         Rot=    0.999999   -0.001225    0.000505    0.000197 Ang=  -0.15 deg.
 ExpMin= 1.61D-01 ExpMax= 3.05D+03 ExpMxC= 4.57D+02 IAcc=3 IRadAn=         5 AccDes= 0.00D+00
 Harris functional with IExCor=  402 and IRadAn=       5 diagonalized for initial guess.
 HarFok:  IExCor=  402 AccDes= 0.00D+00 IRadAn=         5 IDoV= 1 UseB2=F ITyADJ=14
 ICtDFT=  3500011 ScaDFX=  1.000000  1.000000  1.000000  1.000000
 FoFCou: FMM=F IPFlag=           0 FMFlag=      100000 FMFlg1=           0
         NFxFlg=           0 DoJE=T BraDBF=F KetDBF=T FulRan=T
         wScrn=  0.000000 ICntrl=       500 IOpCl=  0 I1Cent=   200000004 NGrid=           0
         NMat0=    1 NMatS0=      1 NMatT0=    0 NMatD0=    1 NMtDS0=    0 NMtDT0=    0
 Symmetry not used in FoFCou.
 Keep R1 ints in memory in canonical form, NReq=25608061.
 Requested convergence on RMS density matrix=1.00D-08 within 128 cycles.
 Requested convergence on MAX density matrix=1.00D-06.
 Requested convergence on             energy=1.00D-06.
 No special actions if energy rises.
 Integral accuracy reduced to 1.0D-05 until final iterations.
 Initial convergence to 1.0D-05 achieved.  Increase integral accuracy.
 SCF Done:  E(RB3LYP) =  -117.726474938     A.U. after   14 cycles
            NFock= 14  Conv=0.91D-08     -V/T= 2.0099
 DoSCS=F DFT=T ScalE2(SS,OS)=  1.000000  1.000000
 Range of M.O.s used for correlation:     1    75
 NBasis=    75 NAE=    12 NBE=    12 NFC=     0 NFV=     0
 NROrb=     75 NOA=    12 NOB=    12 NVA=    63 NVB=    63

 **** Warning!!: The smallest alpha delta epsilon is  0.68520511D-01

 Symmetrizing basis deriv contribution to polar:
 IMax=3 JMax=2 DiffMx= 0.00D+00
 G2DrvN: will do    10 centers at a time, making    1 passes.
 Calling FoFCou, ICntrl=  3107 FMM=F I1Cent=   0 AccDes= 0.00D+00.
 End of G2Drv F.D. properties file   721 does not exist.
 End of G2Drv F.D. properties file   722 does not exist.
 End of G2Drv F.D. properties file   788 does not exist.
          IDoAtm=111111111
          Differentiating once with respect to nuclear coordinates.
 Keep R1 ints in memory in canonical form, NReq=25532406.
          There are    30 degrees of freedom in the 1st order CPHF.  IDoFFX=6 NUNeed=     0.
     24 vectors produced by pass  0 Test12= 2.52D-15 3.33D-09 XBig12= 3.23D-01 4.98D-01.
 AX will form    24 AO Fock derivatives at one time.
     24 vectors produced by pass  1 Test12= 2.52D-15 3.33D-09 XBig12= 2.24D-01 2.49D-01.
     24 vectors produced by pass  2 Test12= 2.52D-15 3.33D-09 XBig12= 1.47D-03 1.01D-02.
     24 vectors produced by pass  3 Test12= 2.52D-15 3.33D-09 XBig12= 3.00D-06 2.83D-04.
     24 vectors produced by pass  4 Test12= 2.52D-15 3.33D-09 XBig12= 2.44D-09 9.16D-06.
     10 vectors produced by pass  5 Test12= 2.52D-15 3.33D-09 XBig12= 1.41D-12 1.97D-07.
      1 vectors produced by pass  6 Test12= 2.52D-15 3.33D-09 XBig12= 1.08D-15 6.41D-09.
 InvSVY:  IOpt=1 It=  1 EMax= 1.44D-15
 Solved reduced A of dimension   131 with    24 vectors.
 End of Minotr F.D. properties file   721 does not exist.
 End of Minotr F.D. properties file   722 does not exist.
 End of Minotr F.D. properties file   788 does not exist.
 Calling FoFJK, ICntrl=    100127 FMM=F ISym2X=0 I1Cent= 0 IOpClX= 0 NMat=1 NMatS=1 NMatT=0.
 -------------------------------------------------------------------
 Center     Atomic                   Forces (Hartrees/Bohr)
 Number     Number              X              Y              Z
 -------------------------------------------------------------------
      1        6          -0.028073705   -0.028548311    0.037019531
      2        6           0.054117022    0.035213830   -0.044683076
      3        6           0.000441015    0.003715579    0.020599496
      4        1           0.001511726   -0.001595810    0.000763926
      5        1          -0.025007315   -0.005768424   -0.017765440
      6        1          -0.000748000   -0.000756731    0.003357109
      7        1          -0.002233345   -0.000172058    0.001014139
      8        1           0.002708685   -0.006219358    0.008062215
      9        1          -0.002716083    0.004131282   -0.008367899
 -------------------------------------------------------------------
 Cartesian Forces:  Max     0.054117022 RMS     0.019982182
 IRC-IRC-IRC-IRC-IRC-IRC-IRC-IRC-IRC-IRC-IRC-IRC-IRC-IRC-IRC-IRC-IRC-IRC
 Pt  5 Step number   1 out of a maximum of 100
 Modified Bulirsch-Stoer Extrapolation Cycles:
    EPS =    0.000010000000000
      PEZero:  N= 2 I= 1 D=  6.57D-04 Err=  7.69D-05
      PEZero:  N= 3 I= 2 D=  6.57D-04 Err=  5.13D-05
      PEZero:  N= 3 I= 1 D=  1.31D-03 Err=  1.68D-08
 Maximum DWI energy   std dev =  0.000004840 at pt    34
 Maximum DWI gradient std dev =  0.001684321 at pt    70
 CORRECTOR INTEGRATION CONVERGENCE:
   Recorrection delta-x convergence threshold:    0.010000
   Delta-x Convergence Met
 Point Number:   5          Path Number:   1
   CHANGE IN THE REACTION COORDINATE =    0.12614
   NET REACTION COORDINATE UP TO THIS POINT =    0.63064
  # OF POINTS ALONG THE PATH =   5
  # OF STEPS =   1

 Calculating another point on the path.
 IRC-IRC-IRC-IRC-IRC-IRC-IRC-IRC-IRC-IRC-IRC-IRC-IRC-IRC-IRC-IRC-IRC-IRC
                          Input orientation:                          
 ---------------------------------------------------------------------
 Center     Atomic      Atomic             Coordinates (Angstroms)
 Number     Number       Type             X           Y           Z
 ---------------------------------------------------------------------
      1          6           0       -1.103397   -0.061344   -0.421906
      2          6           0       -0.043910    0.202766    0.422839
      3          6           0        1.221680   -0.098288   -0.062950
      4          1           0       -0.185114    1.007628    1.149283
      5          1           0       -1.209103   -0.672106    1.486191
      6          1           0       -2.050084    0.467568   -0.383166
      7          1           0       -0.954668   -0.774342   -1.231820
      8          1           0        2.064282    0.514989    0.237718
      9          1           0        1.449149   -1.057316   -0.519786
 ---------------------------------------------------------------------
                    Distance matrix (angstroms):
                    1          2          3          4          5
     1  C    0.000000
     2  C    1.380529   0.000000
     3  C    2.352912   1.388648   0.000000
     4  H    2.110587   1.093372   2.161395   0.000000
     5  H    2.006250   1.803827   2.939015   1.995888   0.000000
     6  H    1.085110   2.178186   3.335741   2.473495   2.345337
     7  H    1.089242   2.126527   2.561210   3.072016   2.731808
     8  H    3.286557   2.139213   1.084661   2.476576   3.699045
     9  H    2.741721   2.169234   1.086359   3.117788   3.352408
                    6          7          8          9
     6  H    0.000000
     7  H    1.860776   0.000000
     8  H    4.161220   3.596662   0.000000
     9  H    3.819498   2.522976   1.850498   0.000000
 Symmetry turned off by external request.
 Stoichiometry    C3H6
 Framework group  C1[X(C3H6)]
 Deg. of freedom    21
 Full point group                 C1      NOp   1
 Rotational constants (GHZ):          36.7046509          10.3206525           8.8686932
 Standard basis: 6-31G(d,p) (6D, 7F)
    75 basis functions,   126 primitive gaussians,    75 cartesian basis functions
    12 alpha electrons       12 beta electrons
       nuclear repulsion energy        70.7678970509 Hartrees.
 NAtoms=    9 NActive=    9 NUniq=    9 SFac= 1.00D+00 NAtFMM=   60 NAOKFM=F Big=F
 Integral buffers will be    131072 words long.
 Raffenetti 2 integral format.
 Two-electron integral symmetry is turned off.
 One-electron integrals computed using PRISM.
 NBasis=    75 RedAO= T EigKep=  5.29D-03  NBF=    75
 NBsUse=    75 1.00D-06 EigRej= -1.00D+00 NBFU=    75
 Initial guess from the checkpoint file:  "/scratch/brown/zhao922/pyGSM/new-benchmarking/R1-3/IRC-folder/Gau-1063.chk"
 B after Tr=    -0.001442   -0.000501   -0.000788
         Rot=    0.999999   -0.001228    0.000508    0.000213 Ang=  -0.15 deg.
 ExpMin= 1.61D-01 ExpMax= 3.05D+03 ExpMxC= 4.57D+02 IAcc=3 IRadAn=         5 AccDes= 0.00D+00
 Harris functional with IExCor=  402 and IRadAn=       5 diagonalized for initial guess.
 HarFok:  IExCor=  402 AccDes= 0.00D+00 IRadAn=         5 IDoV= 1 UseB2=F ITyADJ=14
 ICtDFT=  3500011 ScaDFX=  1.000000  1.000000  1.000000  1.000000
 FoFCou: FMM=F IPFlag=           0 FMFlag=      100000 FMFlg1=           0
         NFxFlg=           0 DoJE=T BraDBF=F KetDBF=T FulRan=T
         wScrn=  0.000000 ICntrl=       500 IOpCl=  0 I1Cent=   200000004 NGrid=           0
         NMat0=    1 NMatS0=      1 NMatT0=    0 NMatD0=    1 NMtDS0=    0 NMtDT0=    0
 Symmetry not used in FoFCou.
 Keep R1 ints in memory in canonical form, NReq=25608061.
 Requested convergence on RMS density matrix=1.00D-08 within 128 cycles.
 Requested convergence on MAX density matrix=1.00D-06.
 Requested convergence on             energy=1.00D-06.
 No special actions if energy rises.
 Integral accuracy reduced to 1.0D-05 until final iterations.
 Initial convergence to 1.0D-05 achieved.  Increase integral accuracy.
 SCF Done:  E(RB3LYP) =  -117.732310027     A.U. after   13 cycles
            NFock= 13  Conv=0.57D-08     -V/T= 2.0099
 DoSCS=F DFT=T ScalE2(SS,OS)=  1.000000  1.000000
 Range of M.O.s used for correlation:     1    75
 NBasis=    75 NAE=    12 NBE=    12 NFC=     0 NFV=     0
 NROrb=     75 NOA=    12 NOB=    12 NVA=    63 NVB=    63

 **** Warning!!: The smallest alpha delta epsilon is  0.76803186D-01

 Symmetrizing basis deriv contribution to polar:
 IMax=3 JMax=2 DiffMx= 0.00D+00
 G2DrvN: will do    10 centers at a time, making    1 passes.
 Calling FoFCou, ICntrl=  3107 FMM=F I1Cent=   0 AccDes= 0.00D+00.
 End of G2Drv F.D. properties file   721 does not exist.
 End of G2Drv F.D. properties file   722 does not exist.
 End of G2Drv F.D. properties file   788 does not exist.
          IDoAtm=111111111
          Differentiating once with respect to nuclear coordinates.
 Keep R1 ints in memory in canonical form, NReq=25532406.
          There are    30 degrees of freedom in the 1st order CPHF.  IDoFFX=6 NUNeed=     0.
     24 vectors produced by pass  0 Test12= 2.52D-15 3.33D-09 XBig12= 2.84D-01 4.57D-01.
 AX will form    24 AO Fock derivatives at one time.
     24 vectors produced by pass  1 Test12= 2.52D-15 3.33D-09 XBig12= 1.70D-01 2.11D-01.
     24 vectors produced by pass  2 Test12= 2.52D-15 3.33D-09 XBig12= 1.12D-03 9.24D-03.
     24 vectors produced by pass  3 Test12= 2.52D-15 3.33D-09 XBig12= 2.05D-06 2.35D-04.
     24 vectors produced by pass  4 Test12= 2.52D-15 3.33D-09 XBig12= 1.59D-09 6.78D-06.
     10 vectors produced by pass  5 Test12= 2.52D-15 3.33D-09 XBig12= 9.14D-13 1.63D-07.
      1 vectors produced by pass  6 Test12= 2.52D-15 3.33D-09 XBig12= 7.21D-16 4.96D-09.
 InvSVY:  IOpt=1 It=  1 EMax= 1.33D-15
 Solved reduced A of dimension   131 with    24 vectors.
 End of Minotr F.D. properties file   721 does not exist.
 End of Minotr F.D. properties file   722 does not exist.
 End of Minotr F.D. properties file   788 does not exist.
 Calling FoFJK, ICntrl=    100127 FMM=F ISym2X=0 I1Cent= 0 IOpClX= 0 NMat=1 NMatS=1 NMatT=0.
 -------------------------------------------------------------------
 Center     Atomic                   Forces (Hartrees/Bohr)
 Number     Number              X              Y              Z
 -------------------------------------------------------------------
      1        6          -0.030609143   -0.031619076    0.040626333
      2        6           0.054694976    0.037653183   -0.043918800
      3        6           0.002258878    0.003488116    0.021487443
      4        1           0.002060365   -0.001168570    0.000420728
      5        1          -0.025084836   -0.005552889   -0.022437572
      6        1          -0.000518482   -0.000095541    0.003057910
      7        1          -0.002779271   -0.000668296    0.001498008
      8        1           0.002906057   -0.006701453    0.008425025
      9        1          -0.002928544    0.004664525   -0.009159075
 -------------------------------------------------------------------
 Cartesian Forces:  Max     0.054694976 RMS     0.020933976
 IRC-IRC-IRC-IRC-IRC-IRC-IRC-IRC-IRC-IRC-IRC-IRC-IRC-IRC-IRC-IRC-IRC-IRC
 Pt  6 Step number   1 out of a maximum of 100
 Modified Bulirsch-Stoer Extrapolation Cycles:
    EPS =    0.000010000000000
      PEZero:  N= 2 I= 1 D=  6.57D-04 Err=  7.00D-05
      PEZero:  N= 3 I= 2 D=  6.57D-04 Err=  4.67D-05
      PEZero:  N= 3 I= 1 D=  1.31D-03 Err=  1.76D-08
 Maximum DWI energy   std dev =  0.000003132 at pt    34
 Maximum DWI gradient std dev =  0.001258385 at pt    47
 CORRECTOR INTEGRATION CONVERGENCE:
   Recorrection delta-x convergence threshold:    0.010000
   Delta-x Convergence Met
 Point Number:   6          Path Number:   1
   CHANGE IN THE REACTION COORDINATE =    0.12615
   NET REACTION COORDINATE UP TO THIS POINT =    0.75679
  # OF POINTS ALONG THE PATH =   6
  # OF STEPS =   1

 Calculating another point on the path.
 IRC-IRC-IRC-IRC-IRC-IRC-IRC-IRC-IRC-IRC-IRC-IRC-IRC-IRC-IRC-IRC-IRC-IRC
                          Input orientation:                          
 ---------------------------------------------------------------------
 Center     Atomic      Atomic             Coordinates (Angstroms)
 Number     Number       Type             X           Y           Z
 ---------------------------------------------------------------------
      1          6           0       -1.106979   -0.065068   -0.417120
      2          6           0       -0.037736    0.207129    0.417946
      3          6           0        1.222029   -0.097909   -0.060493
      4          1           0       -0.182018    1.006366    1.149653
      5          1           0       -1.242657   -0.679376    1.452915
      6          1           0       -2.050589    0.467916   -0.379333
      7          1           0       -0.958737   -0.775585   -1.229465
      8          1           0        2.068311    0.505735    0.249221
      9          1           0        1.445123   -1.050772   -0.532537
 ---------------------------------------------------------------------
                    Distance matrix (angstroms):
                    1          2          3          4          5
     1  C    0.000000
     2  C    1.383729   0.000000
     3  C    2.356383   1.381652   0.000000
     4  H    2.111469   1.093157   2.157597   0.000000
     5  H    1.973022   1.819035   2.950117   2.014608   0.000000
     6  H    1.084389   2.180651   3.336442   2.473719   2.307849
     7  H    1.089364   2.127894   2.565440   3.072270   2.699080
     8  H    3.294282   2.133792   1.084667   2.474953   3.716972
     9  H    2.738277   2.164395   1.086529   3.115954   3.362160
                    6          7          8          9
     6  H    0.000000
     7  H    1.860419   0.000000
     8  H    4.166755   3.604346   0.000000
     9  H    3.814432   2.517932   1.849925   0.000000
 Symmetry turned off by external request.
 Stoichiometry    C3H6
 Framework group  C1[X(C3H6)]
 Deg. of freedom    21
 Full point group                 C1      NOp   1
 Rotational constants (GHZ):          37.1748141          10.2907134           8.8576061
 Standard basis: 6-31G(d,p) (6D, 7F)
    75 basis functions,   126 primitive gaussians,    75 cartesian basis functions
    12 alpha electrons       12 beta electrons
       nuclear repulsion energy        70.8093248684 Hartrees.
 NAtoms=    9 NActive=    9 NUniq=    9 SFac= 1.00D+00 NAtFMM=   60 NAOKFM=F Big=F
 Integral buffers will be    131072 words long.
 Raffenetti 2 integral format.
 Two-electron integral symmetry is turned off.
 One-electron integrals computed using PRISM.
 NBasis=    75 RedAO= T EigKep=  5.19D-03  NBF=    75
 NBsUse=    75 1.00D-06 EigRej= -1.00D+00 NBFU=    75
 Initial guess from the checkpoint file:  "/scratch/brown/zhao922/pyGSM/new-benchmarking/R1-3/IRC-folder/Gau-1063.chk"
 B after Tr=    -0.001330   -0.000419   -0.001008
         Rot=    0.999999   -0.001222    0.000513    0.000225 Ang=  -0.15 deg.
 ExpMin= 1.61D-01 ExpMax= 3.05D+03 ExpMxC= 4.57D+02 IAcc=3 IRadAn=         5 AccDes= 0.00D+00
 Harris functional with IExCor=  402 and IRadAn=       5 diagonalized for initial guess.
 HarFok:  IExCor=  402 AccDes= 0.00D+00 IRadAn=         5 IDoV= 1 UseB2=F ITyADJ=14
 ICtDFT=  3500011 ScaDFX=  1.000000  1.000000  1.000000  1.000000
 FoFCou: FMM=F IPFlag=           0 FMFlag=      100000 FMFlg1=           0
         NFxFlg=           0 DoJE=T BraDBF=F KetDBF=T FulRan=T
         wScrn=  0.000000 ICntrl=       500 IOpCl=  0 I1Cent=   200000004 NGrid=           0
         NMat0=    1 NMatS0=      1 NMatT0=    0 NMatD0=    1 NMtDS0=    0 NMtDT0=    0
 Symmetry not used in FoFCou.
 Keep R1 ints in memory in canonical form, NReq=25608061.
 Requested convergence on RMS density matrix=1.00D-08 within 128 cycles.
 Requested convergence on MAX density matrix=1.00D-06.
 Requested convergence on             energy=1.00D-06.
 No special actions if energy rises.
 Integral accuracy reduced to 1.0D-05 until final iterations.
 Initial convergence to 1.0D-05 achieved.  Increase integral accuracy.
 SCF Done:  E(RB3LYP) =  -117.738534395     A.U. after   13 cycles
            NFock= 13  Conv=0.43D-08     -V/T= 2.0099
 DoSCS=F DFT=T ScalE2(SS,OS)=  1.000000  1.000000
 Range of M.O.s used for correlation:     1    75
 NBasis=    75 NAE=    12 NBE=    12 NFC=     0 NFV=     0
 NROrb=     75 NOA=    12 NOB=    12 NVA=    63 NVB=    63

 **** Warning!!: The smallest alpha delta epsilon is  0.85464554D-01

 Symmetrizing basis deriv contribution to polar:
 IMax=3 JMax=2 DiffMx= 0.00D+00
 G2DrvN: will do    10 centers at a time, making    1 passes.
 Calling FoFCou, ICntrl=  3107 FMM=F I1Cent=   0 AccDes= 0.00D+00.
 End of G2Drv F.D. properties file   721 does not exist.
 End of G2Drv F.D. properties file   722 does not exist.
 End of G2Drv F.D. properties file   788 does not exist.
          IDoAtm=111111111
          Differentiating once with respect to nuclear coordinates.
 Keep R1 ints in memory in canonical form, NReq=25532406.
          There are    30 degrees of freedom in the 1st order CPHF.  IDoFFX=6 NUNeed=     0.
     24 vectors produced by pass  0 Test12= 2.52D-15 3.33D-09 XBig12= 2.51D-01 4.19D-01.
 AX will form    24 AO Fock derivatives at one time.
     24 vectors produced by pass  1 Test12= 2.52D-15 3.33D-09 XBig12= 1.28D-01 1.80D-01.
     24 vectors produced by pass  2 Test12= 2.52D-15 3.33D-09 XBig12= 8.58D-04 8.31D-03.
     24 vectors produced by pass  3 Test12= 2.52D-15 3.33D-09 XBig12= 1.43D-06 2.00D-04.
     24 vectors produced by pass  4 Test12= 2.52D-15 3.33D-09 XBig12= 1.06D-09 5.55D-06.
     10 vectors produced by pass  5 Test12= 2.52D-15 3.33D-09 XBig12= 6.17D-13 1.35D-07.
      1 vectors produced by pass  6 Test12= 2.52D-15 3.33D-09 XBig12= 4.92D-16 3.60D-09.
 InvSVY:  IOpt=1 It=  1 EMax= 1.33D-15
 Solved reduced A of dimension   131 with    24 vectors.
 End of Minotr F.D. properties file   721 does not exist.
 End of Minotr F.D. properties file   722 does not exist.
 End of Minotr F.D. properties file   788 does not exist.
 Calling FoFJK, ICntrl=    100127 FMM=F ISym2X=0 I1Cent= 0 IOpClX= 0 NMat=1 NMatS=1 NMatT=0.
 -------------------------------------------------------------------
 Center     Atomic                   Forces (Hartrees/Bohr)
 Number     Number              X              Y              Z
 -------------------------------------------------------------------
      1        6          -0.032801425   -0.034374404    0.044294626
      2        6           0.054509469    0.039651932   -0.042751089
      3        6           0.004031979    0.003167396    0.021950593
      4        1           0.002544918   -0.000734871    0.000129251
      5        1          -0.024772809   -0.005229714   -0.027148099
      6        1          -0.000229993    0.000650473    0.002606757
      7        1          -0.003271873   -0.001175875    0.002013510
      8        1           0.003051108   -0.007081716    0.008661340
      9        1          -0.003061375    0.005126780   -0.009756888
 -------------------------------------------------------------------
 Cartesian Forces:  Max     0.054509469 RMS     0.021750026
 IRC-IRC-IRC-IRC-IRC-IRC-IRC-IRC-IRC-IRC-IRC-IRC-IRC-IRC-IRC-IRC-IRC-IRC
 Pt  7 Step number   1 out of a maximum of 100
 Modified Bulirsch-Stoer Extrapolation Cycles:
    EPS =    0.000010000000000
      PEZero:  N= 2 I= 1 D=  6.57D-04 Err=  6.29D-05
      PEZero:  N= 3 I= 2 D=  6.57D-04 Err=  4.19D-05
      PEZero:  N= 3 I= 1 D=  1.31D-03 Err=  1.71D-08
 Maximum DWI energy   std dev =  0.000002184 at pt    45
 Maximum DWI gradient std dev =  0.001014404 at pt    71
 CORRECTOR INTEGRATION CONVERGENCE:
   Recorrection delta-x convergence threshold:    0.010000
   Delta-x Convergence Met
 Point Number:   7          Path Number:   1
   CHANGE IN THE REACTION COORDINATE =    0.12616
   NET REACTION COORDINATE UP TO THIS POINT =    0.88294
  # OF POINTS ALONG THE PATH =   7
  # OF STEPS =   1

 Calculating another point on the path.
 IRC-IRC-IRC-IRC-IRC-IRC-IRC-IRC-IRC-IRC-IRC-IRC-IRC-IRC-IRC-IRC-IRC-IRC
                          Input orientation:                          
 ---------------------------------------------------------------------
 Center     Atomic      Atomic             Coordinates (Angstroms)
 Number     Number       Type             X           Y           Z
 ---------------------------------------------------------------------
      1          6           0       -1.110572   -0.068854   -0.412220
      2          6           0       -0.031968    0.211431    0.413476
      3          6           0        1.222541   -0.097589   -0.058148
      4          1           0       -0.178532    1.005712    1.149664
      5          1           0       -1.273657   -0.685746    1.415615
      6          1           0       -2.050672    0.469229   -0.376377
      7          1           0       -0.963153   -0.777387   -1.226587
      8          1           0        2.072257    0.496593    0.260285
      9          1           0        1.441207   -1.044065   -0.545187
 ---------------------------------------------------------------------
                    Distance matrix (angstroms):
                    1          2          3          4          5
     1  C    0.000000
     2  C    1.386982   0.000000
     3  C    2.360002   1.375396   0.000000
     4  H    2.112551   1.092858   2.153855   0.000000
     5  H    1.936010   1.830574   2.957856   2.032501   0.000000
     6  H    1.083792   2.183001   3.337135   2.474171   2.269132
     7  H    1.089470   2.129477   2.569948   3.072726   2.661963
     8  H    3.301877   2.128978   1.084652   2.473106   3.732005
     9  H    2.735013   2.159989   1.086665   3.114107   3.368031
                    6          7          8          9
     6  H    0.000000
     7  H    1.860002   0.000000
     8  H    4.171886   3.612136   0.000000
     9  H    3.809433   2.513239   1.849496   0.000000
 Symmetry turned off by external request.
 Stoichiometry    C3H6
 Framework group  C1[X(C3H6)]
 Deg. of freedom    21
 Full point group                 C1      NOp   1
 Rotational constants (GHZ):          37.6717206          10.2615523           8.8459526
 Standard basis: 6-31G(d,p) (6D, 7F)
    75 basis functions,   126 primitive gaussians,    75 cartesian basis functions
    12 alpha electrons       12 beta electrons
       nuclear repulsion energy        70.8522701582 Hartrees.
 NAtoms=    9 NActive=    9 NUniq=    9 SFac= 1.00D+00 NAtFMM=   60 NAOKFM=F Big=F
 Integral buffers will be    131072 words long.
 Raffenetti 2 integral format.
 Two-electron integral symmetry is turned off.
 One-electron integrals computed using PRISM.
 NBasis=    75 RedAO= T EigKep=  5.09D-03  NBF=    75
 NBsUse=    75 1.00D-06 EigRej= -1.00D+00 NBFU=    75
 Initial guess from the checkpoint file:  "/scratch/brown/zhao922/pyGSM/new-benchmarking/R1-3/IRC-folder/Gau-1063.chk"
 B after Tr=    -0.001211   -0.000338   -0.001203
         Rot=    0.999999   -0.001209    0.000520    0.000234 Ang=  -0.15 deg.
 ExpMin= 1.61D-01 ExpMax= 3.05D+03 ExpMxC= 4.57D+02 IAcc=3 IRadAn=         5 AccDes= 0.00D+00
 Harris functional with IExCor=  402 and IRadAn=       5 diagonalized for initial guess.
 HarFok:  IExCor=  402 AccDes= 0.00D+00 IRadAn=         5 IDoV= 1 UseB2=F ITyADJ=14
 ICtDFT=  3500011 ScaDFX=  1.000000  1.000000  1.000000  1.000000
 FoFCou: FMM=F IPFlag=           0 FMFlag=      100000 FMFlg1=           0
         NFxFlg=           0 DoJE=T BraDBF=F KetDBF=T FulRan=T
         wScrn=  0.000000 ICntrl=       500 IOpCl=  0 I1Cent=   200000004 NGrid=           0
         NMat0=    1 NMatS0=      1 NMatT0=    0 NMatD0=    1 NMtDS0=    0 NMtDT0=    0
 Symmetry not used in FoFCou.
 Keep R1 ints in memory in canonical form, NReq=25608061.
 Requested convergence on RMS density matrix=1.00D-08 within 128 cycles.
 Requested convergence on MAX density matrix=1.00D-06.
 Requested convergence on             energy=1.00D-06.
 No special actions if energy rises.
 Integral accuracy reduced to 1.0D-05 until final iterations.
 Initial convergence to 1.0D-05 achieved.  Increase integral accuracy.
 SCF Done:  E(RB3LYP) =  -117.745149616     A.U. after   13 cycles
            NFock= 13  Conv=0.36D-08     -V/T= 2.0099
 DoSCS=F DFT=T ScalE2(SS,OS)=  1.000000  1.000000
 Range of M.O.s used for correlation:     1    75
 NBasis=    75 NAE=    12 NBE=    12 NFC=     0 NFV=     0
 NROrb=     75 NOA=    12 NOB=    12 NVA=    63 NVB=    63

[...]
   9                   -1.14870  -0.99349  -0.87994   1.53301   0.77070
  10                   -1.14830  -0.99510  -0.88619   1.54406   0.77057
  11                   -1.14759  -0.99652  -0.89272   1.55516   0.77038
  12                   -1.14658  -0.99775  -0.89953   1.56635   0.77011
  13                   -1.14528  -0.99877  -0.90662   1.57769   0.76975
  14                   -1.14367  -0.99955  -0.91399   1.58921   0.76928
  15                   -1.14176  -1.00008  -0.92165   1.60095   0.76869
  16                   -1.13955  -1.00035  -0.92958   1.61294   0.76795
  17                   -1.13703  -1.00032  -0.93781   1.62522   0.76705
  18                   -1.13421  -0.99999  -0.94633   1.63780   0.76597
  19                   -1.13108  -0.99933  -0.95514   1.65071   0.76469
  20                   -1.12763  -0.99832  -0.96425   1.66396   0.76320
  21                   -1.12386  -0.99694  -0.97366   1.67756   0.76147
  22                   -1.11977  -0.99517  -0.98335   1.69150   0.75948
  23                   -1.11535  -0.99298  -0.99333   1.70577   0.75723
  24                   -1.11062  -0.99036  -1.00359   1.72035   0.75467
  25                   -1.10556  -0.98728  -1.01410   1.73523   0.75180
  26                   -1.10018  -0.98373  -1.02487   1.75036   0.74861
  27                   -1.09450  -0.97968  -1.03585   1.76571   0.74506
  28                   -1.08852  -0.97513  -1.04703   1.78124   0.74116
  29                   -1.08226  -0.97006  -1.05838   1.79689   0.73688
  30                   -1.07573  -0.96445  -1.06986   1.81261   0.73221
  31                   -1.06895  -0.95831  -1.08142   1.82834   0.72714
  32                   -1.06196  -0.95163  -1.09302   1.84403   0.72167
  33                   -1.05477  -0.94442  -1.10462   1.85961   0.71579
  34                   -1.04740  -0.93667  -1.11616   1.87500   0.70951
  35                   -1.03990  -0.92841  -1.12757   1.89014   0.70283
  36                   -1.03229  -0.91965  -1.13878   1.90495   0.69576
  37                   -1.02460  -0.91043  -1.14973   1.91934   0.68832
  38                   -1.01689  -0.90079  -1.16031   1.93322   0.68054
  39                   -1.00921  -0.89081  -1.17043   1.94649   0.67246
  40                   -1.00162  -0.88056  -1.17998   1.95903   0.66416
  41                   -0.99423  -0.87017  -1.18881   1.97072   0.65571
  42                   -0.98713  -0.85981  -1.19681   1.98143   0.64724
  43                   -0.98047  -0.84967  -1.20384   1.99104   0.63890
  44                   -0.97439  -0.83997  -1.20983   1.99947   0.63084
  45                   -0.96902  -0.83098  -1.21474   2.00668   0.62325
  46                   -0.96446  -0.82296  -1.21864   2.01266   0.61634
  47                   -0.96072  -0.81606  -1.22167   2.01750   0.61022
  48                   -0.95765  -0.81018  -1.22404   2.02144   0.60481
  49                   -0.95508  -0.80507  -1.22598   2.02474   0.59989
  50                   -0.95284  -0.80051  -1.22764   2.02762   0.59525
  51                   -0.95085  -0.79634  -1.22910   2.03024   0.59071
  52                   -0.94906  -0.79250  -1.23041   2.03268   0.58612
  53                   -0.94746  -0.78894  -1.23161   2.03502   0.58137
  54                   -0.94606  -0.78566  -1.23270   2.03734   0.57633
  55                   -0.94493  -0.78272  -1.23368   2.03974   0.57086
  56                   -0.94425  -0.78020  -1.23451   2.04239   0.56469
  57                   -0.94390  -0.77786  -1.23522   2.04526   0.55805
  58                   -0.94443  -0.77597  -1.23557   2.04860   0.55047
  59                   -0.94585  -0.77459  -1.23545   2.05228   0.54216
  60                   -0.94811  -0.77383  -1.23480   2.05619   0.53335
  61                   -0.95109  -0.77374  -1.23360   2.06021   0.52423
  62                   -0.95468  -0.77434  -1.23181   2.06427   0.51498
  63                   -0.95874  -0.77558  -1.22946   2.06830   0.50573
  64                   -0.96315  -0.77738  -1.22659   2.07224   0.49659
  65                   -0.96780  -0.77964  -1.22325   2.07607   0.48765
  66                   -0.97257  -0.78223  -1.21954   2.07974   0.47897
  67                   -0.97737  -0.78505  -1.21554   2.08325   0.47060
  68                   -0.98214  -0.78796  -1.21135   2.08660   0.46256
  69                   -0.98680  -0.79087  -1.20705   2.08977   0.45485
  70                   -0.99133  -0.79368  -1.20274   2.09280   0.44746
  71                   -0.99568  -0.79631  -1.19849   2.09569   0.44037
  72                   -0.99984  -0.79869  -1.19435   2.09847   0.43354
  73                   -1.00380  -0.80078  -1.19040   2.10116   0.42692
  74                   -1.00755  -0.80252  -1.18666   2.10379   0.42046
  75                   -1.01111  -0.80389  -1.18318   2.10640   0.41406
  76                   -1.01449  -0.80483  -1.17998   2.10903   0.40763
  77                   -1.01771  -0.80532  -1.17712   2.11176   0.40103
  78                   -1.02079  -0.80528  -1.17465   2.11465   0.39404
  79                   -1.02373  -0.80457  -1.17271   2.11784   0.38642
  80                   -1.02645  -0.80303  -1.17152   2.12143   0.37792
  81                   -1.02875  -0.80044  -1.17139   2.12547   0.36845
  82                   -1.03038  -0.79669  -1.17245   2.12989   0.35822
  83                   -1.03116  -0.79173  -1.17459   2.13465   0.34740
  84                   -1.03097  -0.78558  -1.17756   2.13971   0.33606
  85                   -1.02977  -0.77835  -1.18102   2.14509   0.32418
  86                   -1.02756  -0.77038  -1.18457   2.15079   0.31169
  87                   -1.02457  -0.76245  -1.18763   2.15679   0.29852
  88                   -1.02185  -0.75676  -1.18887   2.16294   0.28464
  89                   -1.02495  -0.76250  -1.18360   2.16702   0.27324
  90                   -1.03461  -0.78401  -1.16941   2.16588   0.27370
  91                   -1.03899  -0.80746  -1.15290   2.16507   0.27761
  92                   -1.03999  -0.83085  -1.13540   2.16496   0.28054
  93                   -1.04056  -0.85386  -1.11727   2.16506   0.28297
                          Z8        X9        Y9        Z9
   1                   -0.56874   1.33439  -1.03280  -0.34926
   2                   -0.55657   1.33557  -1.03572  -0.35127
   3                   -0.54683   1.33779  -1.03840  -0.35360
   4                   -0.53841   1.34035  -1.04096  -0.35630
   5                   -0.53080   1.34302  -1.04342  -0.35932
   6                   -0.52371   1.34572  -1.04579  -0.36262
   7                   -0.51694   1.34839  -1.04805  -0.36616
   8                   -0.51035   1.35103  -1.05020  -0.36991
   9                   -0.50384   1.35363  -1.05223  -0.37382
  10                   -0.49732   1.35620  -1.05414  -0.37788
  11                   -0.49069   1.35874  -1.05592  -0.38204
  12                   -0.48390   1.36127  -1.05758  -0.38627
  13                   -0.47686   1.36381  -1.05911  -0.39055
  14                   -0.46952   1.36638  -1.06052  -0.39483
  15                   -0.46182   1.36899  -1.06180  -0.39910
  16                   -0.45369   1.37166  -1.06297  -0.40330
  17                   -0.44509   1.37441  -1.06402  -0.40743
  18                   -0.43596   1.37725  -1.06498  -0.41143
  19                   -0.42625   1.38019  -1.06585  -0.41529
  20                   -0.41592   1.38324  -1.06664  -0.41899
  21                   -0.40493   1.38641  -1.06737  -0.42249
  22                   -0.39325   1.38970  -1.06805  -0.42577
  23                   -0.38085   1.39311  -1.06869  -0.42883
  24                   -0.36771   1.39664  -1.06932  -0.43164
  25                   -0.35382   1.40027  -1.06994  -0.43420
  26                   -0.33916   1.40401  -1.07056  -0.43650
  27                   -0.32374   1.40783  -1.07121  -0.43853
  28                   -0.30755   1.41173  -1.07190  -0.44030
  29                   -0.29060   1.41570  -1.07263  -0.44180
  30                   -0.27289   1.41972  -1.07342  -0.44304
  31                   -0.25446   1.42378  -1.07429  -0.44401
  32                   -0.23531   1.42787  -1.07523  -0.44473
  33                   -0.21546   1.43198  -1.07625  -0.44519
  34                   -0.19496   1.43610  -1.07737  -0.44540
  35                   -0.17384   1.44021  -1.07859  -0.44536
  36                   -0.15215   1.44429  -1.07991  -0.44509
  37                   -0.12995   1.44833  -1.08134  -0.44458
  38                   -0.10732   1.45230  -1.08285  -0.44386
  39                   -0.08440   1.45616  -1.08445  -0.44295
  40                   -0.06135   1.45987  -1.08611  -0.44188
  41                   -0.03843   1.46335  -1.08779  -0.44071
  42                   -0.01595   1.46654  -1.08944  -0.43951
  43                    0.00569   1.46935  -1.09098  -0.43838
  44                    0.02607   1.47170  -1.09232  -0.43742
  45                    0.04474   1.47354  -1.09339  -0.43676
  46                    0.06125   1.47485  -1.09412  -0.43645
  47                    0.07544   1.47567  -1.09452  -0.43653
  48                    0.08764   1.47610  -1.09463  -0.43694
  49                    0.09844   1.47623  -1.09451  -0.43767
  50                    0.10838   1.47611  -1.09418  -0.43872
  51                    0.11785   1.47575  -1.09364  -0.44013
  52                    0.12715   1.47514  -1.09285  -0.44199
  53                    0.13650   1.47426  -1.09179  -0.44444
  54                    0.14610   1.47306  -1.09037  -0.44764
  55                    0.15613   1.47150  -1.08851  -0.45186
  56                    0.16682   1.46945  -1.08599  -0.45765
  57                    0.17788   1.46715  -1.08310  -0.46444
  58                    0.18958   1.46426  -1.07930  -0.47324
  59                    0.20163   1.46089  -1.07469  -0.48356
  60                    0.21378   1.45715  -1.06939  -0.49499
  61                    0.22585   1.45320  -1.06355  -0.50717
  62                    0.23770   1.44915  -1.05729  -0.51977
  63                    0.24921   1.44512  -1.05075  -0.53252
  64                    0.26027   1.44121  -1.04404  -0.54517
  65                    0.27083   1.43747  -1.03728  -0.55753
  66                    0.28084   1.43394  -1.03053  -0.56947
  67                    0.29028   1.43064  -1.02386  -0.58090
  68                    0.29916   1.42759  -1.01733  -0.59178
  69                    0.30751   1.42476  -1.01095  -0.60209
  70                    0.31534   1.42215  -1.00473  -0.61186
  71                    0.32272   1.41974  -0.99867  -0.62113
  72                    0.32969   1.41750  -0.99275  -0.62996
  73                    0.33631   1.41541  -0.98694  -0.63843
  74                    0.34265   1.41343  -0.98118  -0.64661
  75                    0.34880   1.41155  -0.97542  -0.65462
  76                    0.35484   1.40972  -0.96955  -0.66260
  77                    0.36091   1.40791  -0.96344  -0.67072
  78                    0.36716   1.40608  -0.95689  -0.67922
  79                    0.37379   1.40418  -0.94965  -0.68840
  80                    0.38094   1.40217  -0.94145  -0.69853
  81                    0.38862   1.40010  -0.93217  -0.70965
  82                    0.39661   1.39808  -0.92197  -0.72153
  83                    0.40475   1.39625  -0.91100  -0.73390
  84                    0.41300   1.39472  -0.89927  -0.74669
  85                    0.42141   1.39367  -0.88670  -0.75990
  86                    0.43009   1.39334  -0.87312  -0.77358
  87                    0.43935   1.39422  -0.85817  -0.78790
  88                    0.45017   1.39762  -0.84095  -0.80324
  89                    0.46485   1.40773  -0.82091  -0.81871
  90                    0.47605   1.42098  -0.80525  -0.82851
  91                    0.47855   1.42755  -0.79331  -0.83681
  92                    0.47757   1.42967  -0.78227  -0.84560
  93                    0.47573   1.43037  -0.77141  -0.85452
 --------------------------------------------------------------------------
 
 Total number of points:                   92
 Total number of gradient calculations:    93
 Total number of Hessian calculations:     93
 IRC-IRC-IRC-IRC-IRC-IRC-IRC-IRC-IRC-IRC-IRC-IRC-IRC-IRC-IRC-IRC-IRC-IRC
                          Input orientation:                          
 ---------------------------------------------------------------------
 Center     Atomic      Atomic             Coordinates (Angstroms)
 Number     Number       Type             X           Y           Z
 ---------------------------------------------------------------------
      1          6           0       -0.662810   -0.041335   -0.568856
      2          6           0       -0.164460    0.116871    0.841048
      3          6           0        0.827362   -0.075588   -0.272677
      4          1           0       -0.231557    1.102753    1.291300
      5          1           0       -0.322244   -0.697108    1.542204
      6          1           0       -1.074964    0.830778   -1.067515
      7          1           0       -1.143895   -0.975681   -0.842358
      8          1           0        1.437209    0.772710   -0.568627
      9          1           0        1.334364   -1.032841   -0.349236
 ---------------------------------------------------------------------
                    Distance matrix (angstroms):
                    1          2          3          4          5
     1  C    0.000000
     2  C    1.503733   0.000000
     3  C    1.519706   1.503707   0.000000
     4  H    2.226005   1.085906   2.226167   0.000000
     5  H    2.236648   1.085853   2.236442   1.819526   0.000000
     6  H    1.085870   2.231882   2.252135   2.519785   3.116353
     7  H    1.085931   2.233119   2.240660   3.115243   2.537488
     8  H    2.252276   2.232185   1.085867   2.520523   3.116351
     9  H    2.240540   2.232731   1.085931   3.115161   2.536653
                    6          7          8          9
     6  H    0.000000
     7  H    1.821741   0.000000
     8  H    2.561889   3.129520   0.000000
     9  H    3.129515   2.527489   1.821736   0.000000
 Symmetry turned off by external request.
 Stoichiometry    C3H6
 Framework group  C1[X(C3H6)]
 Deg. of freedom    21
 Full point group                 C1      NOp   1
 Rotational constants (GHZ):          20.2969233          19.9000299          12.5496685

 **********************************************************************

            Population analysis using the SCF Density.

 **********************************************************************

 Alpha  occ. eigenvalues --  -10.18256 -10.18228 -10.18177  -0.84178  -0.59241
 Alpha  occ. eigenvalues --   -0.59044  -0.48631  -0.46006  -0.35887  -0.35693
 Alpha  occ. eigenvalues --   -0.29053  -0.28560
 Alpha virt. eigenvalues --    0.10558   0.11036   0.15274   0.15665   0.15699
 Alpha virt. eigenvalues --    0.23148   0.23315   0.25938   0.26435   0.46947
 Alpha virt. eigenvalues --    0.54245   0.55812   0.56251   0.62773   0.63520
 Alpha virt. eigenvalues --    0.68822   0.70287   0.76326   0.76360   0.84485
 Alpha virt. eigenvalues --    0.90340   0.90747   0.92327   0.92357   0.93971
 Alpha virt. eigenvalues --    1.26802   1.27035   1.54626   1.60843   1.61532
 Alpha virt. eigenvalues --    1.61839   1.76550   1.77159   1.83191   2.01491
 Alpha virt. eigenvalues --    2.08185   2.08464   2.16909   2.17256   2.20674
 Alpha virt. eigenvalues --    2.25574   2.26699   2.35100   2.35468   2.38536
 Alpha virt. eigenvalues --    2.52481   2.52788   2.68269   2.68709   2.69405
 Alpha virt. eigenvalues --    2.83036   2.84787   2.94800   2.95461   3.17910
 Alpha virt. eigenvalues --    3.31397   3.37949   3.38302   3.57558   3.58487
 Alpha virt. eigenvalues --    4.21230   4.55626   4.55649
          Condensed to atoms (all electrons):
               1          2          3          4          5          6
     1  C    4.958036   0.283531   0.278480  -0.024041  -0.023574   0.396250
     2  C    0.283531   4.952295   0.283539   0.396478   0.396023  -0.023965
     3  C    0.278480   0.283539   4.958029  -0.024036  -0.023585  -0.022338
     4  H   -0.024041   0.396478  -0.024036   0.584266  -0.033592  -0.006538
     5  H   -0.023574   0.396023  -0.023585  -0.033592   0.584016   0.002342
     6  H    0.396250  -0.023965  -0.022338  -0.006538   0.002342   0.582196
     7  H    0.396453  -0.023920  -0.022845   0.002433  -0.006393  -0.033704
     8  H   -0.022334  -0.023951   0.396241  -0.006532   0.002341  -0.005892
     9  H   -0.022849  -0.023940   0.396464   0.002435  -0.006400   0.002204
               7          8          9
     1  C    0.396453  -0.022334  -0.022849
     2  C   -0.023920  -0.023951  -0.023940
     3  C   -0.022845   0.396241   0.396464
     4  H    0.002433  -0.006532   0.002435
     5  H   -0.006393   0.002341  -0.006400
     6  H   -0.033704  -0.005892   0.002204
     7  H    0.582346   0.002201  -0.006148
     8  H    0.002201   0.582193  -0.033704
     9  H   -0.006148  -0.033704   0.582356
 Mulliken charges:
               1
     1  C   -0.219952
     2  C   -0.216090
     3  C   -0.219948
     4  H    0.109128
     5  H    0.108823
     6  H    0.109445
     7  H    0.109576
     8  H    0.109437
     9  H    0.109582
 Sum of Mulliken charges =  -0.00000
 Mulliken charges with hydrogens summed into heavy atoms:
               1
     1  C   -0.000931
     2  C    0.001860
     3  C   -0.000929
 APT charges:
               1
     1  C   -0.759314
     2  C   -0.753944
     3  C   -0.759300
     4  H    0.376165
     5  H    0.378773
     6  H    0.380071
     7  H    0.378744
     8  H    0.380127
     9  H    0.378678
 Sum of APT charges =  -0.00000
 APT charges with hydrogens summed into heavy atoms:
               1
     1  C   -0.000500
     2  C    0.000994
     3  C   -0.000494
 Electronic spatial extent (au):  <R**2>=            156.1442
 Charge=             -0.0000 electrons
 Dipole moment (field-independent basis, Debye):
    X=             -0.0042    Y=              0.0030    Z=              0.0217  Tot=              0.0223
 Quadrupole moment (field-independent basis, Debye-Ang):
   XX=            -20.2451   YY=            -18.2709   ZZ=            -20.3002
   XY=              0.0936   XZ=              0.0053   YZ=             -0.2453
 Traceless Quadrupole moment (field-independent basis, Debye-Ang):
   XX=             -0.6397   YY=              1.3345   ZZ=             -0.6948
   XY=              0.0936   XZ=              0.0053   YZ=             -0.2453
 Octapole moment (field-independent basis, Debye-Ang**2):
  XXX=              1.1811  YYY=              0.0030  ZZZ=              1.8168  XYY=              0.0048
  XXY=             -0.2313  XXZ=             -1.7946  XZZ=             -1.1954  YZZ=              0.2367
  YYZ=              0.0273  XYZ=             -0.0454
 Hexadecapole moment (field-independent basis, Debye-Ang**3):
 XXXX=            -85.8975 YYYY=            -39.7551 ZZZZ=            -83.9291 XXXY=              1.4065
 XXXZ=             -0.3204 YYYX=              0.8400 YYYZ=             -2.2076 ZZZX=             -0.2797
 ZZZY=             -3.6970 XXYY=            -19.0681 XXZZ=            -28.2782 YYZZ=            -18.9722
 XXYZ=             -1.2395 YYXZ=             -0.0125 ZZXY=              0.4555
 N-N= 7.559345755758D+01 E-N=-4.232737927267D+02  KE= 1.166765642015D+02
  Exact polarizability:   0.000   0.000   0.000   0.000   0.000   0.000
 Approx polarizability:  40.473  -0.043  39.555   0.171   0.096  39.663

 This type of calculation cannot be archived.


 HE THAT IS UNAWARE OF HIS IGNORANCE WILL BE MISLED BY HIS KNOWLEDGE.

                                        -- WHATLEY
 Job cpu time:       0 days  2 hours 58 minutes 37.4 seconds.
 Elapsed time:       0 days  0 hours  8 minutes 22.7 seconds.
 File lengths (MBytes):  RWF=     10 Int=      0 D2E=      0 Chk=      3 Scr=      1
 Normal termination of Gaussian 16 at Fri Jul 17 17:51:27 2020.
