 Entering Gaussian System, Link 0=g16
 Initial command:
 /apps/cent7/gaussian/g16-B.01/g16-haswell/g16/l1.exe "/scratch/brown/zhao922/pyGSM/new-benchmarking/R1-3/IRC-folder/Gau-81716.inp" -scrdir="/scratch/brown/zhao922/pyGSM/new-benchmarking/R1-3/IRC-folder/"
 Entering Link 1 = /apps/cent7/gaussian/g16-B.01/g16-haswell/g16/l1.exe PID=     81717.
  
 Copyright (c) 1988-2017, Gaussian, Inc.  All Rights Reserved.
  
 This is part of the Gaussian(R) 16 program.  It is based on
 the Gaussian(R) 09 system (copyright 2009, Gaussian, Inc.),
 the Gaussian(R) 03 system (copyright 2003, Gaussian, Inc.),
 the Gaussian(R) 98 system (copyright 1998, Gaussian, Inc.),
 the Gaussian(R) 94 system (copyright 1995, Gaussian, Inc.),
 the Gaussian 92(TM) system (copyright 1992, Gaussian, Inc.),
 the Gaussian 90(TM) system (copyright 1990, Gaussian, Inc.),
 the Gaussian 88(TM) system (copyright 1988, Gaussian, Inc.),
 the Gaussian 86(TM) system (copyright 1986, Carnegie Mellon
 University), and the Gaussian 82(TM) system (copyright 1983,
 Carnegie Mellon University). Gaussian is a federally registered
 trademark of Gaussian, Inc.
  
 This software contains proprietary and confidential information,
 including trade secrets, belonging to Gaussian, Inc.
  
 This software is provided under written license and may be
 used, copied, transmitted, or stored only in accord with that
 written license.
  
 The following legend is applicable only to US Government
 contracts under FAR:
  
                    RESTRICTED RIGHTS LEGEND
  
 Use, reproduction and disclosure by the US Government is
 subject to restrictions as set forth in subparagraphs (a)
 and (c) of the Commercial Computer Software - Restricted
 Rights clause in FAR 52.227-19.
  
 Gaussian, Inc.
 340 Quinnipiac St., Bldg. 40, Wallingford CT 06492
  
  
 ---------------------------------------------------------------
 Warning -- This program may not be used in any manner that
 competes with the business of Gaussian, Inc. or will provide
 assistance to any competitor of Gaussian, Inc.  The licensee
 of this program is prohibited from giving any competitor of
 Gaussian, Inc. access to this program.  By using this program,
 the user acknowledges that Gaussian, Inc. is engaged in the
 business of creating and licensing software in the field of
 computational chemistry and represents and warrants to the
 licensee that it is not a competitor of Gaussian, Inc. and that
 it will not use this program in any manner prohibited above.
 ---------------------------------------------------------------
  

 Cite this work as:
 Gaussian 16, Revision B.01,
 M. J. Frisch, G. W. Trucks, H. B. Schlegel, G. E. Scuseria, 
 M. A. Robb, J. R. Cheeseman, G. Scalmani, V. Barone, 
 G. A. Petersson, H. Nakatsuji, X. Li, M. Caricato, A. V. Marenich, 
 J. Bloino, B. G. Janesko, R. Gomperts, B. Mennucci, H. P. Hratchian, 
 J. V. Ortiz, A. F. Izmaylov, J. L. Sonnenberg, D. Williams-Young, 
 F. Ding, F. Lipparini, F. Egidi, J. Goings, B. Peng, A. Petrone, 
 T. Henderson, D. Ranasinghe, V. G. Zakrzewski, J. Gao, N. Rega, 
 G. Zheng, W. Liang, M. Hada, M. Ehara, K. Toyota, R. Fukuda, 
 J. Hasegawa, M. Ishida, T. Nakajima, Y. Honda, O. Kitao, H. Nakai, 
 T. Vreven, K. Throssell, J. A. Montgomery, Jr., J. E. Peralta, 
 F. Ogliaro, M. J. Bearpark, J. J. Heyd, E. N. Brothers, K. N. Kudin, 
 V. N. Staroverov, T. A. Keith, R. Kobayashi, J. Normand, 
 K. Raghavachari, A. P. Rendell, J. C. Burant, S. S. Iyengar, 
 J. Tomasi, M. Cossi, J. M. Millam, M. Klene, C. Adamo, R. Cammi, 
 J. W. Ochterski, R. L. Martin, K. Morokuma, O. Farkas, 
 J. B. Foresman, and D. J. Fox, Gaussian, Inc., Wallingford CT, 2016.
 
 ******************************************
 Gaussian 16:  ES64L-G16RevB.01 20-Dec-2017
                17-Jul-2020 
 ******************************************
 %NProcShared=24
 Will use up to   24 processors via shared memory.
 %Mem=60GB
 ----------------------------------------------------------------------
 # B3LYP/6-31G** IRC=(CALCALL, maxpoints=60, StepSize=10, maxcyc=100, R
 eport=Cartesians)
 ----------------------------------------------------------------------
 1/6=100,10=4,18=10,26=3,38=1,39=10,42=60,44=3,71=1,129=10,172=1/1,23;
 2/12=2,17=6,18=5,29=1,40=1/2;
 3/5=1,6=6,7=101,11=2,25=1,30=1,71=2,74=-5,140=1/1,2,3;
 4//1;
 5/5=2,38=5/2;
 8/6=4,10=90,11=11/1;
 11/6=1,8=1,9=11,15=111,16=1/1,2,10;
 10/6=1,13=1/2;
 6/7=2,8=2,9=2,10=2,18=1,28=1/1;
 7/10=1,25=1/1,2,3,16;
 1/6=100,10=4,18=10,26=3,39=10,42=60,44=3,71=1,129=10/23(2);
 2/29=1/2;
 99/5=20/99;
 2/29=1/2;
 3/5=1,6=6,7=101,11=2,25=1,30=1,71=2,74=-5,140=1/1,2,3;
 4/5=5,16=3,69=1/1;
 5/5=2,38=5/2;
 8/6=4,10=90,11=11/1;
 11/6=1,8=1,9=11,15=111,16=1/1,2,10;
 10/6=1,13=1/2;
 7/10=1,25=1/1,2,3,16;
 1/6=100,10=4,18=10,26=3,39=10,42=60,44=3,71=1,129=10/23(-8);
 2/29=1/2;
 6/7=2,8=2,9=2,10=2,18=1,19=2,28=1/1;
 99/5=20/99;
 ----------
 pp_2_2 IRC
 ----------
 Symbolic Z-matrix:
 Charge =  0 Multiplicity = 1
 C                    -2.56222   0.30414   1.52146 
 C                    -1.27658  -0.42611   1.71155 
 C                    -0.10181   0.0337    1.02808 
 H                    -1.12091  -0.87599   2.69996 
 H                    -3.46849  -0.28434   1.38461 
 H                    -2.5382    1.25066   0.98389 
 H                    -1.60672  -1.26326   1.03462 
 H                    -0.20195   0.43313   0.02437 
 H                     0.85256   0.16113   1.52782 
 
 IRC-IRC-IRC-IRC-IRC-IRC-IRC-IRC-IRC-IRC-IRC-IRC-IRC-IRC-IRC-IRC-IRC-IRC
 ------------------------------------------------------------------------
 INPUT DATA FOR L123
 ------------------------------------------------------------------------
 GENERAL PARAMETERS:
 Follow reaction path in both directions.
 Maximum points per path      =  60
 Step size                    =   0.100 bohr
 Integration scheme           = HPC                                 
    Redo corrector integration= Yes                                 
    DWI Weight Power          =  2
    DWI will use Hessian update vectors when possible.
    Max correction cycles     = 100
 Initial Hessian              = CalcFC
 Hessian evaluation           = Analytic at all predictor steps
                              = Update at all corrector steps
 Hessian updating method      = Bofill                              
 ------------------------------------------------------------------------
 IRC-IRC-IRC-IRC-IRC-IRC-IRC-IRC-IRC-IRC-IRC-IRC-IRC-IRC-IRC-IRC-IRC-IRC
                          Input orientation:                          
 ---------------------------------------------------------------------
 Center     Atomic      Atomic             Coordinates (Angstroms)
 Number     Number       Type             X           Y           Z
 ---------------------------------------------------------------------
      1          6           0       -2.562216    0.304144    1.521459
      2          6           0       -1.276578   -0.426111    1.711547
      3          6           0       -0.101809    0.033697    1.028079
      4          1           0       -1.120913   -0.875992    2.699957
      5          1           0       -3.468487   -0.284342    1.384612
      6          1           0       -2.538197    1.250658    0.983889
      7          1           0       -1.606721   -1.263256    1.034621
      8          1           0       -0.201948    0.433127    0.024367
      9          1           0        0.852556    0.161131    1.527816
 ---------------------------------------------------------------------
                    Distance matrix (angstroms):
                    1          2          3          4          5
     1  C    0.000000
     2  C    1.490728   0.000000
     3  C    2.523919   1.434794   0.000000
     4  H    2.204299   1.097077   2.159000   0.000000
     5  H    1.089206   2.220687   3.400410   2.755229   0.000000
     6  H    1.088782   2.220973   2.723772   3.078348   1.839088
     7  H    1.899138   1.126071   1.986678   1.777450   2.132355
     8  H    2.797997   2.177084   1.084901   3.117222   3.610444
     9  H    3.417771   2.216263   1.084799   2.518753   4.346305
                    6          7          8          9
     6  H    0.000000
     7  H    2.681415   0.000000
     8  H    2.654637   2.423162   0.000000
     9  H    3.602795   2.884469   1.856427   0.000000
 Symmetry turned off by external request.
 Stoichiometry    C3H6
 Framework group  C1[X(C3H6)]
 Deg. of freedom    21
 Full point group                 C1      NOp   1
 Rotational constants (GHZ):          39.3530089           9.5657773           8.3592799
 Standard basis: 6-31G(d,p) (6D, 7F)
    75 basis functions,   126 primitive gaussians,    75 cartesian basis functions
    12 alpha electrons       12 beta electrons
       nuclear repulsion energy        70.1737567252 Hartrees.
 NAtoms=    9 NActive=    9 NUniq=    9 SFac= 1.00D+00 NAtFMM=   60 NAOKFM=F Big=F
 Integral buffers will be    131072 words long.
 Raffenetti 2 integral format.
 Two-electron integral symmetry is turned off.
 One-electron integrals computed using PRISM.
 NBasis=    75 RedAO= T EigKep=  4.93D-03  NBF=    75
 NBsUse=    75 1.00D-06 EigRej= -1.00D+00 NBFU=    75
 ExpMin= 1.61D-01 ExpMax= 3.05D+03 ExpMxC= 4.57D+02 IAcc=3 IRadAn=         5 AccDes= 0.00D+00
 Harris functional with IExCor=  402 and IRadAn=       5 diagonalized for initial guess.
 HarFok:  IExCor=  402 AccDes= 0.00D+00 IRadAn=         5 IDoV= 1 UseB2=F ITyADJ=14
 ICtDFT=  3500011 ScaDFX=  1.000000  1.000000  1.000000  1.000000
 FoFCou: FMM=F IPFlag=           0 FMFlag=      100000 FMFlg1=           0
         NFxFlg=           0 DoJE=T BraDBF=F KetDBF=T FulRan=T
         wScrn=  0.000000 ICntrl=       500 IOpCl=  0 I1Cent=   200000004 NGrid=           0
         NMat0=    1 NMatS0=      1 NMatT0=    0 NMatD0=    1 NMtDS0=    0 NMtDT0=    0
 Symmetry not used in FoFCou.
 Keep R1 ints in memory in canonical form, NReq=25608079.
 Requested convergence on RMS density matrix=1.00D-08 within 128 cycles.
 Requested convergence on MAX density matrix=1.00D-06.
 Requested convergence on             energy=1.00D-06.
 No special actions if energy rises.
 Integral accuracy reduced to 1.0D-05 until final iterations.
 Initial convergence to 1.0D-05 achieved.  Increase integral accuracy.
 SCF Done:  E(RB3LYP) =  -117.773226389     A.U. after   13 cycles
            NFock= 13  Conv=0.38D-08     -V/T= 2.0099
 DoSCS=F DFT=T ScalE2(SS,OS)=  1.000000  1.000000
 Range of M.O.s used for correlation:     1    75
 NBasis=    75 NAE=    12 NBE=    12 NFC=     0 NFV=     0
 NROrb=     75 NOA=    12 NOB=    12 NVA=    63 NVB=    63

 **** Warning!!: The smallest alpha delta epsilon is  0.85052569D-01

 Symmetrizing basis deriv contribution to polar:
 IMax=3 JMax=2 DiffMx= 0.00D+00
 G2DrvN: will do    10 centers at a time, making    1 passes.
 Calling FoFCou, ICntrl=  3107 FMM=F I1Cent=   0 AccDes= 0.00D+00.
 End of G2Drv F.D. properties file   721 does not exist.
 End of G2Drv F.D. properties file   722 does not exist.
 End of G2Drv F.D. properties file   788 does not exist.
          IDoAtm=111111111
          Differentiating once with respect to nuclear coordinates.
 Keep R1 ints in memory in canonical form, NReq=25532417.
          There are    30 degrees of freedom in the 1st order CPHF.  IDoFFX=6 NUNeed=     0.
     24 vectors produced by pass  0 Test12= 2.52D-15 3.33D-09 XBig12= 1.57D-01 2.15D-01.
 AX will form    24 AO Fock derivatives at one time.
     24 vectors produced by pass  1 Test12= 2.52D-15 3.33D-09 XBig12= 4.03D-02 5.00D-02.
     24 vectors produced by pass  2 Test12= 2.52D-15 3.33D-09 XBig12= 2.03D-04 3.82D-03.
     24 vectors produced by pass  3 Test12= 2.52D-15 3.33D-09 XBig12= 4.58D-07 1.13D-04.
     24 vectors produced by pass  4 Test12= 2.52D-15 3.33D-09 XBig12= 5.06D-10 3.06D-06.
     10 vectors produced by pass  5 Test12= 2.52D-15 3.33D-09 XBig12= 2.63D-13 8.43D-08.
 InvSVY:  IOpt=1 It=  1 EMax= 1.33D-15
 Solved reduced A of dimension   130 with    24 vectors.
 End of Minotr F.D. properties file   721 does not exist.
 End of Minotr F.D. properties file   722 does not exist.
 End of Minotr F.D. properties file   788 does not exist.

 **********************************************************************

            Population analysis using the SCF Density.

 **********************************************************************

 Alpha  occ. eigenvalues --  -10.20577 -10.18753 -10.18375  -0.79588  -0.65517
 Alpha  occ. eigenvalues --   -0.56922  -0.46239  -0.44069  -0.40068  -0.36551
 Alpha  occ. eigenvalues --   -0.34985  -0.16345
 Alpha virt. eigenvalues --   -0.07839   0.10079   0.13046   0.14661   0.15532
 Alpha virt. eigenvalues --    0.17968   0.21744   0.26758   0.32335   0.49579
 Alpha virt. eigenvalues --    0.53139   0.55593   0.59951   0.61120   0.62220
 Alpha virt. eigenvalues --    0.63950   0.74698   0.78434   0.81317   0.83183
 Alpha virt. eigenvalues --    0.87293   0.89456   0.91093   0.94691   0.98532
 Alpha virt. eigenvalues --    1.02781   1.32905   1.41349   1.45923   1.50248
 Alpha virt. eigenvalues --    1.63081   1.76852   1.82585   1.85009   1.94944
 Alpha virt. eigenvalues --    1.96015   2.02847   2.05503   2.06925   2.14064
 Alpha virt. eigenvalues --    2.21865   2.30870   2.31673   2.38367   2.43263
 Alpha virt. eigenvalues --    2.48225   2.52329   2.57720   2.62158   2.70379
 Alpha virt. eigenvalues --    2.76758   2.80654   2.86555   2.91907   3.21929
 Alpha virt. eigenvalues --    3.29876   3.31826   3.45254   3.46461   3.56528
 Alpha virt. eigenvalues --    4.24739   4.31968   4.59385
          Condensed to atoms (all electrons):
               1          2          3          4          5          6
     1  C    5.251779   0.390883  -0.057452  -0.052540   0.366517   0.378316
     2  C    0.390883   4.804452   0.459388   0.373134  -0.040200  -0.043158
     3  C   -0.057452   0.459388   5.185941  -0.038297   0.004561  -0.004611
     4  H   -0.052540   0.373134  -0.038297   0.597594   0.003002   0.003756
     5  H    0.366517  -0.040200   0.004561   0.003002   0.617991  -0.039593
     6  H    0.378316  -0.043158  -0.004611   0.003756  -0.039593   0.589113
     7  H   -0.004272   0.318619  -0.050799  -0.012441  -0.009120   0.006035
     8  H   -0.002326  -0.041350   0.381545   0.005295   0.000404   0.003232
     9  H    0.002878  -0.032286   0.379028  -0.005096  -0.000121   0.000415
               7          8          9
     1  C   -0.004272  -0.002326   0.002878
     2  C    0.318619  -0.041350  -0.032286
     3  C   -0.050799   0.381545   0.379028
     4  H   -0.012441   0.005295  -0.005096
     5  H   -0.009120   0.000404  -0.000121
     6  H    0.006035   0.003232   0.000415
     7  H    0.566276  -0.002199   0.004703
     8  H   -0.002199   0.588242  -0.037177
     9  H    0.004703  -0.037177   0.581269
 Mulliken charges:
               1
     1  C   -0.273782
     2  C   -0.189481
     3  C   -0.259305
     4  H    0.125593
     5  H    0.096558
     6  H    0.106497
     7  H    0.183199
     8  H    0.104335
     9  H    0.106386
 Sum of Mulliken charges =  -0.00000
 Mulliken charges with hydrogens summed into heavy atoms:
               1
     1  C   -0.070728
     2  C    0.119312
     3  C   -0.048584
 APT charges:
               1
     1  C   -0.775388
     2  C   -0.769027
     3  C   -0.594580
     4  H    0.538933
     5  H    0.565357
     6  H    0.237715
     7  H    0.306081
     8  H    0.136504
     9  H    0.354407
 Sum of APT charges =  -0.00000
 APT charges with hydrogens summed into heavy atoms:
               1
     1  C    0.027683
     2  C    0.075986
     3  C   -0.103670
 Electronic spatial extent (au):  <R**2>=            508.8820
 Charge=             -0.0000 electrons
 Dipole moment (field-independent basis, Debye):
    X=              0.0869    Y=             -0.7483    Z=             -0.3672  Tot=              0.8381
 Quadrupole moment (field-independent basis, Debye-Ang):
   XX=            -20.7923   YY=            -19.8688   ZZ=            -21.4584
   XY=              2.0944   XZ=              1.9985   YZ=             -2.0818
 Traceless Quadrupole moment (field-independent basis, Debye-Ang):
   XX=             -0.0858   YY=              0.8377   ZZ=             -0.7519
   XY=              2.0944   XZ=              1.9985   YZ=             -2.0818
 Octapole moment (field-independent basis, Debye-Ang**2):
  XXX=             83.2211  YYY=              1.4872  ZZZ=            -87.3558  XYY=             24.6960
  XXY=             -3.4232  XXZ=            -33.1044  XZZ=             34.2793  YZZ=             -4.1902
  YYZ=            -28.0292  XYZ=              4.1572
 Hexadecapole moment (field-independent basis, Debye-Ang**3):
 XXXX=           -389.8679 YYYY=            -46.9503 ZZZZ=           -285.6162 XXXY=             13.9528
 XXXZ=            138.0681 YYYX=              3.6300 YYYZ=              7.3187 ZZZX=            142.5083
 ZZZY=             -4.1208 XXYY=            -68.9637 XXZZ=           -131.8283 YYZZ=            -54.9546
 XXYZ=             -6.1731 YYXZ=             39.8593 ZZXY=             10.2674
 N-N= 7.017375672523D+01 E-N=-4.122261479372D+02  KE= 1.166161428298D+02
  Exact polarizability:   0.000   0.000   0.000   0.000   0.000   0.000
 Approx polarizability: 243.242 -28.608  42.385 -54.230   4.469  50.709
 Calling FoFJK, ICntrl=    100127 FMM=F ISym2X=0 I1Cent= 0 IOpClX= 0 NMat=1 NMatS=1 NMatT=0.
 -------------------------------------------------------------------
 Center     Atomic                   Forces (Hartrees/Bohr)
 Number     Number              X              Y              Z
 -------------------------------------------------------------------
      1        6           0.000001450    0.000000199    0.000001035
      2        6           0.000003381    0.000000874   -0.000001206
      3        6          -0.000002696   -0.000002052    0.000000727
      4        1          -0.000000215   -0.000000986    0.000000364
      5        1          -0.000000271   -0.000000922    0.000000625
      6        1          -0.000002715    0.000003446   -0.000000394
      7        1           0.000002535   -0.000000474   -0.000001965
      8        1          -0.000001741   -0.000000369    0.000001005
      9        1           0.000000272    0.000000284   -0.000000190
 -------------------------------------------------------------------
 Cartesian Forces:  Max     0.000003446 RMS     0.000001559
 IRC-IRC-IRC-IRC-IRC-IRC-IRC-IRC-IRC-IRC-IRC-IRC-IRC-IRC-IRC-IRC-IRC-IRC
          ******** Start new reaction path calculation ********
 Supplied step size of   0.1000 bohr.
    Integration on MW PES will use step size of   0.1084 sqrt(amu)*bohr.
 Point Number:   0          Path Number:   1
 Calculating another point on the path.
 IRC-IRC-IRC-IRC-IRC-IRC-IRC-IRC-IRC-IRC-IRC-IRC-IRC-IRC-IRC-IRC-IRC-IRC
                          Input orientation:                          
 ---------------------------------------------------------------------
 Center     Atomic      Atomic             Coordinates (Angstroms)
 Number     Number       Type             X           Y           Z
 ---------------------------------------------------------------------
      1          6           0       -1.241858    0.345157    0.121647
      2          6           0        0.040480   -0.392161    0.312098
      3          6           0        1.214710    0.074095   -0.372752
      4          1           0        0.200306   -0.828445    1.306387
      5          1           0       -2.146951   -0.240008   -0.038580
      6          1           0       -1.212227    1.303758   -0.394282
      7          1           0       -0.278099   -1.243087   -0.349897
      8          1           0        1.113528    0.463079   -1.380478
      9          1           0        2.164712    0.222131    0.130603
 ---------------------------------------------------------------------
                    Distance matrix (angstroms):
                    1          2          3          4          5
     1  C    0.000000
     2  C    1.491408   0.000000
     3  C    2.520442   1.437091   0.000000
     4  H    2.204719   1.097496   2.159421   0.000000
     5  H    1.089625   2.220581   3.392800   2.768539   0.000000
     6  H    1.089026   2.223598   2.720763   3.071451   1.839415
     7  H    1.916691   1.124191   1.990972   1.773154   2.143756
     8  H    2.796092   2.178917   1.084923   3.117892   3.595239
     9  H    3.408803   2.218707   1.085259   2.518942   4.339658
                    6          7          8          9
     6  H    0.000000
     7  H    2.713113   0.000000
     8  H    2.662416   2.430993   0.000000
     9  H    3.584570   2.888784   1.856451   0.000000
 Symmetry turned off by external request.
 Stoichiometry    C3H6
 Framework group  C1[X(C3H6)]
 Deg. of freedom    21
 Full point group                 C1      NOp   1
 Rotational constants (GHZ):          38.9081947           9.5860942           8.3740775
 Standard basis: 6-31G(d,p) (6D, 7F)
    75 basis functions,   126 primitive gaussians,    75 cartesian basis functions
    12 alpha electrons       12 beta electrons
       nuclear repulsion energy        70.1369635706 Hartrees.
 NAtoms=    9 NActive=    9 NUniq=    9 SFac= 1.00D+00 NAtFMM=   60 NAOKFM=F Big=F
 Integral buffers will be    131072 words long.
 Raffenetti 2 integral format.
 Two-electron integral symmetry is turned off.
 One-electron integrals computed using PRISM.
 NBasis=    75 RedAO= T EigKep=  5.00D-03  NBF=    75
 NBsUse=    75 1.00D-06 EigRej= -1.00D+00 NBFU=    75
 Initial guess from the checkpoint file:  "/scratch/brown/zhao922/pyGSM/new-benchmarking/R1-3/IRC-folder/Gau-81717.chk"
 B after Tr=     2.492612    0.073261   -2.643632
         Rot=    1.000000    0.000488    0.000131   -0.000230 Ang=   0.06 deg.
 ExpMin= 1.61D-01 ExpMax= 3.05D+03 ExpMxC= 4.57D+02 IAcc=3 IRadAn=         5 AccDes= 0.00D+00
 Harris functional with IExCor=  402 and IRadAn=       5 diagonalized for initial guess.
 HarFok:  IExCor=  402 AccDes= 0.00D+00 IRadAn=         5 IDoV= 1 UseB2=F ITyADJ=14
 ICtDFT=  3500011 ScaDFX=  1.000000  1.000000  1.000000  1.000000
 FoFCou: FMM=F IPFlag=           0 FMFlag=      100000 FMFlg1=           0
         NFxFlg=           0 DoJE=T BraDBF=F KetDBF=T FulRan=T
         wScrn=  0.000000 ICntrl=       500 IOpCl=  0 I1Cent=   200000004 NGrid=           0
         NMat0=    1 NMatS0=      1 NMatT0=    0 NMatD0=    1 NMtDS0=    0 NMtDT0=    0
 Symmetry not used in FoFCou.
 Keep R1 ints in memory in canonical form, NReq=25608079.
 Requested convergence on RMS density matrix=1.00D-08 within 128 cycles.
 Requested convergence on MAX density matrix=1.00D-06.
 Requested convergence on             energy=1.00D-06.
 No special actions if energy rises.
 Integral accuracy reduced to 1.0D-05 until final iterations.
 Initial convergence to 1.0D-05 achieved.  Increase integral accuracy.
 SCF Done:  E(RB3LYP) =  -117.773274744     A.U. after   11 cycles
            NFock= 11  Conv=0.84D-08     -V/T= 2.0099
 DoSCS=F DFT=T ScalE2(SS,OS)=  1.000000  1.000000
 Range of M.O.s used for correlation:     1    75
 NBasis=    75 NAE=    12 NBE=    12 NFC=     0 NFV=     0
 NROrb=     75 NOA=    12 NOB=    12 NVA=    63 NVB=    63

 **** Warning!!: The smallest alpha delta epsilon is  0.83850094D-01

 Symmetrizing basis deriv contribution to polar:
 IMax=3 JMax=2 DiffMx= 0.00D+00
 G2DrvN: will do    10 centers at a time, making    1 passes.
 Calling FoFCou, ICntrl=  3107 FMM=F I1Cent=   0 AccDes= 0.00D+00.
 End of G2Drv F.D. properties file   721 does not exist.
 End of G2Drv F.D. properties file   722 does not exist.
 End of G2Drv F.D. properties file   788 does not exist.
          IDoAtm=111111111
          Differentiating once with respect to nuclear coordinates.
 Keep R1 ints in memory in canonical form, NReq=25532417.
          There are    30 degrees of freedom in the 1st order CPHF.  IDoFFX=6 NUNeed=     0.
     24 vectors produced by pass  0 Test12= 2.52D-15 3.33D-09 XBig12= 1.54D-01 2.10D-01.
 AX will form    24 AO Fock derivatives at one time.
     24 vectors produced by pass  1 Test12= 2.52D-15 3.33D-09 XBig12= 5.31D-02 6.28D-02.
     24 vectors produced by pass  2 Test12= 2.52D-15 3.33D-09 XBig12= 2.76D-04 4.76D-03.
     24 vectors produced by pass  3 Test12= 2.52D-15 3.33D-09 XBig12= 6.53D-07 1.25D-04.
     24 vectors produced by pass  4 Test12= 2.52D-15 3.33D-09 XBig12= 6.45D-10 3.79D-06.
     10 vectors produced by pass  5 Test12= 2.52D-15 3.33D-09 XBig12= 3.06D-13 9.64D-08.
      1 vectors produced by pass  6 Test12= 2.52D-15 3.33D-09 XBig12= 2.06D-16 3.39D-09.
 InvSVY:  IOpt=1 It=  1 EMax= 1.55D-15
 Solved reduced A of dimension   131 with    24 vectors.
 End of Minotr F.D. properties file   721 does not exist.
 End of Minotr F.D. properties file   722 does not exist.
 End of Minotr F.D. properties file   788 does not exist.
 Calling FoFJK, ICntrl=    100127 FMM=F ISym2X=0 I1Cent= 0 IOpClX= 0 NMat=1 NMatS=1 NMatT=0.
 -------------------------------------------------------------------
 Center     Atomic                   Forces (Hartrees/Bohr)
 Number     Number              X              Y              Z
 -------------------------------------------------------------------
      1        6           0.000302317    0.000379421   -0.000195355
      2        6          -0.000207728   -0.001069490    0.000074117
      3        6          -0.000290786    0.000287153   -0.000204422
      4        1           0.000036317    0.000172766    0.000035138
      5        1           0.000192460    0.000199331   -0.000364740
      6        1           0.000097955    0.000040605    0.000443831
      7        1           0.000131810   -0.000187247    0.000292459
      8        1          -0.000028609   -0.000154015   -0.000044017
      9        1          -0.000233737    0.000331476   -0.000037010
 -------------------------------------------------------------------
 Cartesian Forces:  Max     0.001069490 RMS     0.000301572
 IRC-IRC-IRC-IRC-IRC-IRC-IRC-IRC-IRC-IRC-IRC-IRC-IRC-IRC-IRC-IRC-IRC-IRC
 Pt  1 Step number   1 out of a maximum of 100
 Modified Bulirsch-Stoer Extrapolation Cycles:
    EPS =    0.000010000000000
      PEZero:  N= 2 I= 1 D=  2.82D-04 Err=  3.58D-04
      PEZero:  N= 3 I= 2 D=  2.82D-04 Err=  2.38D-04
      PEZero:  N= 3 I= 1 D=  5.64D-04 Err=  5.96D-08
 Maximum DWI energy   std dev =  0.000000085 at pt     1
 Maximum DWI gradient std dev =  0.083178465 at pt    27
 CORRECTOR INTEGRATION CONVERGENCE:
   Recorrection delta-x convergence threshold:    0.010000
   Delta-x Convergence Met
 Point Number:   1          Path Number:   1
   CHANGE IN THE REACTION COORDINATE =    0.10836
   NET REACTION COORDINATE UP TO THIS POINT =    0.10836
  # OF POINTS ALONG THE PATH =   1
  # OF STEPS =   1

 Calculating another point on the path.
 IRC-IRC-IRC-IRC-IRC-IRC-IRC-IRC-IRC-IRC-IRC-IRC-IRC-IRC-IRC-IRC-IRC-IRC
                          Input orientation:                          
 ---------------------------------------------------------------------
 Center     Atomic      Atomic             Coordinates (Angstroms)
 Number     Number       Type             X           Y           Z
 ---------------------------------------------------------------------
      1          6           0       -1.239671    0.346958    0.121185
      2          6           0        0.039402   -0.397386    0.312472
      3          6           0        1.212576    0.075507   -0.373998
      4          1           0        0.203365   -0.819894    1.312295
      5          1           0       -2.143160   -0.233981   -0.062725
      6          1           0       -1.204522    1.317165   -0.372060
      7          1           0       -0.270412   -1.260201   -0.334854
      8          1           0        1.110563    0.453917   -1.385618
      9          1           0        2.157631    0.244389    0.132621
 ---------------------------------------------------------------------
                    Distance matrix (angstroms):
                    1          2          3          4          5
     1  C    0.000000
     2  C    1.492201   0.000000
     3  C    2.516428   1.439169   0.000000
     4  H    2.205139   1.097745   2.159592   0.000000
     5  H    1.089773   2.220597   3.384323   2.782113   0.000000
     6  H    1.088957   2.226121   2.717367   3.063694   1.839234
     7  H    1.931423   1.122259   1.996222   1.769586   2.152758
     8  H    2.793831   2.180737   1.084885   3.118387   3.579101
     9  H    3.398870   2.220612   1.085502   2.518628   4.331721
                    6          7          8          9
     6  H    0.000000
     7  H    2.741671   0.000000
     8  H    2.670602   2.439138   0.000000
     9  H    3.565056   2.894429   1.856154   0.000000
 Symmetry turned off by external request.
 Stoichiometry    C3H6
 Framework group  C1[X(C3H6)]
 Deg. of freedom    21
 Full point group                 C1      NOp   1
 Rotational constants (GHZ):          38.4685299           9.6103910           8.3916078
 Standard basis: 6-31G(d,p) (6D, 7F)
    75 basis functions,   126 primitive gaussians,    75 cartesian basis functions
    12 alpha electrons       12 beta electrons
       nuclear repulsion energy        70.1098001213 Hartrees.
 NAtoms=    9 NActive=    9 NUniq=    9 SFac= 1.00D+00 NAtFMM=   60 NAOKFM=F Big=F
 Integral buffers will be    131072 words long.
 Raffenetti 2 integral format.
 Two-electron integral symmetry is turned off.
 One-electron integrals computed using PRISM.
 NBasis=    75 RedAO= T EigKep=  5.07D-03  NBF=    75
 NBsUse=    75 1.00D-06 EigRej= -1.00D+00 NBFU=    75
 Initial guess from the checkpoint file:  "/scratch/brown/zhao922/pyGSM/new-benchmarking/R1-3/IRC-folder/Gau-81717.chk"
 B after Tr=     0.000464    0.000963    0.000612
         Rot=    1.000000    0.000436    0.000120   -0.000202 Ang=   0.06 deg.
 ExpMin= 1.61D-01 ExpMax= 3.05D+03 ExpMxC= 4.57D+02 IAcc=3 IRadAn=         5 AccDes= 0.00D+00
 Harris functional with IExCor=  402 and IRadAn=       5 diagonalized for initial guess.
 HarFok:  IExCor=  402 AccDes= 0.00D+00 IRadAn=         5 IDoV= 1 UseB2=F ITyADJ=14
 ICtDFT=  3500011 ScaDFX=  1.000000  1.000000  1.000000  1.000000
 FoFCou: FMM=F IPFlag=           0 FMFlag=      100000 FMFlg1=           0
         NFxFlg=           0 DoJE=T BraDBF=F KetDBF=T FulRan=T
         wScrn=  0.000000 ICntrl=       500 IOpCl=  0 I1Cent=   200000004 NGrid=           0
         NMat0=    1 NMatS0=      1 NMatT0=    0 NMatD0=    1 NMtDS0=    0 NMtDT0=    0
 Symmetry not used in FoFCou.
 Keep R1 ints in memory in canonical form, NReq=25608079.
 Requested convergence on RMS density matrix=1.00D-08 within 128 cycles.
 Requested convergence on MAX density matrix=1.00D-06.
 Requested convergence on             energy=1.00D-06.
 No special actions if energy rises.
 Integral accuracy reduced to 1.0D-05 until final iterations.
 Initial convergence to 1.0D-05 achieved.  Increase integral accuracy.
 SCF Done:  E(RB3LYP) =  -117.773420192     A.U. after   11 cycles
            NFock= 11  Conv=0.81D-08     -V/T= 2.0100
 DoSCS=F DFT=T ScalE2(SS,OS)=  1.000000  1.000000
 Range of M.O.s used for correlation:     1    75
 NBasis=    75 NAE=    12 NBE=    12 NFC=     0 NFV=     0
 NROrb=     75 NOA=    12 NOB=    12 NVA=    63 NVB=    63

 **** Warning!!: The smallest alpha delta epsilon is  0.82955069D-01

 Symmetrizing basis deriv contribution to polar:
 IMax=3 JMax=2 DiffMx= 0.00D+00
 G2DrvN: will do    10 centers at a time, making    1 passes.
 Calling FoFCou, ICntrl=  3107 FMM=F I1Cent=   0 AccDes= 0.00D+00.
 End of G2Drv F.D. properties file   721 does not exist.
 End of G2Drv F.D. properties file   722 does not exist.
 End of G2Drv F.D. properties file   788 does not exist.
          IDoAtm=111111111
          Differentiating once with respect to nuclear coordinates.
 Keep R1 ints in memory in canonical form, NReq=25532417.
          There are    30 degrees of freedom in the 1st order CPHF.  IDoFFX=6 NUNeed=     0.
     24 vectors produced by pass  0 Test12= 2.52D-15 3.33D-09 XBig12= 1.51D-01 2.05D-01.
 AX will form    24 AO Fock derivatives at one time.
     24 vectors produced by pass  1 Test12= 2.52D-15 3.33D-09 XBig12= 6.73D-02 7.62D-02.
     24 vectors produced by pass  2 Test12= 2.52D-15 3.33D-09 XBig12= 3.84D-04 6.03D-03.
     24 vectors produced by pass  3 Test12= 2.52D-15 3.33D-09 XBig12= 9.26D-07 1.41D-04.
     24 vectors produced by pass  4 Test12= 2.52D-15 3.33D-09 XBig12= 8.06D-10 4.86D-06.
     10 vectors produced by pass  5 Test12= 2.52D-15 3.33D-09 XBig12= 3.50D-13 1.02D-07.
      1 vectors produced by pass  6 Test12= 2.52D-15 3.33D-09 XBig12= 2.30D-16 3.55D-09.
 InvSVY:  IOpt=1 It=  1 EMax= 2.00D-15
 Solved reduced A of dimension   131 with    24 vectors.
 End of Minotr F.D. properties file   721 does not exist.
 End of Minotr F.D. properties file   722 does not exist.
 End of Minotr F.D. properties file   788 does not exist.
 Calling FoFJK, ICntrl=    100127 FMM=F ISym2X=0 I1Cent= 0 IOpClX= 0 NMat=1 NMatS=1 NMatT=0.
 -------------------------------------------------------------------
 Center     Atomic                   Forces (Hartrees/Bohr)
 Number     Number              X              Y              Z
 -------------------------------------------------------------------
      1        6           0.000731470    0.000720464   -0.000301931
      2        6          -0.000394730   -0.002041156    0.000189666
      3        6          -0.000712658    0.000559992   -0.000439338
      4        1           0.000086250    0.000303713    0.000124793
      5        1           0.000262991    0.000301437   -0.000744770
      6        1           0.000220994    0.000230158    0.000791972
      7        1           0.000235001   -0.000455821    0.000514028
      8        1          -0.000074884   -0.000298161   -0.000124480
      9        1          -0.000354434    0.000679373   -0.000009939
 -------------------------------------------------------------------
 Cartesian Forces:  Max     0.002041156 RMS     0.000586937
 IRC-IRC-IRC-IRC-IRC-IRC-IRC-IRC-IRC-IRC-IRC-IRC-IRC-IRC-IRC-IRC-IRC-IRC
 Pt  2 Step number   1 out of a maximum of 100
 Modified Bulirsch-Stoer Extrapolation Cycles:
    EPS =    0.000010000000000
      PEZero:  N= 2 I= 1 D=  5.64D-04 Err=  1.17D-05
      PEZero:  N= 3 I= 2 D=  5.64D-04 Err=  7.79D-06
      PEZero:  N= 3 I= 1 D=  1.13D-03 Err=  5.85D-08
 Maximum DWI energy   std dev =  0.000000082 at pt    11
 Maximum DWI gradient std dev =  0.048000368 at pt    23
 CORRECTOR INTEGRATION CONVERGENCE:
   Recorrection delta-x convergence threshold:    0.010000
   Delta-x Convergence Met
 Point Number:   2          Path Number:   1
   CHANGE IN THE REACTION COORDINATE =    0.10833
   NET REACTION COORDINATE UP TO THIS POINT =    0.21669
  # OF POINTS ALONG THE PATH =   2
  # OF STEPS =   1

 Calculating another point on the path.
 IRC-IRC-IRC-IRC-IRC-IRC-IRC-IRC-IRC-IRC-IRC-IRC-IRC-IRC-IRC-IRC-IRC-IRC
                          Input orientation:                          
 ---------------------------------------------------------------------
 Center     Atomic      Atomic             Coordinates (Angstroms)
 Number     Number       Type             X           Y           Z
 ---------------------------------------------------------------------
      1          6           0       -1.237379    0.348699    0.120611
      2          6           0        0.038403   -0.402638    0.312972
      3          6           0        1.210330    0.076943   -0.375245
      4          1           0        0.206502   -0.811269    1.318095
      5          1           0       -2.138915   -0.227496   -0.087077
      6          1           0       -1.196845    1.330011   -0.349508
      7          1           0       -0.263686   -1.276510   -0.319870
      8          1           0        1.107702    0.444702   -1.390683
      9          1           0        2.150050    0.266659    0.134422
 ---------------------------------------------------------------------
                    Distance matrix (angstroms):
                    1          2          3          4          5
     1  C    0.000000
     2  C    1.493028   0.000000
     3  C    2.512171   1.441198   0.000000
     4  H    2.205513   1.097957   2.159628   0.000000
     5  H    1.089909   2.220682   3.375376   2.795760   0.000000
     6  H    1.088865   2.228630   2.713915   3.055382   1.839074
     7  H    1.945098   1.120446   2.001905   1.766481   2.161274
     8  H    2.791528   2.182619   1.084847   3.118830   3.562549
     9  H    3.388450   2.222361   1.085737   2.518014   4.323016
                    6          7          8          9
     6  H    0.000000
     7  H    2.768685   0.000000
     8  H    2.679320   2.447430   0.000000
     9  H    3.544941   2.900667   1.855837   0.000000
 Symmetry turned off by external request.
 Stoichiometry    C3H6
 Framework group  C1[X(C3H6)]
 Deg. of freedom    21
 Full point group                 C1      NOp   1
 Rotational constants (GHZ):          38.0314829           9.6365000           8.4103050
 Standard basis: 6-31G(d,p) (6D, 7F)
    75 basis functions,   126 primitive gaussians,    75 cartesian basis functions
    12 alpha electrons       12 beta electrons
       nuclear repulsion energy        70.0850143156 Hartrees.
 NAtoms=    9 NActive=    9 NUniq=    9 SFac= 1.00D+00 NAtFMM=   60 NAOKFM=F Big=F
 Integral buffers will be    131072 words long.
 Raffenetti 2 integral format.
 Two-electron integral symmetry is turned off.
 One-electron integrals computed using PRISM.
 NBasis=    75 RedAO= T EigKep=  5.15D-03  NBF=    75
 NBsUse=    75 1.00D-06 EigRej= -1.00D+00 NBFU=    75
 Initial guess from the checkpoint file:  "/scratch/brown/zhao922/pyGSM/new-benchmarking/R1-3/IRC-folder/Gau-81717.chk"
 B after Tr=     0.000432    0.000990    0.000606
         Rot=    1.000000    0.000421    0.000118   -0.000189 Ang=   0.05 deg.
 ExpMin= 1.61D-01 ExpMax= 3.05D+03 ExpMxC= 4.57D+02 IAcc=3 IRadAn=         5 AccDes= 0.00D+00
 Harris functional with IExCor=  402 and IRadAn=       5 diagonalized for initial guess.
 HarFok:  IExCor=  402 AccDes= 0.00D+00 IRadAn=         5 IDoV= 1 UseB2=F ITyADJ=14
 ICtDFT=  3500011 ScaDFX=  1.000000  1.000000  1.000000  1.000000
 FoFCou: FMM=F IPFlag=           0 FMFlag=      100000 FMFlg1=           0
         NFxFlg=           0 DoJE=T BraDBF=F KetDBF=T FulRan=T
         wScrn=  0.000000 ICntrl=       500 IOpCl=  0 I1Cent=   200000004 NGrid=           0
         NMat0=    1 NMatS0=      1 NMatT0=    0 NMatD0=    1 NMtDS0=    0 NMtDT0=    0
 Symmetry not used in FoFCou.
 Keep R1 ints in memory in canonical form, NReq=25608079.
 Requested convergence on RMS density matrix=1.00D-08 within 128 cycles.
 Requested convergence on MAX density matrix=1.00D-06.
 Requested convergence on             energy=1.00D-06.
 No special actions if energy rises.
 Integral accuracy reduced to 1.0D-05 until final iterations.
 Initial convergence to 1.0D-05 achieved.  Increase integral accuracy.
 SCF Done:  E(RB3LYP) =  -117.773662447     A.U. after   12 cycles
            NFock= 12  Conv=0.31D-08     -V/T= 2.0100
 DoSCS=F DFT=T ScalE2(SS,OS)=  1.000000  1.000000
 Range of M.O.s used for correlation:     1    75
 NBasis=    75 NAE=    12 NBE=    12 NFC=     0 NFV=     0
 NROrb=     75 NOA=    12 NOB=    12 NVA=    63 NVB=    63

 **** Warning!!: The smallest alpha delta epsilon is  0.82284386D-01

 Symmetrizing basis deriv contribution to polar:
 IMax=3 JMax=2 DiffMx= 0.00D+00
 G2DrvN: will do    10 centers at a time, making    1 passes.
 Calling FoFCou, ICntrl=  3107 FMM=F I1Cent=   0 AccDes= 0.00D+00.
 End of G2Drv F.D. properties file   721 does not exist.
 End of G2Drv F.D. properties file   722 does not exist.
 End of G2Drv F.D. properties file   788 does not exist.
          IDoAtm=111111111
          Differentiating once with respect to nuclear coordinates.
 Keep R1 ints in memory in canonical form, NReq=25532417.
          There are    30 degrees of freedom in the 1st order CPHF.  IDoFFX=6 NUNeed=     0.
     24 vectors produced by pass  0 Test12= 2.52D-15 3.33D-09 XBig12= 1.48D-01 2.00D-01.
 AX will form    24 AO Fock derivatives at one time.
     24 vectors produced by pass  1 Test12= 2.52D-15 3.33D-09 XBig12= 7.83D-02 8.54D-02.
     24 vectors produced by pass  2 Test12= 2.52D-15 3.33D-09 XBig12= 5.29D-04 7.60D-03.
     24 vectors produced by pass  3 Test12= 2.52D-15 3.33D-09 XBig12= 1.24D-06 1.87D-04.
     24 vectors produced by pass  4 Test12= 2.52D-15 3.33D-09 XBig12= 9.77D-10 5.56D-06.
     10 vectors produced by pass  5 Test12= 2.52D-15 3.33D-09 XBig12= 4.05D-13 1.02D-07.
      1 vectors produced by pass  6 Test12= 2.52D-15 3.33D-09 XBig12= 2.45D-16 3.47D-09.
 InvSVY:  IOpt=1 It=  1 EMax= 2.11D-15
 Solved reduced A of dimension   131 with    24 vectors.
 End of Minotr F.D. properties file   721 does not exist.
 End of Minotr F.D. properties file   722 does not exist.
 End of Minotr F.D. properties file   788 does not exist.
 Calling FoFJK, ICntrl=    100127 FMM=F ISym2X=0 I1Cent= 0 IOpClX= 0 NMat=1 NMatS=1 NMatT=0.
 -------------------------------------------------------------------
 Center     Atomic                   Forces (Hartrees/Bohr)
 Number     Number              X              Y              Z
 -------------------------------------------------------------------
      1        6           0.001217541    0.001024588   -0.000459238
      2        6          -0.000537581   -0.003035562    0.000352812
      3        6          -0.001198611    0.000846189   -0.000672952
      4        1           0.000138736    0.000436391    0.000212875
      5        1           0.000344803    0.000416425   -0.001131055
      6        1           0.000341552    0.000414167    0.001150441
      7        1           0.000302617   -0.000686639    0.000737782
      8        1          -0.000120436   -0.000444752   -0.000202266
      9        1          -0.000488619    0.001029193    0.000011600
 -------------------------------------------------------------------
 Cartesian Forces:  Max     0.003035562 RMS     0.000883465
 IRC-IRC-IRC-IRC-IRC-IRC-IRC-IRC-IRC-IRC-IRC-IRC-IRC-IRC-IRC-IRC-IRC-IRC
 Pt  3 Step number   1 out of a maximum of 100
 Modified Bulirsch-Stoer Extrapolation Cycles:
    EPS =    0.000010000000000
      PEZero:  N= 2 I= 1 D=  5.64D-04 Err=  1.10D-05
      PEZero:  N= 3 I= 2 D=  5.64D-04 Err=  7.31D-06
      PEZero:  N= 3 I= 1 D=  1.13D-03 Err=  4.43D-08
 Maximum DWI energy   std dev =  0.000000075 at pt    11
 Maximum DWI gradient std dev =  0.027033873 at pt    24
 CORRECTOR INTEGRATION CONVERGENCE:
   Recorrection delta-x convergence threshold:    0.010000
   Delta-x Convergence Met
 Point Number:   3          Path Number:   1
   CHANGE IN THE REACTION COORDINATE =    0.10834
   NET REACTION COORDINATE UP TO THIS POINT =    0.32502
  # OF POINTS ALONG THE PATH =   3
  # OF STEPS =   1

 Calculating another point on the path.
 IRC-IRC-IRC-IRC-IRC-IRC-IRC-IRC-IRC-IRC-IRC-IRC-IRC-IRC-IRC-IRC-IRC-IRC
                          Input orientation:                          
 ---------------------------------------------------------------------
 Center     Atomic      Atomic             Coordinates (Angstroms)
 Number     Number       Type             X           Y           Z
 ---------------------------------------------------------------------
      1          6           0       -1.234964    0.350381    0.119920
      2          6           0        0.037492   -0.407922    0.313612
      3          6           0        1.207950    0.078413   -0.376489
      4          1           0        0.209705   -0.802646    1.323772
      5          1           0       -2.134190   -0.220562   -0.111593
      6          1           0       -1.189217    1.342294   -0.326647
      7          1           0       -0.257905   -1.291969   -0.305044
      8          1           0        1.104891    0.435427   -1.395669
      9          1           0        2.141961    0.288947    0.135982
 ---------------------------------------------------------------------
                    Distance matrix (angstroms):
                    1          2          3          4          5
     1  C    0.000000
     2  C    1.493882   0.000000
     3  C    2.507631   1.443168   0.000000
     4  H    2.205856   1.098129   2.159547   0.000000
     5  H    1.090038   2.220834   3.365925   2.809438   0.000000
     6  H    1.088764   2.231144   2.710403   3.046577   1.838951
     7  H    1.957691   1.118720   2.007929   1.763842   2.169282
     8  H    2.789115   2.184542   1.084808   3.119221   3.545535
     9  H    3.377521   2.223953   1.085969   2.517147   4.313509
                    6          7          8          9
     6  H    0.000000
     7  H    2.794128   0.000000
     8  H    2.688521   2.455722   0.000000
     9  H    3.524246   2.907431   1.855513   0.000000
 Symmetry turned off by external request.
 Stoichiometry    C3H6
 Framework group  C1[X(C3H6)]
 Deg. of freedom    21
 Full point group                 C1      NOp   1
 Rotational constants (GHZ):          37.5967532           9.6647132           8.4303584
 Standard basis: 6-31G(d,p) (6D, 7F)
    75 basis functions,   126 primitive gaussians,    75 cartesian basis functions
    12 alpha electrons       12 beta electrons
       nuclear repulsion energy        70.0630029156 Hartrees.
 NAtoms=    9 NActive=    9 NUniq=    9 SFac= 1.00D+00 NAtFMM=   60 NAOKFM=F Big=F
 Integral buffers will be    131072 words long.
 Raffenetti 2 integral format.
 Two-electron integral symmetry is turned off.
 One-electron integrals computed using PRISM.
 NBasis=    75 RedAO= T EigKep=  5.23D-03  NBF=    75
 NBsUse=    75 1.00D-06 EigRej= -1.00D+00 NBFU=    75
 Initial guess from the checkpoint file:  "/scratch/brown/zhao922/pyGSM/new-benchmarking/R1-3/IRC-folder/Gau-81717.chk"
 B after Tr=     0.000398    0.001015    0.000595
         Rot=    1.000000    0.000398    0.000115   -0.000176 Ang=   0.05 deg.
 ExpMin= 1.61D-01 ExpMax= 3.05D+03 ExpMxC= 4.57D+02 IAcc=3 IRadAn=         5 AccDes= 0.00D+00
 Harris functional with IExCor=  402 and IRadAn=       5 diagonalized for initial guess.
 HarFok:  IExCor=  402 AccDes= 0.00D+00 IRadAn=         5 IDoV= 1 UseB2=F ITyADJ=14
 ICtDFT=  3500011 ScaDFX=  1.000000  1.000000  1.000000  1.000000
 FoFCou: FMM=F IPFlag=           0 FMFlag=      100000 FMFlg1=           0
         NFxFlg=           0 DoJE=T BraDBF=F KetDBF=T FulRan=T
         wScrn=  0.000000 ICntrl=       500 IOpCl=  0 I1Cent=   200000004 NGrid=           0
         NMat0=    1 NMatS0=      1 NMatT0=    0 NMatD0=    1 NMtDS0=    0 NMtDT0=    0
 Symmetry not used in FoFCou.
 Keep R1 ints in memory in canonical form, NReq=25608079.
 Requested convergence on RMS density matrix=1.00D-08 within 128 cycles.
 Requested convergence on MAX density matrix=1.00D-06.
 Requested convergence on             energy=1.00D-06.
 No special actions if energy rises.
 Integral accuracy reduced to 1.0D-05 until final iterations.
 Initial convergence to 1.0D-05 achieved.  Increase integral accuracy.
 SCF Done:  E(RB3LYP) =  -117.774001879     A.U. after   12 cycles
            NFock= 12  Conv=0.31D-08     -V/T= 2.0100
 DoSCS=F DFT=T ScalE2(SS,OS)=  1.000000  1.000000
 Range of M.O.s used for correlation:     1    75
 NBasis=    75 NAE=    12 NBE=    12 NFC=     0 NFV=     0
 NROrb=     75 NOA=    12 NOB=    12 NVA=    63 NVB=    63

 **** Warning!!: The smallest alpha delta epsilon is  0.81833500D-01

 Symmetrizing basis deriv contribution to polar:
 IMax=3 JMax=2 DiffMx= 0.00D+00
 G2DrvN: will do    10 centers at a time, making    1 passes.
 Calling FoFCou, ICntrl=  3107 FMM=F I1Cent=   0 AccDes= 0.00D+00.
 End of G2Drv F.D. properties file   721 does not exist.
 End of G2Drv F.D. properties file   722 does not exist.
 End of G2Drv F.D. properties file   788 does not exist.
          IDoAtm=111111111
          Differentiating once with respect to nuclear coordinates.
 Keep R1 ints in memory in canonical form, NReq=25532417.
          There are    30 degrees of freedom in the 1st order CPHF.  IDoFFX=6 NUNeed=     0.
     24 vectors produced by pass  0 Test12= 2.52D-15 3.33D-09 XBig12= 1.45D-01 2.00D-01.
 AX will form    24 AO Fock derivatives at one time.
     24 vectors produced by pass  1 Test12= 2.52D-15 3.33D-09 XBig12= 7.93D-02 8.37D-02.
     24 vectors produced by pass  2 Test12= 2.52D-15 3.33D-09 XBig12= 6.68D-04 8.87D-03.
     24 vectors produced by pass  3 Test12= 2.52D-15 3.33D-09 XBig12= 1.40D-06 2.15D-04.
     24 vectors produced by pass  4 Test12= 2.52D-15 3.33D-09 XBig12= 1.09D-09 6.42D-06.
     10 vectors produced by pass  5 Test12= 2.52D-15 3.33D-09 XBig12= 4.62D-13 9.14D-08.
 InvSVY:  IOpt=1 It=  1 EMax= 1.33D-15
 Solved reduced A of dimension   130 with    24 vectors.
 End of Minotr F.D. properties file   721 does not exist.
 End of Minotr F.D. properties file   722 does not exist.
 End of Minotr F.D. properties file   788 does not exist.
 Calling FoFJK, ICntrl=    100127 FMM=F ISym2X=0 I1Cent= 0 IOpClX= 0 NMat=1 NMatS=1 NMatT=0.
 -------------------------------------------------------------------
 Center     Atomic                   Forces (Hartrees/Bohr)
 Number     Number              X              Y              Z
 -------------------------------------------------------------------
      1        6           0.001756722    0.001307520   -0.000658397
      2        6          -0.000656140   -0.004039015    0.000567765
      3        6          -0.001738012    0.001146258   -0.000907410
      4        1           0.000192835    0.000568269    0.000297560
      5        1           0.000442448    0.000545608   -0.001522216
      6        1           0.000458760    0.000580692    0.001519584
      7        1           0.000345805   -0.000894172    0.000955445
      8        1          -0.000163216   -0.000594136   -0.000277896
      9        1          -0.000639201    0.001378977    0.000025565
 -------------------------------------------------------------------
 Cartesian Forces:  Max     0.004039015 RMS     0.001188983
 IRC-IRC-IRC-IRC-IRC-IRC-IRC-IRC-IRC-IRC-IRC-IRC-IRC-IRC-IRC-IRC-IRC-IRC
 Pt  4 Step number   1 out of a maximum of 100
 Modified Bulirsch-Stoer Extrapolation Cycles:
    EPS =    0.000010000000000
      PEZero:  N= 2 I= 1 D=  5.64D-04 Err=  9.88D-06
 Maximum DWI energy   std dev =  0.000000074 at pt    15
 Maximum DWI gradient std dev =  0.018820932 at pt    16
 CORRECTOR INTEGRATION CONVERGENCE:
   Recorrection delta-x convergence threshold:    0.010000
   Delta-x Convergence Met
 Point Number:   4          Path Number:   1
   CHANGE IN THE REACTION COORDINATE =    0.10834
   NET REACTION COORDINATE UP TO THIS POINT =    0.43337
  # OF POINTS ALONG THE PATH =   4
  # OF STEPS =   1

 Calculating another point on the path.
 IRC-IRC-IRC-IRC-IRC-IRC-IRC-IRC-IRC-IRC-IRC-IRC-IRC-IRC-IRC-IRC-IRC-IRC
                          Input orientation:                          
 ---------------------------------------------------------------------
 Center     Atomic      Atomic             Coordinates (Angstroms)
 Number     Number       Type             X           Y           Z
 ---------------------------------------------------------------------
      1          6           0       -1.232420    0.352008    0.119119
      2          6           0        0.036652   -0.413229    0.314391
      3          6           0        1.205435    0.079916   -0.377733
      4          1           0        0.212958   -0.794060    1.329311
      5          1           0       -2.128970   -0.213191   -0.136221
      6          1           0       -1.181675    1.353993   -0.303516
      7          1           0       -0.252931   -1.306639   -0.290431
      8          1           0        1.102143    0.426086   -1.400580
      9          1           0        2.133371    0.311209    0.137302
 ---------------------------------------------------------------------
                    Distance matrix (angstroms):
                    1          2          3          4          5
     1  C    0.000000
     2  C    1.494745   0.000000
     3  C    2.502806   1.445089   0.000000
     4  H    2.206163   1.098261   2.159362   0.000000
     5  H    1.090160   2.221032   3.355964   2.823086   0.000000
     6  H    1.088654   2.233652   2.706857   3.037310   1.838864
     7  H    1.969325   1.117072   2.014197   1.761634   2.176908
     8  H    2.786603   2.186514   1.084767   3.119569   3.528082
     9  H    3.366087   2.225399   1.086195   2.516047   4.303179
                    6          7          8          9
     6  H    0.000000
     7  H    2.818101   0.000000
     8  H    2.698218   2.463938   0.000000
     9  H    3.503033   2.914588   1.855184   0.000000
 Symmetry turned off by external request.
 Stoichiometry    C3H6
 Framework group  C1[X(C3H6)]
 Deg. of freedom    21
 Full point group                 C1      NOp   1
 Rotational constants (GHZ):          37.1648168           9.6950552           8.4517881
 Standard basis: 6-31G(d,p) (6D, 7F)
    75 basis functions,   126 primitive gaussians,    75 cartesian basis functions
    12 alpha electrons       12 beta electrons
       nuclear repulsion energy        70.0437956169 Hartrees.
 NAtoms=    9 NActive=    9 NUniq=    9 SFac= 1.00D+00 NAtFMM=   60 NAOKFM=F Big=F
 Integral buffers will be    131072 words long.
 Raffenetti 2 integral format.
 Two-electron integral symmetry is turned off.
 One-electron integrals computed using PRISM.
 NBasis=    75 RedAO= T EigKep=  5.31D-03  NBF=    75
 NBsUse=    75 1.00D-06 EigRej= -1.00D+00 NBFU=    75
 Initial guess from the checkpoint file:  "/scratch/brown/zhao922/pyGSM/new-benchmarking/R1-3/IRC-folder/Gau-81717.chk"
 B after Tr=     0.000368    0.001033    0.000582
         Rot=    1.000000    0.000375    0.000111   -0.000165 Ang=   0.05 deg.
 ExpMin= 1.61D-01 ExpMax= 3.05D+03 ExpMxC= 4.57D+02 IAcc=3 IRadAn=         5 AccDes= 0.00D+00
 Harris functional with IExCor=  402 and IRadAn=       5 diagonalized for initial guess.
 HarFok:  IExCor=  402 AccDes= 0.00D+00 IRadAn=         5 IDoV= 1 UseB2=F ITyADJ=14
 ICtDFT=  3500011 ScaDFX=  1.000000  1.000000  1.000000  1.000000
 FoFCou: FMM=F IPFlag=           0 FMFlag=      100000 FMFlg1=           0
         NFxFlg=           0 DoJE=T BraDBF=F KetDBF=T FulRan=T
         wScrn=  0.000000 ICntrl=       500 IOpCl=  0 I1Cent=   200000004 NGrid=           0
         NMat0=    1 NMatS0=      1 NMatT0=    0 NMatD0=    1 NMtDS0=    0 NMtDT0=    0
 Symmetry not used in FoFCou.
 Keep R1 ints in memory in canonical form, NReq=25608079.
 Requested convergence on RMS density matrix=1.00D-08 within 128 cycles.
 Requested convergence on MAX density matrix=1.00D-06.
 Requested convergence on             energy=1.00D-06.
 No special actions if energy rises.
 Integral accuracy reduced to 1.0D-05 until final iterations.
 Initial convergence to 1.0D-05 achieved.  Increase integral accuracy.
 SCF Done:  E(RB3LYP) =  -117.774438907     A.U. after   12 cycles
            NFock= 12  Conv=0.30D-08     -V/T= 2.0100
 DoSCS=F DFT=T ScalE2(SS,OS)=  1.000000  1.000000
 Range of M.O.s used for correlation:     1    75
 NBasis=    75 NAE=    12 NBE=    12 NFC=     0 NFV=     0
 NROrb=     75 NOA=    12 NOB=    12 NVA=    63 NVB=    63

 **** Warning!!: The smallest alpha delta epsilon is  0.81591921D-01

 Symmetrizing basis deriv contribution to polar:
 IMax=3 JMax=2 DiffMx= 0.00D+00
 G2DrvN: will do    10 centers at a time, making    1 passes.
 Calling FoFCou, ICntrl=  3107 FMM=F I1Cent=   0 AccDes= 0.00D+00.
 End of G2Drv F.D. properties file   721 does not exist.
 End of G2Drv F.D. properties file   722 does not exist.
 End of G2Drv F.D. properties file   788 does not exist.
          IDoAtm=111111111
          Differentiating once with respect to nuclear coordinates.
 Keep R1 ints in memory in canonical form, NReq=25532417.
          There are    30 degrees of freedom in the 1st order CPHF.  IDoFFX=6 NUNeed=     0.
     24 vectors produced by pass  0 Test12= 2.52D-15 3.33D-09 XBig12= 1.42D-01 2.04D-01.
 AX will form    24 AO Fock derivatives at one time.
     24 vectors produced by pass  1 Test12= 2.52D-15 3.33D-09 XBig12= 6.97D-02 7.16D-02.
     24 vectors produced by pass  2 Test12= 2.52D-15 3.33D-09 XBig12= 6.90D-04 8.68D-03.
     24 vectors produced by pass  3 Test12= 2.52D-15 3.33D-09 XBig12= 1.25D-06 2.01D-04.
     24 vectors produced by pass  4 Test12= 2.52D-15 3.33D-09 XBig12= 1.07D-09 6.87D-06.
     10 vectors produced by pass  5 Test12= 2.52D-15 3.33D-09 XBig12= 4.90D-13 9.26D-08.
 InvSVY:  IOpt=1 It=  1 EMax= 2.33D-15
 Solved reduced A of dimension   130 with    24 vectors.
 End of Minotr F.D. properties file   721 does not exist.
 End of Minotr F.D. properties file   722 does not exist.
 End of Minotr F.D. properties file   788 does not exist.
 Calling FoFJK, ICntrl=    100127 FMM=F ISym2X=0 I1Cent= 0 IOpClX= 0 NMat=1 NMatS=1 NMatT=0.
 -------------------------------------------------------------------
 Center     Atomic                   Forces (Hartrees/Bohr)
 Number     Number              X              Y              Z
 -------------------------------------------------------------------
      1        6           0.002349978    0.001572630   -0.000895798
      2        6          -0.000757872   -0.005048082    0.000833273
      3        6          -0.002330363    0.001459652   -0.001142474
      4        1           0.000247442    0.000697826    0.000377904
      5        1           0.000556584    0.000688509   -0.001915654
      6        1           0.000571331    0.000728897    0.001896996
      7        1           0.000371337   -0.001080056    0.001165334
      8        1          -0.000203002   -0.000746704   -0.000351464
      9        1          -0.000805435    0.001727327    0.000031882
 -------------------------------------------------------------------
 Cartesian Forces:  Max     0.005048082 RMS     0.001503518
 IRC-IRC-IRC-IRC-IRC-IRC-IRC-IRC-IRC-IRC-IRC-IRC-IRC-IRC-IRC-IRC-IRC-IRC
 Pt  5 Step number   1 out of a maximum of 100
 Modified Bulirsch-Stoer Extrapolation Cycles:
    EPS =    0.000010000000000
      PEZero:  N= 2 I= 1 D=  5.64D-04 Err=  8.70D-06
 Maximum DWI energy   std dev =  0.000000077 at pt    15
 Maximum DWI gradient std dev =  0.014411148 at pt    16
 CORRECTOR INTEGRATION CONVERGENCE:
   Recorrection delta-x convergence threshold:    0.010000
   Delta-x Convergence Met
 Point Number:   5          Path Number:   1
   CHANGE IN THE REACTION COORDINATE =    0.10834
   NET REACTION COORDINATE UP TO THIS POINT =    0.54171
  # OF POINTS ALONG THE PATH =   5
  # OF STEPS =   1

 Calculating another point on the path.
 IRC-IRC-IRC-IRC-IRC-IRC-IRC-IRC-IRC-IRC-IRC-IRC-IRC-IRC-IRC-IRC-IRC-IRC
                          Input orientation:                          
 ---------------------------------------------------------------------
 Center     Atomic      Atomic             Coordinates (Angstroms)
 Number     Number       Type             X           Y           Z
 ---------------------------------------------------------------------
      1          6           0       -1.229745    0.353585    0.118213
      2          6           0        0.035873   -0.418549    0.315308
      3          6           0        1.202787    0.081453   -0.378975
      4          1           0        0.216239   -0.785543    1.334702
      5          1           0       -2.123241   -0.205395   -0.160908
      6          1           0       -1.174252    1.365090   -0.280149
      7          1           0       -0.248646   -1.320572   -0.276075
      8          1           0        1.099468    0.416670   -1.405415
      9          1           0        2.124288    0.333413    0.138378
 ---------------------------------------------------------------------
                    Distance matrix (angstroms):
                    1          2          3          4          5
     1  C    0.000000
     2  C    1.495602   0.000000
     3  C    2.497692   1.446969   0.000000
     4  H    2.206429   1.098355   2.159085   0.000000
     5  H    1.090275   2.221258   3.345489   2.836651   0.000000
     6  H    1.088538   2.236144   2.703295   3.027612   1.838809
     7  H    1.980106   1.115495   2.020624   1.759823   2.184260
     8  H    2.784000   2.188541   1.084724   3.119880   3.510216
     9  H    3.354155   2.226708   1.086417   2.514738   4.292014
                    6          7          8          9
     6  H    0.000000
     7  H    2.840694   0.000000
     8  H    2.708418   2.472009   0.000000
     9  H    3.481364   2.922028   1.854854   0.000000
 Symmetry turned off by external request.
 Stoichiometry    C3H6
 Framework group  C1[X(C3H6)]
 Deg. of freedom    21
 Full point group                 C1      NOp   1
 Rotational constants (GHZ):          36.7361169           9.7275542           8.4746104
 Standard basis: 6-31G(d,p) (6D, 7F)
    75 basis functions,   126 primitive gaussians,    75 cartesian basis functions
    12 alpha electrons       12 beta electrons
       nuclear repulsion energy        70.0274216521 Hartrees.
 NAtoms=    9 NActive=    9 NUniq=    9 SFac= 1.00D+00 NAtFMM=   60 NAOKFM=F Big=F
 Integral buffers will be    131072 words long.
 Raffenetti 2 integral format.
 Two-electron integral symmetry is turned off.
 One-electron integrals computed using PRISM.
 NBasis=    75 RedAO= T EigKep=  5.39D-03  NBF=    75
 NBsUse=    75 1.00D-06 EigRej= -1.00D+00 NBFU=    75
 Initial guess from the checkpoint file:  "/scratch/brown/zhao922/pyGSM/new-benchmarking/R1-3/IRC-folder/Gau-81717.chk"
 B after Tr=     0.000342    0.001046    0.000568
         Rot=    1.000000    0.000351    0.000109   -0.000155 Ang=   0.05 deg.
 ExpMin= 1.61D-01 ExpMax= 3.05D+03 ExpMxC= 4.57D+02 IAcc=3 IRadAn=         5 AccDes= 0.00D+00
 Harris functional with IExCor=  402 and IRadAn=       5 diagonalized for initial guess.
 HarFok:  IExCor=  402 AccDes= 0.00D+00 IRadAn=         5 IDoV= 1 UseB2=F ITyADJ=14
 ICtDFT=  3500011 ScaDFX=  1.000000  1.000000  1.000000  1.000000
 FoFCou: FMM=F IPFlag=           0 FMFlag=      100000 FMFlg1=           0
         NFxFlg=           0 DoJE=T BraDBF=F KetDBF=T FulRan=T
         wScrn=  0.000000 ICntrl=       500 IOpCl=  0 I1Cent=   200000004 NGrid=           0
         NMat0=    1 NMatS0=      1 NMatT0=    0 NMatD0=    1 NMtDS0=    0 NMtDT0=    0
 Symmetry not used in FoFCou.
 Keep R1 ints in memory in canonical form, NReq=25608079.
 Requested convergence on RMS density matrix=1.00D-08 within 128 cycles.
 Requested convergence on MAX density matrix=1.00D-06.
 Requested convergence on             energy=1.00D-06.
 No special actions if energy rises.
 Integral accuracy reduced to 1.0D-05 until final iterations.
 Initial convergence to 1.0D-05 achieved.  Increase integral accuracy.
 SCF Done:  E(RB3LYP) =  -117.774973853     A.U. after   12 cycles
            NFock= 12  Conv=0.29D-08     -V/T= 2.0100
 DoSCS=F DFT=T ScalE2(SS,OS)=  1.000000  1.000000
 Range of M.O.s used for correlation:     1    75
 NBasis=    75 NAE=    12 NBE=    12 NFC=     0 NFV=     0
 NROrb=     75 NOA=    12 NOB=    12 NVA=    63 NVB=    63

 **** Warning!!: The smallest alpha delta epsilon is  0.81550882D-01

 Symmetrizing basis deriv contribution to polar:
 IMax=3 JMax=2 DiffMx= 0.00D+00
 G2DrvN: will do    10 centers at a time, making    1 passes.
 Calling FoFCou, ICntrl=  3107 FMM=F I1Cent=   0 AccDes= 0.00D+00.
 End of G2Drv F.D. properties file   721 does not exist.
 End of G2Drv F.D. properties file   722 does not exist.
 End of G2Drv F.D. properties file   788 does not exist.
          IDoAtm=111111111
          Differentiating once with respect to nuclear coordinates.
 Keep R1 ints in memory in canonical form, NReq=25532410.
          There are    30 degrees of freedom in the 1st order CPHF.  IDoFFX=6 NUNeed=     0.
     24 vectors produced by pass  0 Test12= 2.52D-15 3.33D-09 XBig12= 1.38D-01 2.07D-01.
 AX will form    24 AO Fock derivatives at one time.
     24 vectors produced by pass  1 Test12= 2.52D-15 3.33D-09 XBig12= 5.56D-02 5.59D-02.
     24 vectors produced by pass  2 Test12= 2.52D-15 3.33D-09 XBig12= 5.69D-04 7.02D-03.
     24 vectors produced by pass  3 Test12= 2.52D-15 3.33D-09 XBig12= 9.54D-07 1.66D-04.
     24 vectors produced by pass  4 Test12= 2.52D-15 3.33D-09 XBig12= 9.08D-10 5.91D-06.
     11 vectors produced by pass  5 Test12= 2.52D-15 3.33D-09 XBig12= 4.51D-13 9.85D-08.
 InvSVY:  IOpt=1 It=  1 EMax= 1.67D-15
 Solved reduced A of dimension   131 with    24 vectors.
 End of Minotr F.D. properties file   721 does not exist.
 End of Minotr F.D. properties file   722 does not exist.
 End of Minotr F.D. properties file   788 does not exist.
 Calling FoFJK, ICntrl=    100127 FMM=F ISym2X=0 I1Cent= 0 IOpClX= 0 NMat=1 NMatS=1 NMatT=0.
 -------------------------------------------------------------------
 Center     Atomic                   Forces (Hartrees/Bohr)
 Number     Number              X              Y              Z
 -------------------------------------------------------------------
      1        6           0.002998349    0.001822693   -0.001169015
      2        6          -0.000847895   -0.006057346    0.001148172
      3        6          -0.002975192    0.001785970   -0.001377401
      4        1           0.000301591    0.000823233    0.000453357
      5        1           0.000687665    0.000844418   -0.002308443
      6        1           0.000677949    0.000857599    0.002280379
      7        1           0.000383885   -0.001246331    0.001365371
      8        1          -0.000239476   -0.000902700   -0.000422805
      9        1          -0.000986874    0.002072464    0.000030386
 -------------------------------------------------------------------
 Cartesian Forces:  Max     0.006057346 RMS     0.001826922
 IRC-IRC-IRC-IRC-IRC-IRC-IRC-IRC-IRC-IRC-IRC-IRC-IRC-IRC-IRC-IRC-IRC-IRC
 Pt  6 Step number   1 out of a maximum of 100
 Modified Bulirsch-Stoer Extrapolation Cycles:
    EPS =    0.000010000000000
      PEZero:  N= 2 I= 1 D=  5.64D-04 Err=  7.58D-06
 Maximum DWI energy   std dev =  0.000000082 at pt    15
 Maximum DWI gradient std dev =  0.011653663 at pt    16
 CORRECTOR INTEGRATION CONVERGENCE:
   Recorrection delta-x convergence threshold:    0.010000
   Delta-x Convergence Met
 Point Number:   6          Path Number:   1
   CHANGE IN THE REACTION COORDINATE =    0.10835
   NET REACTION COORDINATE UP TO THIS POINT =    0.65006
  # OF POINTS ALONG THE PATH =   6
  # OF STEPS =   1

 Calculating another point on the path.
 IRC-IRC-IRC-IRC-IRC-IRC-IRC-IRC-IRC-IRC-IRC-IRC-IRC-IRC-IRC-IRC-IRC-IRC
                          Input orientation:                          
 ---------------------------------------------------------------------
 Center     Atomic      Atomic             Coordinates (Angstroms)
 Number     Number       Type             X           Y           Z
 ---------------------------------------------------------------------
      1          6           0       -1.226935    0.355116    0.117206
      2          6           0        0.035143   -0.423874    0.316359
      3          6           0        1.200004    0.083024   -0.380215
      4          1           0        0.219530   -0.777127    1.339940
      5          1           0       -2.116994   -0.197185   -0.185608
      6          1           0       -1.166977    1.375574   -0.256582
      7          1           0       -0.244943   -1.333818   -0.262010
      8          1           0        1.096877    0.407171   -1.410176
      9          1           0        2.114722    0.355528    0.139209
 ---------------------------------------------------------------------
                    Distance matrix (angstroms):
                    1          2          3          4          5
     1  C    0.000000
     2  C    1.496438   0.000000
     3  C    2.492287   1.448814   0.000000
     4  H    2.206652   1.098410   2.158731   0.000000
     5  H    1.090384   2.221498   3.334496   2.850083   0.000000
     6  H    1.088415   2.238609   2.699736   3.017516   1.838787
     7  H    1.990128   1.113982   2.027138   1.758375   2.191425
     8  H    2.781314   2.190625   1.084678   3.120165   3.491959
     9  H    3.341730   2.227891   1.086632   2.513248   4.280002
                    6          7          8          9
     6  H    0.000000
     7  H    2.861989   0.000000
     8  H    2.719122   2.479881   0.000000
     9  H    3.459291   2.929657   1.854527   0.000000
 Symmetry turned off by external request.
 Stoichiometry    C3H6
 Framework group  C1[X(C3H6)]
 Deg. of freedom    21
 Full point group                 C1      NOp   1
 Rotational constants (GHZ):          36.3110541           9.7622473           8.4988421
 Standard basis: 6-31G(d,p) (6D, 7F)
    75 basis functions,   126 primitive gaussians,    75 cartesian basis functions
    12 alpha electrons       12 beta electrons
       nuclear repulsion energy        70.0139173340 Hartrees.
 NAtoms=    9 NActive=    9 NUniq=    9 SFac= 1.00D+00 NAtFMM=   60 NAOKFM=F Big=F
 Integral buffers will be    131072 words long.
 Raffenetti 2 integral format.
 Two-electron integral symmetry is turned off.
 One-electron integrals computed using PRISM.
 NBasis=    75 RedAO= T EigKep=  5.47D-03  NBF=    75
 NBsUse=    75 1.00D-06 EigRej= -1.00D+00 NBFU=    75
 Initial guess from the checkpoint file:  "/scratch/brown/zhao922/pyGSM/new-benchmarking/R1-3/IRC-folder/Gau-81717.chk"
 B after Tr=     0.000319    0.001052    0.000552
         Rot=    1.000000    0.000328    0.000106   -0.000145 Ang=   0.04 deg.
 ExpMin= 1.61D-01 ExpMax= 3.05D+03 ExpMxC= 4.57D+02 IAcc=3 IRadAn=         5 AccDes= 0.00D+00
 Harris functional with IExCor=  402 and IRadAn=       5 diagonalized for initial guess.
 HarFok:  IExCor=  402 AccDes= 0.00D+00 IRadAn=         5 IDoV= 1 UseB2=F ITyADJ=14
 ICtDFT=  3500011 ScaDFX=  1.000000  1.000000  1.000000  1.000000
 FoFCou: FMM=F IPFlag=           0 FMFlag=      100000 FMFlg1=           0
         NFxFlg=           0 DoJE=T BraDBF=F KetDBF=T FulRan=T
         wScrn=  0.000000 ICntrl=       500 IOpCl=  0 I1Cent=   200000004 NGrid=           0
         NMat0=    1 NMatS0=      1 NMatT0=    0 NMatD0=    1 NMtDS0=    0 NMtDT0=    0
 Symmetry not used in FoFCou.
 Keep R1 ints in memory in canonical form, NReq=25608079.
 Requested convergence on RMS density matrix=1.00D-08 within 128 cycles.
 Requested convergence on MAX density matrix=1.00D-06.
 Requested convergence on             energy=1.00D-06.
 No special actions if energy rises.
 Integral accuracy reduced to 1.0D-05 until final iterations.
 Initial convergence to 1.0D-05 achieved.  Increase integral accuracy.
 SCF Done:  E(RB3LYP) =  -117.775606832     A.U. after   11 cycles
            NFock= 11  Conv=0.72D-08     -V/T= 2.0101
 DoSCS=F DFT=T ScalE2(SS,OS)=  1.000000  1.000000
 Range of M.O.s used for correlation:     1    75
 NBasis=    75 NAE=    12 NBE=    12 NFC=     0 NFV=     0
 NROrb=     75 NOA=    12 NOB=    12 NVA=    63 NVB=    63

 **** Warning!!: The smallest alpha delta epsilon is  0.81702913D-01

 Symmetrizing basis deriv contribution to polar:
 IMax=3 JMax=2 DiffMx= 0.00D+00
 G2DrvN: will do    10 centers at a time, making    1 passes.
 Calling FoFCou, ICntrl=  3107 FMM=F I1Cent=   0 AccDes= 0.00D+00.
 End of G2Drv F.D. properties file   721 does not exist.
 End of G2Drv F.D. properties file   722 does not exist.
 End of G2Drv F.D. properties file   788 does not exist.
          IDoAtm=111111111
          Differentiating once with respect to nuclear coordinates.
 Keep R1 ints in memory in canonical form, NReq=25532403.
          There are    30 degrees of freedom in the 1st order CPHF.  IDoFFX=6 NUNeed=     0.
     24 vectors produced by pass  0 Test12= 2.52D-15 3.33D-09 XBig12= 1.35D-01 2.09D-01.
 AX will form    24 AO Fock derivatives at one time.
     24 vectors produced by pass  1 Test12= 2.52D-15 3.33D-09 XBig12= 4.26D-02 4.56D-02.
     24 vectors produced by pass  2 Test12= 2.52D-15 3.33D-09 XBig12= 4.12D-04 5.13D-03.
     24 vectors produced by pass  3 Test12= 2.52D-15 3.33D-09 XBig12= 6.88D-07 1.37D-04.
     24 vectors produced by pass  4 Test12= 2.52D-15 3.33D-09 XBig12= 7.01D-10 4.60D-06.
     11 vectors produced by pass  5 Test12= 2.52D-15 3.33D-09 XBig12= 3.61D-13 8.95D-08.
 InvSVY:  IOpt=1 It=  1 EMax= 1.33D-15
 Solved reduced A of dimension   131 with    24 vectors.
 End of Minotr F.D. properties file   721 does not exist.
 End of Minotr F.D. properties file   722 does not exist.
 End of Minotr F.D. properties file   788 does not exist.
 Calling FoFJK, ICntrl=    100127 FMM=F ISym2X=0 I1Cent= 0 IOpClX= 0 NMat=1 NMatS=1 NMatT=0.
 -------------------------------------------------------------------
 Center     Atomic                   Forces (Hartrees/Bohr)
 Number     Number              X              Y              Z
 -------------------------------------------------------------------
      1        6           0.003702543    0.002059575   -0.001476027
      2        6          -0.000929697   -0.007060874    0.001510666
      3        6          -0.003672150    0.002124704   -0.001611025
      4        1           0.000354348    0.000942643    0.000523512
      5        1           0.000835848    0.001012425   -0.002697468
      6        1           0.000777388    0.000965844    0.002667251
      7        1           0.000386836   -0.001394576    0.001553776
      8        1          -0.000272295   -0.001062169   -0.000491651
      9        1          -0.001182821    0.002412428    0.000020967
 -------------------------------------------------------------------
 Cartesian Forces:  Max     0.007060874 RMS     0.002158856
 IRC-IRC-IRC-IRC-IRC-IRC-IRC-IRC-IRC-IRC-IRC-IRC-IRC-IRC-IRC-IRC-IRC-IRC
 Pt  7 Step number   1 out of a maximum of 100
 Modified Bulirsch-Stoer Extrapolation Cycles:
    EPS =    0.000010000000000
      PEZero:  N= 2 I= 1 D=  5.64D-04 Err=  6.99D-06
 Maximum DWI energy   std dev =  0.000000088 at pt    12
 Maximum DWI gradient std dev =  0.009762686 at pt    16
 CORRECTOR INTEGRATION CONVERGENCE:
   Recorrection delta-x convergence threshold:    0.010000
   Delta-x Convergence Met
 Point Number:   7          Path Number:   1
   CHANGE IN THE REACTION COORDINATE =    0.10835
   NET REACTION COORDINATE UP TO THIS POINT =    0.75841
  # OF POINTS ALONG THE PATH =   7
  # OF STEPS =   1

 Calculating another point on the path.
 IRC-IRC-IRC-IRC-IRC-IRC-IRC-IRC-IRC-IRC-IRC-IRC-IRC-IRC-IRC-IRC-IRC-IRC
                          Input orientation:                          
 ---------------------------------------------------------------------
 Center     Atomic      Atomic             Coordinates (Angstroms)
 Number     Number       Type             X           Y           Z
 ---------------------------------------------------------------------
      1          6           0       -1.223985    0.356605    0.116102
      2          6           0        0.034455   -0.429198    0.317542
      3          6           0        1.197085    0.084628   -0.381453
      4          1           0        0.222814   -0.768842    1.345018
      5          1           0       -2.110222   -0.188574   -0.210275
      6          1           0       -1.159874    1.385434   -0.232848
      7          1           0       -0.241737   -1.346424   -0.248265
      8          1           0        1.094378    0.397580   -1.414861
      9          1           0        2.104682    0.377531    0.139795
 ---------------------------------------------------------------------
                    Distance matrix (angstroms):
                    1          2          3          4          5
     1  C    0.000000
     2  C    1.497243   0.000000
     3  C    2.486587   1.450628   0.000000
     4  H    2.206829   1.098427   2.158313   0.000000
     5  H    1.090485   2.221740   3.322984   2.863338   0.000000
     6  H    1.088286   2.241036   2.696190   3.007057   1.838796
     7  H    1.999471   1.112531   2.033681   1.757259   2.198476
     8  H    2.778549   2.192766   1.084630   3.120432   3.473336
     9  H    3.328818   2.228956   1.086841   2.511605   4.267135
                    6          7          8          9
     6  H    0.000000
     7  H    2.882059   0.000000
     8  H    2.730323   2.487509   0.000000
     9  H    3.436868   2.937396   1.854204   0.000000
 Symmetry turned off by external request.
 Stoichiometry    C3H6
 Framework group  C1[X(C3H6)]
 Deg. of freedom    21
 Full point group                 C1      NOp   1
 Rotational constants (GHZ):          35.8899980           9.7991808           8.5245011
 Standard basis: 6-31G(d,p) (6D, 7F)
    75 basis functions,   126 primitive gaussians,    75 cartesian basis functions
    12 alpha electrons       12 beta electrons
       nuclear repulsion energy        70.0033294873 Hartrees.
 NAtoms=    9 NActive=    9 NUniq=    9 SFac= 1.00D+00 NAtFMM=   60 NAOKFM=F Big=F
 Integral buffers will be    131072 words long.
 Raffenetti 2 integral format.
 Two-electron integral symmetry is turned off.
 One-electron integrals computed using PRISM.
 NBasis=    75 RedAO= T EigKep=  5.55D-03  NBF=    75
 NBsUse=    75 1.00D-06 EigRej= -1.00D+00 NBFU=    75
 Initial guess from the checkpoint file:  "/scratch/brown/zhao922/pyGSM/new-benchmarking/R1-3/IRC-folder/Gau-81717.chk"
 B after Tr=     0.000299    0.001054    0.000535
         Rot=    1.000000    0.000305    0.000104   -0.000137 Ang=   0.04 deg.
 ExpMin= 1.61D-01 ExpMax= 3.05D+03 ExpMxC= 4.57D+02 IAcc=3 IRadAn=         5 AccDes= 0.00D+00
 Harris functional with IExCor=  402 and IRadAn=       5 diagonalized for initial guess.
 HarFok:  IExCor=  402 AccDes= 0.00D+00 IRadAn=         5 IDoV= 1 UseB2=F ITyADJ=14
 ICtDFT=  3500011 ScaDFX=  1.000000  1.000000  1.000000  1.000000
 FoFCou: FMM=F IPFlag=           0 FMFlag=      100000 FMFlg1=           0
         NFxFlg=           0 DoJE=T BraDBF=F KetDBF=T FulRan=T
         wScrn=  0.000000 ICntrl=       500 IOpCl=  0 I1Cent=   200000004 NGrid=           0
         NMat0=    1 NMatS0=      1 NMatT0=    0 NMatD0=    1 NMtDS0=    0 NMtDT0=    0
 Symmetry not used in FoFCou.
 Keep R1 ints in memory in canonical form, NReq=25608079.
 Requested convergence on RMS density matrix=1.00D-08 within 128 cycles.
 Requested convergence on MAX density matrix=1.00D-06.
 Requested convergence on             energy=1.00D-06.
 No special actions if energy rises.
 Integral accuracy reduced to 1.0D-05 until final iterations.
 Initial convergence to 1.0D-05 achieved.  Increase integral accuracy.
 SCF Done:  E(RB3LYP) =  -117.776337685     A.U. after   11 cycles
            NFock= 11  Conv=0.70D-08     -V/T= 2.0101
 DoSCS=F DFT=T ScalE2(SS,OS)=  1.000000  1.000000
 Range of M.O.s used for correlation:     1    75
 NBasis=    75 NAE=    12 NBE=    12 NFC=     0 NFV=     0
 NROrb=     75 NOA=    12 NOB=    12 NVA=    63 NVB=    63

 **** Warning!!: The smallest alpha delta epsilon is  0.82041609D-01

 Symmetrizing basis deriv contribution to polar:
 IMax=3 JMax=2 DiffMx= 0.00D+00
 G2DrvN: will do    10 centers at a time, making    1 passes.
 Calling FoFCou, ICntrl=  3107 FMM=F I1Cent=   0 AccDes= 0.00D+00.
 End of G2Drv F.D. properties file   721 does not exist.
 End of G2Drv F.D. properties file   722 does not exist.
 End of G2Drv F.D. properties file   788 does not exist.
          IDoAtm=111111111
          Differentiating once with respect to nuclear coordinates.
 Keep R1 ints in memory in canonical form, NReq=25532403.
          There are    30 degrees of freedom in the 1st order CPHF.  IDoFFX=6 NUNeed=     0.
     24 vectors produced by pass  0 Test12= 2.52D-15 3.33D-09 XBig12= 1.32D-01 2.10D-01.
 AX will form    24 AO Fock derivatives at one time.
     24 vectors produced by pass  1 Test12= 2.52D-15 3.33D-09 XBig12= 3.24D-02 4.15D-02.
     24 vectors produced by pass  2 Test12= 2.52D-15 3.33D-09 XBig12= 2.90D-04 3.67D-03.
     24 vectors produced by pass  3 Test12= 2.52D-15 3.33D-09 XBig12= 5.00D-07 1.22D-04.
[...]
  61                   -0.28833  -1.22419  -0.36496   1.11644   0.47219
  62                   -0.27868  -1.24263  -0.34987   1.11355   0.46307
  63                   -0.27066  -1.25994  -0.33482   1.11063   0.45391
  64                   -0.26383  -1.27631  -0.31984   1.10776   0.44469
  65                   -0.25799  -1.29181  -0.30503   1.10494   0.43542
  66                   -0.25299  -1.30651  -0.29042   1.10218   0.42608
  67                   -0.24869  -1.32047  -0.27607   1.09951   0.41666
  68                   -0.24497  -1.33373  -0.26201   1.09691   0.40716
  69                   -0.24176  -1.34635  -0.24827   1.09441   0.39757
  70                   -0.23897  -1.35837  -0.23487   1.09200   0.38788
  71                   -0.23654  -1.36983  -0.22183   1.08971   0.37809
  72                   -0.23442  -1.38077  -0.20916   1.08752   0.36819
  73                   -0.23257  -1.39122  -0.19688   1.08545   0.35817
  74                   -0.23095  -1.40122  -0.18498   1.08350   0.34804
  75                   -0.22952  -1.41079  -0.17348   1.08167   0.33779
  76                   -0.22825  -1.41997  -0.16236   1.07997   0.32743
  77                   -0.22713  -1.42877  -0.15164   1.07839   0.31696
  78                   -0.22612  -1.43724  -0.14130   1.07695   0.30638
  79                   -0.22521  -1.44538  -0.13133   1.07563   0.29570
  80                   -0.22438  -1.45323  -0.12174   1.07445   0.28493
  81                   -0.22361  -1.46080  -0.11251   1.07339   0.27408
  82                   -0.22290  -1.46811  -0.10363   1.07246   0.26314
  83                   -0.22222  -1.47519  -0.09509   1.07166   0.25215
  84                   -0.22157  -1.48204  -0.08688   1.07098   0.24109
  85                   -0.22094  -1.48869  -0.07899   1.07042   0.23000
  86                   -0.22031  -1.49515  -0.07141   1.06998   0.21888
  87                   -0.21969  -1.50143  -0.06413   1.06964   0.20774
  88                   -0.21905  -1.50754  -0.05713   1.06941   0.19660
  89                   -0.21841  -1.51350  -0.05040   1.06928   0.18548
  90                   -0.21774  -1.51932  -0.04394   1.06924   0.17440
  91                   -0.21706  -1.52501  -0.03773   1.06928   0.16337
  92                   -0.21635  -1.53058  -0.03176   1.06939   0.15241
  93                   -0.21561  -1.53603  -0.02602   1.06957   0.14153
  94                   -0.21485  -1.54137  -0.02051   1.06980   0.13077
  95                   -0.21405  -1.54661  -0.01520   1.07007   0.12014
  96                   -0.21323  -1.55176  -0.01010   1.07038   0.10967
  97                   -0.21238  -1.55682  -0.00519   1.07071   0.09936
  98                   -0.21150  -1.56180  -0.00047   1.07105   0.08926
  99                   -0.21060  -1.56670   0.00407   1.07137   0.07937
 100                   -0.20968  -1.57153   0.00844   1.07168   0.06973
 101                   -0.20874  -1.57628   0.01264   1.07196   0.06035
 102                   -0.20778  -1.58097   0.01669   1.07218   0.05125
 103                   -0.20682  -1.58559   0.02059   1.07235   0.04246
 104                   -0.20586  -1.59016   0.02434   1.07243   0.03400
 105                   -0.20489  -1.59466   0.02796   1.07241   0.02587
 106                   -0.20392  -1.59910   0.03144   1.07229   0.01810
 107                   -0.20297  -1.60349   0.03480   1.07204   0.01069
 108                   -0.20203  -1.60782   0.03804   1.07165   0.00366
 109                   -0.20110  -1.61210   0.04116   1.07111  -0.00299
 110                   -0.20019  -1.61633   0.04418   1.07040  -0.00925
 111                   -0.19931  -1.62050   0.04709   1.06950  -0.01512
 112                   -0.19845  -1.62463   0.04991   1.06841  -0.02060
 113                   -0.19762  -1.62872   0.05263   1.06712  -0.02570
 114                   -0.19682  -1.63277   0.05527   1.06561  -0.03040
 115                   -0.19605  -1.63677   0.05783   1.06386  -0.03473
 116                   -0.19531  -1.64074   0.06031   1.06188  -0.03868
 117                   -0.19459  -1.64469   0.06272   1.05964  -0.04226
 118                   -0.19391  -1.64861   0.06507   1.05714  -0.04547
 119                   -0.19325  -1.65251   0.06736   1.05436  -0.04832
 120                   -0.19262  -1.65641   0.06960   1.05130  -0.05081
 121                   -0.19202  -1.66030   0.07179   1.04795  -0.05295
                          Z8        X9        Y9        Z9
   1                   -1.06916   2.21474  -0.29782  -0.00947
   2                   -1.07765   2.21453  -0.29942  -0.01093
   3                   -1.08617   2.21434  -0.30085  -0.01219
   4                   -1.09474   2.21419  -0.30208  -0.01323
   5                   -1.10335   2.21407  -0.30309  -0.01404
   6                   -1.11201   2.21399  -0.30384  -0.01462
   7                   -1.12072   2.21396  -0.30433  -0.01498
   8                   -1.12946   2.21398  -0.30453  -0.01514
   9                   -1.13823   2.21405  -0.30443  -0.01513
  10                   -1.14702   2.21416  -0.30401  -0.01501
  11                   -1.15580   2.21432  -0.30326  -0.01485
  12                   -1.16455   2.21451  -0.30215  -0.01475
  13                   -1.17323   2.21474  -0.30064  -0.01488
  14                   -1.18177   2.21498  -0.29873  -0.01553
  15                   -1.19003   2.21520  -0.29642  -0.01718
  16                   -1.19767   2.21530  -0.29390  -0.02068
  17                   -1.20399   2.21508  -0.29173  -0.02721
  18                   -1.20793   2.21415  -0.29053  -0.03711
  19                   -1.20963   2.21242  -0.28812  -0.04555
  20                   -1.21136   2.21103  -0.28157  -0.04623
  21                   -1.21380   2.21031  -0.27303  -0.04239
  22                   -1.21665   2.20996  -0.26392  -0.03696
  23                   -1.21974   2.20978  -0.25461  -0.03092
  24                   -1.22300   2.20969  -0.24522  -0.02464
  25                   -1.22636   2.20964  -0.23582  -0.01829
  26                   -1.22981   2.20962  -0.22640  -0.01194
  27                   -1.23333   2.20960  -0.21700  -0.00566
  28                   -1.23690   2.20957  -0.20760   0.00053
  29                   -1.24051   2.20953  -0.19822   0.00662
  30                   -1.24415   2.20948  -0.18886   0.01257
  31                   -1.24781   2.20942  -0.17951   0.01838
  32                   -1.25148   2.20934  -0.17020   0.02403
  33                   -1.25516   2.20924  -0.16090   0.02952
  34                   -1.25883   2.20913  -0.15164   0.03482
  35                   -1.26249   2.20901  -0.14241   0.03994
  36                   -1.26613   2.20889  -0.13322   0.04486
  37                   -1.26974   2.20877  -0.12406   0.04957
  38                   -1.27334   2.20865  -0.11495   0.05407
  39                   -1.27690   2.20854  -0.10588   0.05835
  40                   -1.28045   2.20845  -0.09684   0.06242
  41                   -1.28398   2.20836  -0.08782   0.06629
  42                   -1.28751   2.20829  -0.07878   0.06995
  43                   -1.29106   2.20821  -0.06968   0.07345
  44                   -1.29465   2.20814  -0.06045   0.07680
  45                   -1.29830   2.20804  -0.05103   0.08003
  46                   -1.30205   2.20790  -0.04131   0.08317
  47                   -1.30591   2.20769  -0.03120   0.08625
  48                   -1.30991   2.20737  -0.02059   0.08929
  49                   -1.31408   2.20692  -0.00935   0.09232
  50                   -1.31842   2.20627   0.00263   0.09536
  51                   -1.32296   2.20538   0.01550   0.09843
  52                   -1.32769   2.20417   0.02937   0.10154
  53                   -1.33262   2.20259   0.04434   0.10469
  54                   -1.33772   2.20058   0.06048   0.10786
  55                   -1.34296   2.19806   0.07780   0.11103
  56                   -1.34831   2.19500   0.09623   0.11418
  57                   -1.35372   2.19136   0.11566   0.11727
  58                   -1.35915   2.18714   0.13594   0.12025
  59                   -1.36455   2.18233   0.15689   0.12308
  60                   -1.36991   2.17693   0.17834   0.12576
  61                   -1.37522   2.17094   0.20019   0.12823
  62                   -1.38043   2.16447   0.22219   0.13049
  63                   -1.38557   2.15743   0.24437   0.13252
  64                   -1.39064   2.14987   0.26664   0.13433
  65                   -1.39562   2.14180   0.28892   0.13589
  66                   -1.40054   2.13322   0.31118   0.13722
  67                   -1.40537   2.12414   0.33338   0.13830
  68                   -1.41014   2.11459   0.35549   0.13913
  69                   -1.41482   2.10456   0.37749   0.13972
  70                   -1.41943   2.09406   0.39936   0.14007
  71                   -1.42396   2.08311   0.42106   0.14016
  72                   -1.42841   2.07172   0.44259   0.14002
  73                   -1.43277   2.05990   0.46392   0.13962
  74                   -1.43703   2.04766   0.48503   0.13898
  75                   -1.44120   2.03501   0.50590   0.13810
  76                   -1.44525   2.02198   0.52652   0.13698
  77                   -1.44919   2.00858   0.54687   0.13562
  78                   -1.45300   1.99483   0.56692   0.13403
  79                   -1.45668   1.98075   0.58665   0.13221
  80                   -1.46021   1.96636   0.60606   0.13017
  81                   -1.46359   1.95169   0.62511   0.12791
  82                   -1.46680   1.93676   0.64379   0.12544
  83                   -1.46984   1.92160   0.66207   0.12278
  84                   -1.47270   1.90625   0.67994   0.11993
  85                   -1.47537   1.89073   0.69738   0.11690
  86                   -1.47783   1.87507   0.71436   0.11371
  87                   -1.48009   1.85931   0.73087   0.11037
  88                   -1.48213   1.84350   0.74688   0.10690
  89                   -1.48394   1.82766   0.76239   0.10332
  90                   -1.48553   1.81183   0.77737   0.09965
  91                   -1.48687   1.79607   0.79180   0.09590
  92                   -1.48798   1.78040   0.80566   0.09209
  93                   -1.48884   1.76487   0.81895   0.08826
  94                   -1.48945   1.74953   0.83165   0.08442
  95                   -1.48981   1.73442   0.84374   0.08060
  96                   -1.48992   1.71958   0.85521   0.07683
  97                   -1.48978   1.70506   0.86605   0.07312
  98                   -1.48939   1.69090   0.87625   0.06951
  99                   -1.48876   1.67713   0.88581   0.06602
 100                   -1.48789   1.66379   0.89470   0.06268
 101                   -1.48680   1.65093   0.90294   0.05950
 102                   -1.48547   1.63856   0.91053   0.05651
 103                   -1.48394   1.62671   0.91745   0.05373
 104                   -1.48219   1.61540   0.92373   0.05116
 105                   -1.48026   1.60465   0.92937   0.04883
 106                   -1.47815   1.59445   0.93439   0.04674
 107                   -1.47588   1.58481   0.93879   0.04489
 108                   -1.47345   1.57572   0.94261   0.04329
 109                   -1.47089   1.56715   0.94588   0.04192
 110                   -1.46820   1.55909   0.94861   0.04079
 111                   -1.46541   1.55151   0.95084   0.03988
 112                   -1.46253   1.54437   0.95262   0.03918
 113                   -1.45958   1.53763   0.95396   0.03867
 114                   -1.45656   1.53125   0.95492   0.03833
 115                   -1.45350   1.52518   0.95554   0.03815
 116                   -1.45040   1.51939   0.95584   0.03811
 117                   -1.44728   1.51382   0.95589   0.03818
 118                   -1.44415   1.50843   0.95571   0.03835
 119                   -1.44103   1.50318   0.95534   0.03860
 120                   -1.43793   1.49803   0.95484   0.03891
 121                   -1.43487   1.49292   0.95423   0.03926
 --------------------------------------------------------------------------
 
 Total number of points:                  120
 Total number of gradient calculations:   121
 Total number of Hessian calculations:    121
 IRC-IRC-IRC-IRC-IRC-IRC-IRC-IRC-IRC-IRC-IRC-IRC-IRC-IRC-IRC-IRC-IRC-IRC
                          Input orientation:                          
 ---------------------------------------------------------------------
 Center     Atomic      Atomic             Coordinates (Angstroms)
 Number     Number       Type             X           Y           Z
 ---------------------------------------------------------------------
      1          6           0       -1.259840    0.176268   -0.010930
      2          6           0        0.123375   -0.308567    0.315309
      3          6           0        1.242186    0.100626   -0.282323
      4          1           0        0.191686   -1.065892    1.097052
      5          1           0       -1.789132    0.509586    0.890467
      6          1           0       -1.236914    1.007940   -0.721891
      7          1           0       -1.865370   -0.628082   -0.449578
      8          1           0        1.226182    0.851417   -1.069179
      9          1           0        2.214744   -0.297843   -0.009483
 ---------------------------------------------------------------------
                    Distance matrix (angstroms):
                    1          2          3          4          5
     1  C    0.000000
     2  C    1.501592   0.000000
     3  C    2.517838   1.332795   0.000000
     4  H    2.208509   1.090563   2.089735   0.000000
     5  H    1.097163   2.158208   3.275908   2.539380   0.000000
     6  H    1.094380   2.158555   2.676262   3.106482   1.775668
     7  H    1.098207   2.154588   3.196231   2.610597   1.759495
     8  H    2.784963   2.116260   1.087697   3.072265   3.612365
     9  H    3.506782   2.116467   1.085858   2.430450   4.182449
                    6          7          8          9
     6  H    0.000000
     7  H    1.773606   0.000000
     8  H    2.492379   3.482889   0.000000
     9  H    3.758529   4.117047   1.849597   0.000000
 Symmetry turned off by external request.
 Stoichiometry    C3H6
 Framework group  C1[X(C3H6)]
 Deg. of freedom    21
 Full point group                 C1      NOp   1
 Rotational constants (GHZ):          46.8202669           9.2540796           8.1140058

 **********************************************************************

            Population analysis using the SCF Density.

 **********************************************************************

 Alpha  occ. eigenvalues --  -10.18734 -10.18085 -10.17296  -0.77985  -0.68042
 Alpha  occ. eigenvalues --   -0.54942  -0.46085  -0.41551  -0.40791  -0.36750
 Alpha  occ. eigenvalues --   -0.34120  -0.25016
 Alpha virt. eigenvalues --    0.02698   0.11372   0.13567   0.15047   0.17610
 Alpha virt. eigenvalues --    0.18075   0.19324   0.28637   0.37550   0.49334
 Alpha virt. eigenvalues --    0.52579   0.53418   0.60531   0.62867   0.65411
 Alpha virt. eigenvalues --    0.67743   0.71408   0.77379   0.83588   0.85832
 Alpha virt. eigenvalues --    0.87498   0.88811   0.92388   0.94318   1.11906
 Alpha virt. eigenvalues --    1.20867   1.30748   1.32150   1.40175   1.49031
 Alpha virt. eigenvalues --    1.61729   1.80791   1.81868   1.88145   1.95963
 Alpha virt. eigenvalues --    2.01650   2.04500   2.08076   2.10909   2.13204
 Alpha virt. eigenvalues --    2.15628   2.29341   2.36382   2.37228   2.46925
 Alpha virt. eigenvalues --    2.50165   2.57163   2.64978   2.66457   2.69330
 Alpha virt. eigenvalues --    2.83730   2.85919   2.87024   3.01697   3.17237
 Alpha virt. eigenvalues --    3.27051   3.42275   3.43336   3.46718   3.67500
 Alpha virt. eigenvalues --    4.17973   4.38843   4.59004
          Condensed to atoms (all electrons):
               1          2          3          4          5          6
     1  C    4.931241   0.390765  -0.045125  -0.057106   0.376830   0.383512
     2  C    0.390765   4.716223   0.692819   0.382032  -0.030635  -0.033798
     3  C   -0.045125   0.692819   4.880937  -0.043601   0.001205  -0.007466
     4  H   -0.057106   0.382032  -0.043601   0.636210  -0.002093   0.004979
     5  H    0.376830  -0.030635   0.001205  -0.002093   0.606453  -0.029873
     6  H    0.383512  -0.033798  -0.007466   0.004979  -0.029873   0.595051
     7  H    0.377292  -0.032526  -0.000899  -0.000384  -0.036075  -0.029459
     8  H   -0.012963  -0.034956   0.380923   0.006361   0.000149   0.006664
     9  H    0.005604  -0.026025   0.376959  -0.009914  -0.000192   0.000006
               7          8          9
     1  C    0.377292  -0.012963   0.005604
     2  C   -0.032526  -0.034956  -0.026025
     3  C   -0.000899   0.380923   0.376959
     4  H   -0.000384   0.006361  -0.009914
     5  H   -0.036075   0.000149  -0.000192
     6  H   -0.029459   0.006664   0.000006
     7  H    0.604093   0.000228  -0.000186
     8  H    0.000228   0.610363  -0.046237
     9  H   -0.000186  -0.046237   0.605796
 Mulliken charges:
               1
     1  C   -0.350050
     2  C   -0.023899
     3  C   -0.235753
     4  H    0.083516
     5  H    0.114231
     6  H    0.110384
     7  H    0.117915
     8  H    0.089467
     9  H    0.094187
 Sum of Mulliken charges =  -0.00000
 Mulliken charges with hydrogens summed into heavy atoms:
               1
     1  C   -0.007519
     2  C    0.059617
     3  C   -0.052098
 APT charges:
               1
     1  C   -1.036640
     2  C   -0.544870
     3  C   -0.619221
     4  H    0.346011
     5  H    0.392169
     6  H    0.309860
     7  H    0.382797
     8  H    0.322524
     9  H    0.447370
 Sum of APT charges =  -0.00000
 APT charges with hydrogens summed into heavy atoms:
               1
     1  C    0.048186
     2  C   -0.198859
     3  C    0.150673
 Electronic spatial extent (au):  <R**2>=            196.9950
 Charge=             -0.0000 electrons
 Dipole moment (field-independent basis, Debye):
    X=             -0.3558    Y=             -0.0537    Z=              0.0730  Tot=              0.3671
 Quadrupole moment (field-independent basis, Debye-Ang):
   XX=            -18.9109   YY=            -20.0573   ZZ=            -19.9139
   XY=             -0.0928   XZ=             -0.2307   YZ=             -1.2520
 Traceless Quadrupole moment (field-independent basis, Debye-Ang):
   XX=              0.7165   YY=             -0.4300   ZZ=             -0.2865
   XY=             -0.0928   XZ=             -0.2307   YZ=             -1.2520
 Octapole moment (field-independent basis, Debye-Ang**2):
  XXX=              3.1043  YYY=             -0.4434  ZZZ=              0.7490  XYY=             -0.2670
  XXY=             -1.0345  XXZ=              0.1764  XZZ=             -0.3204  YZZ=              0.1823
  YYZ=              0.0098  XYZ=             -1.2460
 Hexadecapole moment (field-independent basis, Debye-Ang**3):
 XXXX=           -179.1761 YYYY=            -41.4664 ZZZZ=            -43.4861 XXXY=              2.9213
 XXXZ=              6.7331 YYYX=              4.2576 YYYZ=              5.0382 ZZZX=              6.0522
 ZZZY=              5.1643 XXYY=            -37.5802 XXZZ=            -37.8680 YYZZ=            -12.8389
 XXYZ=              1.9389 YYXZ=              2.6581 ZZXY=              1.3395
 N-N= 7.061614317064D+01 E-N=-4.134148827185D+02  KE= 1.166981797388D+02
  Exact polarizability:   0.000   0.000   0.000   0.000   0.000   0.000
 Approx polarizability:  59.300   5.095  34.616  -9.950  -9.675  37.748

 This type of calculation cannot be archived.


 NATURE GIVES TO EVERY TIME AND SEASON SOME BEAUTY OF ITS OWN.

                                                    --DICKENS
 Job cpu time:       0 days  3 hours 47 minutes 38.5 seconds.
 Elapsed time:       0 days  0 hours 10 minutes 40.3 seconds.
 File lengths (MBytes):  RWF=     10 Int=      0 D2E=      0 Chk=      3 Scr=      1
 Normal termination of Gaussian 16 at Fri Jul 17 18:13:15 2020.
