 Entering Gaussian System, Link 0=g16
 Initial command:
 /apps/cent7/gaussian/g16-B.01/g16-haswell/g16/l1.exe "/scratch/brown/zhao922/pyGSM/new-benchmarking/R1-3/IRC-folder/Gau-48405.inp" -scrdir="/scratch/brown/zhao922/pyGSM/new-benchmarking/R1-3/IRC-folder/"
 Entering Link 1 = /apps/cent7/gaussian/g16-B.01/g16-haswell/g16/l1.exe PID=     48406.
  
 Copyright (c) 1988-2017, Gaussian, Inc.  All Rights Reserved.
  
 This is part of the Gaussian(R) 16 program.  It is based on
 the Gaussian(R) 09 system (copyright 2009, Gaussian, Inc.),
 the Gaussian(R) 03 system (copyright 2003, Gaussian, Inc.),
 the Gaussian(R) 98 system (copyright 1998, Gaussian, Inc.),
 the Gaussian(R) 94 system (copyright 1995, Gaussian, Inc.),
 the Gaussian 92(TM) system (copyright 1992, Gaussian, Inc.),
 the Gaussian 90(TM) system (copyright 1990, Gaussian, Inc.),
 the Gaussian 88(TM) system (copyright 1988, Gaussian, Inc.),
 the Gaussian 86(TM) system (copyright 1986, Carnegie Mellon
 University), and the Gaussian 82(TM) system (copyright 1983,
 Carnegie Mellon University). Gaussian is a federally registered
 trademark of Gaussian, Inc.
  
 This software contains proprietary and confidential information,
 including trade secrets, belonging to Gaussian, Inc.
  
 This software is provided under written license and may be
 used, copied, transmitted, or stored only in accord with that
 written license.
  
 The following legend is applicable only to US Government
 contracts under FAR:
  
                    RESTRICTED RIGHTS LEGEND
  
 Use, reproduction and disclosure by the US Government is
 subject to restrictions as set forth in subparagraphs (a)
 and (c) of the Commercial Computer Software - Restricted
 Rights clause in FAR 52.227-19.
  
 Gaussian, Inc.
 340 Quinnipiac St., Bldg. 40, Wallingford CT 06492
  
  
 ---------------------------------------------------------------
 Warning -- This program may not be used in any manner that
 competes with the business of Gaussian, Inc. or will provide
 assistance to any competitor of Gaussian, Inc.  The licensee
 of this program is prohibited from giving any competitor of
 Gaussian, Inc. access to this program.  By using this program,
 the user acknowledges that Gaussian, Inc. is engaged in the
 business of creating and licensing software in the field of
 computational chemistry and represents and warrants to the
 licensee that it is not a competitor of Gaussian, Inc. and that
 it will not use this program in any manner prohibited above.
 ---------------------------------------------------------------
  

 Cite this work as:
 Gaussian 16, Revision B.01,
 M. J. Frisch, G. W. Trucks, H. B. Schlegel, G. E. Scuseria, 
 M. A. Robb, J. R. Cheeseman, G. Scalmani, V. Barone, 
 G. A. Petersson, H. Nakatsuji, X. Li, M. Caricato, A. V. Marenich, 
 J. Bloino, B. G. Janesko, R. Gomperts, B. Mennucci, H. P. Hratchian, 
 J. V. Ortiz, A. F. Izmaylov, J. L. Sonnenberg, D. Williams-Young, 
 F. Ding, F. Lipparini, F. Egidi, J. Goings, B. Peng, A. Petrone, 
 T. Henderson, D. Ranasinghe, V. G. Zakrzewski, J. Gao, N. Rega, 
 G. Zheng, W. Liang, M. Hada, M. Ehara, K. Toyota, R. Fukuda, 
 J. Hasegawa, M. Ishida, T. Nakajima, Y. Honda, O. Kitao, H. Nakai, 
 T. Vreven, K. Throssell, J. A. Montgomery, Jr., J. E. Peralta, 
 F. Ogliaro, M. J. Bearpark, J. J. Heyd, E. N. Brothers, K. N. Kudin, 
 V. N. Staroverov, T. A. Keith, R. Kobayashi, J. Normand, 
 K. Raghavachari, A. P. Rendell, J. C. Burant, S. S. Iyengar, 
 J. Tomasi, M. Cossi, J. M. Millam, M. Klene, C. Adamo, R. Cammi, 
 J. W. Ochterski, R. L. Martin, K. Morokuma, O. Farkas, 
 J. B. Foresman, and D. J. Fox, Gaussian, Inc., Wallingford CT, 2016.
 
 ******************************************
 Gaussian 16:  ES64L-G16RevB.01 20-Dec-2017
                17-Jul-2020 
 ******************************************
 %NProcShared=24
 Will use up to   24 processors via shared memory.
 %Mem=60GB
 ----------------------------------------------------------------------
 # B3LYP/6-31G** IRC=(CALCALL, maxpoints=60, StepSize=10, maxcyc=100, R
 eport=Cartesians)
 ----------------------------------------------------------------------
 1/6=100,10=4,18=10,26=3,38=1,39=10,42=60,44=3,71=1,129=10,172=1/1,23;
 2/12=2,17=6,18=5,29=1,40=1/2;
 3/5=1,6=6,7=101,11=2,25=1,30=1,71=2,74=-5,140=1/1,2,3;
 4//1;
 5/5=2,38=5/2;
 8/6=4,10=90,11=11/1;
 11/6=1,8=1,9=11,15=111,16=1/1,2,10;
 10/6=1,13=1/2;
 6/7=2,8=2,9=2,10=2,18=1,28=1/1;
 7/10=1,25=1/1,2,3,16;
 1/6=100,10=4,18=10,26=3,39=10,42=60,44=3,71=1,129=10/23(2);
 2/29=1/2;
 99/5=20/99;
 2/29=1/2;
 3/5=1,6=6,7=101,11=2,25=1,30=1,71=2,74=-5,140=1/1,2,3;
 4/5=5,16=3,69=1/1;
 5/5=2,38=5/2;
 8/6=4,10=90,11=11/1;
 11/6=1,8=1,9=11,15=111,16=1/1,2,10;
 10/6=1,13=1/2;
 7/10=1,25=1/1,2,3,16;
 1/6=100,10=4,18=10,26=3,39=10,42=60,44=3,71=1,129=10/23(-8);
 2/29=1/2;
 6/7=2,8=2,9=2,10=2,18=1,19=2,28=1/1;
 99/5=20/99;
 ----------
 pp_3_1 IRC
 ----------
 Symbolic Z-matrix:
 Charge =  0 Multiplicity = 1
 C                    -2.45023  -0.55646   1.16713 
 C                    -1.2121   -0.1231    1.57802 
 C                     0.03727  -0.20389   1.05791 
 H                    -1.47185   0.65148   2.44264 
 H                    -3.31863  -0.34182   1.7771 
 H                    -2.474     1.29378   2.04687 
 H                    -2.57356  -1.25215   0.33736 
 H                     0.20173  -0.25474  -0.01474 
 H                     0.91389  -0.10051   1.68783 
 
 IRC-IRC-IRC-IRC-IRC-IRC-IRC-IRC-IRC-IRC-IRC-IRC-IRC-IRC-IRC-IRC-IRC-IRC
 ------------------------------------------------------------------------
 INPUT DATA FOR L123
 ------------------------------------------------------------------------
 GENERAL PARAMETERS:
 Follow reaction path in both directions.
 Maximum points per path      =  60
 Step size                    =   0.100 bohr
 Integration scheme           = HPC                                 
    Redo corrector integration= Yes                                 
    DWI Weight Power          =  2
    DWI will use Hessian update vectors when possible.
    Max correction cycles     = 100
 Initial Hessian              = CalcFC
 Hessian evaluation           = Analytic at all predictor steps
                              = Update at all corrector steps
 Hessian updating method      = Bofill                              
 ------------------------------------------------------------------------
 IRC-IRC-IRC-IRC-IRC-IRC-IRC-IRC-IRC-IRC-IRC-IRC-IRC-IRC-IRC-IRC-IRC-IRC
                          Input orientation:                          
 ---------------------------------------------------------------------
 Center     Atomic      Atomic             Coordinates (Angstroms)
 Number     Number       Type             X           Y           Z
 ---------------------------------------------------------------------
      1          6           0       -2.450231   -0.556457    1.167131
      2          6           0       -1.212103   -0.123103    1.578020
      3          6           0        0.037266   -0.203894    1.057913
      4          1           0       -1.471851    0.651482    2.442639
      5          1           0       -3.318631   -0.341824    1.777104
      6          1           0       -2.473996    1.293784    2.046874
      7          1           0       -2.573559   -1.252148    0.337358
      8          1           0        0.201734   -0.254735   -0.014742
      9          1           0        0.913889   -0.100505    1.687832
 ---------------------------------------------------------------------
                    Distance matrix (angstroms):
                    1          2          3          4          5
     1  C    0.000000
     2  C    1.374622   0.000000
     3  C    2.514731   1.355714   0.000000
     4  H    2.010787   1.189545   2.219587   0.000000
     5  H    1.082706   2.127189   3.434866   2.200043   0.000000
     6  H    2.048879   1.954422   3.086668   1.254383   1.860483
     7  H    1.089825   2.160451   2.904211   3.044631   1.859218
     8  H    2.919037   2.133812   1.086381   3.108189   3.951110
     9  H    3.434578   2.128946   1.084415   2.612848   4.240334
                    6          7          8          9
     6  H    0.000000
     7  H    3.068245   0.000000
     8  H    3.715872   2.970027   0.000000
     9  H    3.681130   3.913100   1.851948   0.000000
 Symmetry turned off by external request.
 Stoichiometry    C3H6
 Framework group  C1[X(C3H6)]
 Deg. of freedom    21
 Full point group                 C1      NOp   1
 Rotational constants (GHZ):          43.4700160           9.3851455           8.0714542
 Standard basis: 6-31G(d,p) (6D, 7F)
    75 basis functions,   126 primitive gaussians,    75 cartesian basis functions
    12 alpha electrons       12 beta electrons
       nuclear repulsion energy        70.1298528248 Hartrees.
 NAtoms=    9 NActive=    9 NUniq=    9 SFac= 1.00D+00 NAtFMM=   60 NAOKFM=F Big=F
 Integral buffers will be    131072 words long.
 Raffenetti 2 integral format.
 Two-electron integral symmetry is turned off.
 One-electron integrals computed using PRISM.
 NBasis=    75 RedAO= T EigKep=  4.19D-03  NBF=    75
 NBsUse=    75 1.00D-06 EigRej= -1.00D+00 NBFU=    75
 ExpMin= 1.61D-01 ExpMax= 3.05D+03 ExpMxC= 4.57D+02 IAcc=3 IRadAn=         5 AccDes= 0.00D+00
 Harris functional with IExCor=  402 and IRadAn=       5 diagonalized for initial guess.
 HarFok:  IExCor=  402 AccDes= 0.00D+00 IRadAn=         5 IDoV= 1 UseB2=F ITyADJ=14
 ICtDFT=  3500011 ScaDFX=  1.000000  1.000000  1.000000  1.000000
 FoFCou: FMM=F IPFlag=           0 FMFlag=      100000 FMFlg1=           0
         NFxFlg=           0 DoJE=T BraDBF=F KetDBF=T FulRan=T
         wScrn=  0.000000 ICntrl=       500 IOpCl=  0 I1Cent=   200000004 NGrid=           0
         NMat0=    1 NMatS0=      1 NMatT0=    0 NMatD0=    1 NMtDS0=    0 NMtDT0=    0
 Symmetry not used in FoFCou.
 Keep R1 ints in memory in canonical form, NReq=25608061.
 Requested convergence on RMS density matrix=1.00D-08 within 128 cycles.
 Requested convergence on MAX density matrix=1.00D-06.
 Requested convergence on             energy=1.00D-06.
 No special actions if energy rises.
 Integral accuracy reduced to 1.0D-05 until final iterations.
 Initial convergence to 1.0D-05 achieved.  Increase integral accuracy.
 SCF Done:  E(RB3LYP) =  -117.734849467     A.U. after   15 cycles
            NFock= 15  Conv=0.28D-08     -V/T= 2.0101
 DoSCS=F DFT=T ScalE2(SS,OS)=  1.000000  1.000000
 Range of M.O.s used for correlation:     1    75
 NBasis=    75 NAE=    12 NBE=    12 NFC=     0 NFV=     0
 NROrb=     75 NOA=    12 NOB=    12 NVA=    63 NVB=    63
 Symmetrizing basis deriv contribution to polar:
 IMax=3 JMax=2 DiffMx= 0.00D+00
 G2DrvN: will do    10 centers at a time, making    1 passes.
 Calling FoFCou, ICntrl=  3107 FMM=F I1Cent=   0 AccDes= 0.00D+00.
 End of G2Drv F.D. properties file   721 does not exist.
 End of G2Drv F.D. properties file   722 does not exist.
 End of G2Drv F.D. properties file   788 does not exist.
          IDoAtm=111111111
          Differentiating once with respect to nuclear coordinates.
 Keep R1 ints in memory in canonical form, NReq=25532406.
          There are    30 degrees of freedom in the 1st order CPHF.  IDoFFX=6 NUNeed=     0.
     24 vectors produced by pass  0 Test12= 2.52D-15 3.33D-09 XBig12= 1.26D-01 1.88D-01.
 AX will form    24 AO Fock derivatives at one time.
     24 vectors produced by pass  1 Test12= 2.52D-15 3.33D-09 XBig12= 3.35D-02 8.15D-02.
     24 vectors produced by pass  2 Test12= 2.52D-15 3.33D-09 XBig12= 2.43D-04 3.45D-03.
     24 vectors produced by pass  3 Test12= 2.52D-15 3.33D-09 XBig12= 3.19D-07 1.11D-04.
     24 vectors produced by pass  4 Test12= 2.52D-15 3.33D-09 XBig12= 2.55D-10 2.69D-06.
     11 vectors produced by pass  5 Test12= 2.52D-15 3.33D-09 XBig12= 1.69D-13 1.05D-07.
 InvSVY:  IOpt=1 It=  1 EMax= 1.44D-15
 Solved reduced A of dimension   131 with    24 vectors.
 End of Minotr F.D. properties file   721 does not exist.
 End of Minotr F.D. properties file   722 does not exist.
 End of Minotr F.D. properties file   788 does not exist.

 **********************************************************************

            Population analysis using the SCF Density.

 **********************************************************************

 Alpha  occ. eigenvalues --  -10.22601 -10.21366 -10.18416  -0.80515  -0.68996
 Alpha  occ. eigenvalues --   -0.56038  -0.49244  -0.44677  -0.40508  -0.37776
 Alpha  occ. eigenvalues --   -0.29754  -0.20197
 Alpha virt. eigenvalues --   -0.09219   0.03655   0.11742   0.12872   0.15251
 Alpha virt. eigenvalues --    0.18547   0.21178   0.29448   0.35689   0.48504
 Alpha virt. eigenvalues --    0.49640   0.54193   0.59442   0.63341   0.63836
 Alpha virt. eigenvalues --    0.67082   0.70194   0.79118   0.82297   0.83304
 Alpha virt. eigenvalues --    0.87747   0.88961   0.91997   0.97346   1.00496
 Alpha virt. eigenvalues --    1.12757   1.18089   1.35299   1.43927   1.46922
 Alpha virt. eigenvalues --    1.57664   1.71988   1.83252   1.84622   1.89679
 Alpha virt. eigenvalues --    1.93880   1.96783   2.00313   2.07095   2.10273
 Alpha virt. eigenvalues --    2.12909   2.22289   2.26366   2.36370   2.37412
 Alpha virt. eigenvalues --    2.43890   2.49155   2.52053   2.54013   2.64676
 Alpha virt. eigenvalues --    2.70830   2.75869   2.86868   2.92917   3.03177
 Alpha virt. eigenvalues --    3.19358   3.32583   3.33623   3.53330   3.64340
 Alpha virt. eigenvalues --    4.15718   4.28915   4.57702
          Condensed to atoms (all electrons):
               1          2          3          4          5          6
     1  C    5.033744   0.558080  -0.060876  -0.084424   0.367938   0.021334
     2  C    0.558080   4.764355   0.615527   0.277975  -0.029266  -0.124052
     3  C   -0.060876   0.615527   5.015219  -0.029162   0.005462  -0.015753
     4  H   -0.084424   0.277975  -0.029162   0.633849  -0.014358   0.115818
     5  H    0.367938  -0.029266   0.005462  -0.014358   0.549653   0.016981
     6  H    0.021334  -0.124052  -0.015753   0.115818   0.016981   1.104773
     7  H    0.365214  -0.034269  -0.002956   0.007446  -0.037608   0.003321
     8  H   -0.009226  -0.036309   0.387278   0.004838  -0.000055  -0.000431
     9  H    0.004783  -0.019073   0.370777  -0.006341  -0.000179   0.000346
               7          8          9
     1  C    0.365214  -0.009226   0.004783
     2  C   -0.034269  -0.036309  -0.019073
     3  C   -0.002956   0.387278   0.370777
     4  H    0.007446   0.004838  -0.006341
     5  H   -0.037608  -0.000055  -0.000179
     6  H    0.003321  -0.000431   0.000346
     7  H    0.575711   0.002695  -0.000059
     8  H    0.002695   0.581455  -0.041803
     9  H   -0.000059  -0.041803   0.582015
 Mulliken charges:
               1
     1  C   -0.196565
     2  C    0.027030
     3  C   -0.285515
     4  H    0.094359
     5  H    0.141433
     6  H   -0.122337
     7  H    0.120503
     8  H    0.111559
     9  H    0.109533
 Sum of Mulliken charges =  -0.00000
 Mulliken charges with hydrogens summed into heavy atoms:
               1
     1  C    0.065371
     2  C   -0.000948
     3  C   -0.064423
 APT charges:
               1
     1  C   -0.584783
     2  C   -0.249837
     3  C   -0.809609
     4  H    0.260312
     5  H    0.732396
     6  H   -0.158647
     7  H    0.268589
     8  H    0.136846
     9  H    0.404733
 Sum of APT charges =  -0.00000
 APT charges with hydrogens summed into heavy atoms:
               1
     1  C    0.416202
     2  C   -0.148172
     3  C   -0.268030
 Electronic spatial extent (au):  <R**2>=            488.6039
 Charge=             -0.0000 electrons
 Dipole moment (field-independent basis, Debye):
    X=             -0.1165    Y=             -0.9286    Z=             -0.3936  Tot=              1.0152
 Quadrupole moment (field-independent basis, Debye-Ang):
   XX=            -18.7072   YY=            -22.8943   ZZ=            -20.9164
   XY=              3.2751   XZ=              0.7898   YZ=             -0.5920
 Traceless Quadrupole moment (field-independent basis, Debye-Ang):
   XX=              2.1321   YY=             -2.0550   ZZ=             -0.0772
   XY=              3.2751   XZ=              0.7898   YZ=             -0.5920
 Octapole moment (field-independent basis, Debye-Ang**2):
  XXX=             73.7761  YYY=              9.5072  ZZZ=            -82.5211  XYY=             29.5892
  XXY=             -5.8724  XXZ=            -26.2635  XZZ=             29.0316  YZZ=              2.6522
  YYZ=            -31.8610  XYZ=              3.7149
 Hexadecapole moment (field-independent basis, Debye-Ang**3):
 XXXX=           -367.9237 YYYY=            -61.5278 ZZZZ=           -269.0830 XXXY=             10.1842
 XXXZ=            108.9006 YYYX=            -10.5738 YYYZ=              1.9263 ZZZX=            120.6518
 ZZZY=              2.0177 XXYY=            -83.1855 XXZZ=           -109.9350 YYZZ=            -62.4907
 XXYZ=            -10.6373 YYXZ=             46.6495 ZZXY=              1.3879
 N-N= 7.012985282484D+01 E-N=-4.117958730864D+02  KE= 1.165588019249D+02
  Exact polarizability:   0.000   0.000   0.000   0.000   0.000   0.000
 Approx polarizability: 140.921 -51.466  90.751 -33.147  45.800  60.506
 Calling FoFJK, ICntrl=    100127 FMM=F ISym2X=0 I1Cent= 0 IOpClX= 0 NMat=1 NMatS=1 NMatT=0.
 -------------------------------------------------------------------
 Center     Atomic                   Forces (Hartrees/Bohr)
 Number     Number              X              Y              Z
 -------------------------------------------------------------------
      1        6          -0.000066255   -0.000002659   -0.000043113
      2        6           0.000077043   -0.000042077   -0.000027558
      3        6           0.000008866    0.000019872    0.000009221
      4        1           0.000009902    0.000045382    0.000056615
      5        1          -0.000021142   -0.000010515    0.000012846
      6        1          -0.000004374   -0.000002557   -0.000007033
      7        1          -0.000004230   -0.000002592    0.000000226
      8        1          -0.000001590   -0.000008519   -0.000000466
      9        1           0.000001779    0.000003665   -0.000000738
 -------------------------------------------------------------------
 Cartesian Forces:  Max     0.000077043 RMS     0.000028256
 IRC-IRC-IRC-IRC-IRC-IRC-IRC-IRC-IRC-IRC-IRC-IRC-IRC-IRC-IRC-IRC-IRC-IRC
          ******** Start new reaction path calculation ********
 Supplied step size of   0.1000 bohr.
    Integration on MW PES will use step size of   0.1027 sqrt(amu)*bohr.
 Point Number:   0          Path Number:   1
 Calculating another point on the path.
 IRC-IRC-IRC-IRC-IRC-IRC-IRC-IRC-IRC-IRC-IRC-IRC-IRC-IRC-IRC-IRC-IRC-IRC
                          Input orientation:                          
 ---------------------------------------------------------------------
 Center     Atomic      Atomic             Coordinates (Angstroms)
 Number     Number       Type             X           Y           Z
 ---------------------------------------------------------------------
      1          6           0       -1.207430   -0.302755   -0.116722
      2          6           0        0.032476    0.130538    0.296683
      3          6           0        1.280912    0.047961   -0.226409
      4          1           0       -0.205578    0.879885    1.164853
      5          1           0       -2.073364   -0.099924    0.500239
      6          1           0       -1.252973    1.543061    0.737803
      7          1           0       -1.332008   -0.989698   -0.954061
      8          1           0        1.445159   -0.013534   -1.298374
      9          1           0        2.157141    0.159707    0.402587
 ---------------------------------------------------------------------
                    Distance matrix (angstroms):
                    1          2          3          4          5
     1  C    0.000000
     2  C    1.376958   0.000000
     3  C    2.515329   1.356110   0.000000
     4  H    2.011164   1.171286   2.199399   0.000000
     5  H    1.082415   2.128171   3.435266   2.211417   0.000000
     6  H    2.034533   1.960150   3.096062   1.311187   1.851724
     7  H    1.090205   2.163586   2.904060   3.042036   1.859112
     8  H    2.918249   2.135564   1.086217   3.096872   3.952528
     9  H    3.435680   2.127503   1.084390   2.584985   4.239590
                    6          7          8          9
     6  H    0.000000
     7  H    3.046887   0.000000
     8  H    3.721413   2.963799   0.000000
     9  H    3.695256   3.916093   1.852080   0.000000
 Symmetry turned off by external request.
 Stoichiometry    C3H6
 Framework group  C1[X(C3H6)]
 Deg. of freedom    21
 Full point group                 C1      NOp   1
 Rotational constants (GHZ):          43.6554497           9.3715259           8.0725931
 Standard basis: 6-31G(d,p) (6D, 7F)
    75 basis functions,   126 primitive gaussians,    75 cartesian basis functions
    12 alpha electrons       12 beta electrons
       nuclear repulsion energy        70.1406122233 Hartrees.
 NAtoms=    9 NActive=    9 NUniq=    9 SFac= 1.00D+00 NAtFMM=   60 NAOKFM=F Big=F
 Integral buffers will be    131072 words long.
 Raffenetti 2 integral format.
 Two-electron integral symmetry is turned off.
 One-electron integrals computed using PRISM.
 NBasis=    75 RedAO= T EigKep=  4.22D-03  NBF=    75
 NBsUse=    75 1.00D-06 EigRej= -1.00D+00 NBFU=    75
 Initial guess from the checkpoint file:  "/scratch/brown/zhao922/pyGSM/new-benchmarking/R1-3/IRC-folder/Gau-48406.chk"
 B after Tr=     2.350189    0.476165   -2.426610
         Rot=    1.000000    0.000051    0.000050   -0.000196 Ang=   0.02 deg.
 ExpMin= 1.61D-01 ExpMax= 3.05D+03 ExpMxC= 4.57D+02 IAcc=3 IRadAn=         5 AccDes= 0.00D+00
 Harris functional with IExCor=  402 and IRadAn=       5 diagonalized for initial guess.
 HarFok:  IExCor=  402 AccDes= 0.00D+00 IRadAn=         5 IDoV= 1 UseB2=F ITyADJ=14
 ICtDFT=  3500011 ScaDFX=  1.000000  1.000000  1.000000  1.000000
 FoFCou: FMM=F IPFlag=           0 FMFlag=      100000 FMFlg1=           0
         NFxFlg=           0 DoJE=T BraDBF=F KetDBF=T FulRan=T
         wScrn=  0.000000 ICntrl=       500 IOpCl=  0 I1Cent=   200000004 NGrid=           0
         NMat0=    1 NMatS0=      1 NMatT0=    0 NMatD0=    1 NMtDS0=    0 NMtDT0=    0
 Symmetry not used in FoFCou.
 Keep R1 ints in memory in canonical form, NReq=25608061.
 Requested convergence on RMS density matrix=1.00D-08 within 128 cycles.
 Requested convergence on MAX density matrix=1.00D-06.
 Requested convergence on             energy=1.00D-06.
 No special actions if energy rises.
 Integral accuracy reduced to 1.0D-05 until final iterations.
 Initial convergence to 1.0D-05 achieved.  Increase integral accuracy.
 SCF Done:  E(RB3LYP) =  -117.735213808     A.U. after   13 cycles
            NFock= 13  Conv=0.72D-08     -V/T= 2.0101
 DoSCS=F DFT=T ScalE2(SS,OS)=  1.000000  1.000000
 Range of M.O.s used for correlation:     1    75
 NBasis=    75 NAE=    12 NBE=    12 NFC=     0 NFV=     0
 NROrb=     75 NOA=    12 NOB=    12 NVA=    63 NVB=    63
 Symmetrizing basis deriv contribution to polar:
 IMax=3 JMax=2 DiffMx= 0.00D+00
 G2DrvN: will do    10 centers at a time, making    1 passes.
 Calling FoFCou, ICntrl=  3107 FMM=F I1Cent=   0 AccDes= 0.00D+00.
 End of G2Drv F.D. properties file   721 does not exist.
 End of G2Drv F.D. properties file   722 does not exist.
 End of G2Drv F.D. properties file   788 does not exist.
          IDoAtm=111111111
          Differentiating once with respect to nuclear coordinates.
 Keep R1 ints in memory in canonical form, NReq=25532406.
          There are    30 degrees of freedom in the 1st order CPHF.  IDoFFX=6 NUNeed=     0.
     24 vectors produced by pass  0 Test12= 2.52D-15 3.33D-09 XBig12= 1.24D-01 1.91D-01.
 AX will form    24 AO Fock derivatives at one time.
     24 vectors produced by pass  1 Test12= 2.52D-15 3.33D-09 XBig12= 3.52D-02 8.60D-02.
     24 vectors produced by pass  2 Test12= 2.52D-15 3.33D-09 XBig12= 2.52D-04 3.49D-03.
     24 vectors produced by pass  3 Test12= 2.52D-15 3.33D-09 XBig12= 3.13D-07 1.11D-04.
     24 vectors produced by pass  4 Test12= 2.52D-15 3.33D-09 XBig12= 2.53D-10 2.70D-06.
     12 vectors produced by pass  5 Test12= 2.52D-15 3.33D-09 XBig12= 1.65D-13 9.57D-08.
 InvSVY:  IOpt=1 It=  1 EMax= 2.00D-15
 Solved reduced A of dimension   132 with    24 vectors.
 End of Minotr F.D. properties file   721 does not exist.
 End of Minotr F.D. properties file   722 does not exist.
 End of Minotr F.D. properties file   788 does not exist.
 Calling FoFJK, ICntrl=    100127 FMM=F ISym2X=0 I1Cent= 0 IOpClX= 0 NMat=1 NMatS=1 NMatT=0.
 -------------------------------------------------------------------
 Center     Atomic                   Forces (Hartrees/Bohr)
 Number     Number              X              Y              Z
 -------------------------------------------------------------------
      1        6          -0.001511883    0.002571048   -0.000033677
      2        6           0.001968215    0.001645103    0.003353754
      3        6          -0.000096016   -0.000537689   -0.000849332
      4        1           0.002746862   -0.002671379    0.001252461
      5        1           0.000230256   -0.001474806    0.000891755
      6        1          -0.002962226   -0.000563386   -0.003469168
      7        1          -0.000292010    0.001439139   -0.000976020
      8        1          -0.000023870   -0.001461777    0.000056237
      9        1          -0.000059328    0.001053747   -0.000226009
 -------------------------------------------------------------------
 Cartesian Forces:  Max     0.003469168 RMS     0.001661772
 IRC-IRC-IRC-IRC-IRC-IRC-IRC-IRC-IRC-IRC-IRC-IRC-IRC-IRC-IRC-IRC-IRC-IRC
 Pt  1 Step number   1 out of a maximum of 100
 Modified Bulirsch-Stoer Extrapolation Cycles:
    EPS =    0.000010000000000
      PEZero:  N= 2 I= 1 D=  2.68D-04 Err=  4.02D-04
      PEZero:  N= 3 I= 2 D=  2.68D-04 Err=  2.68D-04
      PEZero:  N= 3 I= 1 D=  5.35D-04 Err=  1.17D-07
 Maximum DWI energy   std dev =  0.000001950 at pt     1
 Maximum DWI gradient std dev =  0.019745348 at pt    21
 CORRECTOR INTEGRATION CONVERGENCE:
   Recorrection delta-x convergence threshold:    0.010000
   Delta-x Convergence Met
 Point Number:   1          Path Number:   1
   CHANGE IN THE REACTION COORDINATE =    0.10269
   NET REACTION COORDINATE UP TO THIS POINT =    0.10269
  # OF POINTS ALONG THE PATH =   1
  # OF STEPS =   1

 Calculating another point on the path.
 IRC-IRC-IRC-IRC-IRC-IRC-IRC-IRC-IRC-IRC-IRC-IRC-IRC-IRC-IRC-IRC-IRC-IRC
                          Input orientation:                          
 ---------------------------------------------------------------------
 Center     Atomic      Atomic             Coordinates (Angstroms)
 Number     Number       Type             X           Y           Z
 ---------------------------------------------------------------------
      1          6           0       -1.208419   -0.300938   -0.116682
      2          6           0        0.033781    0.131584    0.298974
      3          6           0        1.280864    0.047643   -0.226946
      4          1           0       -0.185007    0.858668    1.172741
      5          1           0       -2.071780   -0.111611    0.507474
      6          1           0       -1.275412    1.537640    0.710508
      7          1           0       -1.334344   -0.978558   -0.961808
      8          1           0        1.444940   -0.024723   -1.298096
      9          1           0        2.156785    0.167769    0.400867
 ---------------------------------------------------------------------
                    Distance matrix (angstroms):
                    1          2          3          4          5
     1  C    0.000000
     2  C    1.379458   0.000000
     3  C    2.515988   1.356043   0.000000
     4  H    2.013620   1.157579   2.183040   0.000000
     5  H    1.082039   2.129790   3.435834   2.223495   0.000000
     6  H    2.017201   1.964775   3.103781   1.365154   1.842676
     7  H    1.090535   2.166507   2.903864   3.041821   1.858548
     8  H    2.917593   2.136922   1.086057   3.089037   3.954106
     9  H    3.436879   2.125755   1.084351   2.560687   4.239125
                    6          7          8          9
     6  H    0.000000
     7  H    3.021816   0.000000
     8  H    3.725022   2.957585   0.000000
     9  H    3.708422   3.919047   1.852094   0.000000
 Symmetry turned off by external request.
 Stoichiometry    C3H6
 Framework group  C1[X(C3H6)]
 Deg. of freedom    21
 Full point group                 C1      NOp   1
 Rotational constants (GHZ):          43.8572359           9.3566958           8.0736163
 Standard basis: 6-31G(d,p) (6D, 7F)
    75 basis functions,   126 primitive gaussians,    75 cartesian basis functions
    12 alpha electrons       12 beta electrons
       nuclear repulsion energy        70.1476216235 Hartrees.
 NAtoms=    9 NActive=    9 NUniq=    9 SFac= 1.00D+00 NAtFMM=   60 NAOKFM=F Big=F
 Integral buffers will be    131072 words long.
 Raffenetti 2 integral format.
 Two-electron integral symmetry is turned off.
 One-electron integrals computed using PRISM.
 NBasis=    75 RedAO= T EigKep=  4.24D-03  NBF=    75
 NBsUse=    75 1.00D-06 EigRej= -1.00D+00 NBFU=    75
 Initial guess from the checkpoint file:  "/scratch/brown/zhao922/pyGSM/new-benchmarking/R1-3/IRC-folder/Gau-48406.chk"
 B after Tr=    -0.000095   -0.001165   -0.000816
         Rot=    1.000000    0.000095    0.000071   -0.000232 Ang=   0.03 deg.
 ExpMin= 1.61D-01 ExpMax= 3.05D+03 ExpMxC= 4.57D+02 IAcc=3 IRadAn=         5 AccDes= 0.00D+00
 Harris functional with IExCor=  402 and IRadAn=       5 diagonalized for initial guess.
 HarFok:  IExCor=  402 AccDes= 0.00D+00 IRadAn=         5 IDoV= 1 UseB2=F ITyADJ=14
 ICtDFT=  3500011 ScaDFX=  1.000000  1.000000  1.000000  1.000000
 FoFCou: FMM=F IPFlag=           0 FMFlag=      100000 FMFlg1=           0
         NFxFlg=           0 DoJE=T BraDBF=F KetDBF=T FulRan=T
         wScrn=  0.000000 ICntrl=       500 IOpCl=  0 I1Cent=   200000004 NGrid=           0
         NMat0=    1 NMatS0=      1 NMatT0=    0 NMatD0=    1 NMtDS0=    0 NMtDT0=    0
 Symmetry not used in FoFCou.
 Keep R1 ints in memory in canonical form, NReq=25608061.
 Requested convergence on RMS density matrix=1.00D-08 within 128 cycles.
 Requested convergence on MAX density matrix=1.00D-06.
 Requested convergence on             energy=1.00D-06.
 No special actions if energy rises.
 Integral accuracy reduced to 1.0D-05 until final iterations.
 Initial convergence to 1.0D-05 achieved.  Increase integral accuracy.
 SCF Done:  E(RB3LYP) =  -117.736258510     A.U. after   13 cycles
            NFock= 13  Conv=0.57D-08     -V/T= 2.0101
 DoSCS=F DFT=T ScalE2(SS,OS)=  1.000000  1.000000
 Range of M.O.s used for correlation:     1    75
 NBasis=    75 NAE=    12 NBE=    12 NFC=     0 NFV=     0
 NROrb=     75 NOA=    12 NOB=    12 NVA=    63 NVB=    63
 Symmetrizing basis deriv contribution to polar:
 IMax=3 JMax=2 DiffMx= 0.00D+00
 G2DrvN: will do    10 centers at a time, making    1 passes.
 Calling FoFCou, ICntrl=  3107 FMM=F I1Cent=   0 AccDes= 0.00D+00.
 End of G2Drv F.D. properties file   721 does not exist.
 End of G2Drv F.D. properties file   722 does not exist.
 End of G2Drv F.D. properties file   788 does not exist.
          IDoAtm=111111111
          Differentiating once with respect to nuclear coordinates.
 Keep R1 ints in memory in canonical form, NReq=25532406.
          There are    30 degrees of freedom in the 1st order CPHF.  IDoFFX=6 NUNeed=     0.
     24 vectors produced by pass  0 Test12= 2.52D-15 3.33D-09 XBig12= 1.23D-01 1.94D-01.
 AX will form    24 AO Fock derivatives at one time.
     24 vectors produced by pass  1 Test12= 2.52D-15 3.33D-09 XBig12= 3.65D-02 8.98D-02.
     24 vectors produced by pass  2 Test12= 2.52D-15 3.33D-09 XBig12= 2.58D-04 3.48D-03.
     24 vectors produced by pass  3 Test12= 2.52D-15 3.33D-09 XBig12= 3.11D-07 1.19D-04.
     24 vectors produced by pass  4 Test12= 2.52D-15 3.33D-09 XBig12= 2.72D-10 2.88D-06.
     12 vectors produced by pass  5 Test12= 2.52D-15 3.33D-09 XBig12= 1.73D-13 8.79D-08.
 InvSVY:  IOpt=1 It=  1 EMax= 1.11D-15
 Solved reduced A of dimension   132 with    24 vectors.
 End of Minotr F.D. properties file   721 does not exist.
 End of Minotr F.D. properties file   722 does not exist.
 End of Minotr F.D. properties file   788 does not exist.
 Calling FoFJK, ICntrl=    100127 FMM=F ISym2X=0 I1Cent= 0 IOpClX= 0 NMat=1 NMatS=1 NMatT=0.
 -------------------------------------------------------------------
 Center     Atomic                   Forces (Hartrees/Bohr)
 Number     Number              X              Y              Z
 -------------------------------------------------------------------
      1        6          -0.002922875    0.005539776    0.000247981
      2        6           0.003985597    0.002820949    0.006537445
      3        6          -0.000214144   -0.000930972   -0.001578116
      4        1           0.004889843   -0.005031758    0.002062839
      5        1           0.000449248   -0.002938866    0.001749265
      6        1          -0.005459123   -0.001512447   -0.006805311
      7        1          -0.000580343    0.002814071   -0.001868460
      8        1          -0.000051484   -0.002733479    0.000097367
      9        1          -0.000096717    0.001972726   -0.000443010
 -------------------------------------------------------------------
 Cartesian Forces:  Max     0.006805311 RMS     0.003199484
 IRC-IRC-IRC-IRC-IRC-IRC-IRC-IRC-IRC-IRC-IRC-IRC-IRC-IRC-IRC-IRC-IRC-IRC
 Pt  2 Step number   1 out of a maximum of 100
 Modified Bulirsch-Stoer Extrapolation Cycles:
    EPS =    0.000010000000000
      PEZero:  N= 2 I= 1 D=  5.35D-04 Err=  2.45D-05
      PEZero:  N= 3 I= 2 D=  5.35D-04 Err=  1.63D-05
      PEZero:  N= 3 I= 1 D=  1.07D-03 Err=  5.45D-08
 Maximum DWI energy   std dev =  0.000001853 at pt    27
 Maximum DWI gradient std dev =  0.010961498 at pt    12
 CORRECTOR INTEGRATION CONVERGENCE:
   Recorrection delta-x convergence threshold:    0.010000
   Delta-x Convergence Met
 Point Number:   2          Path Number:   1
   CHANGE IN THE REACTION COORDINATE =    0.10268
   NET REACTION COORDINATE UP TO THIS POINT =    0.20537
  # OF POINTS ALONG THE PATH =   2
  # OF STEPS =   1

 Calculating another point on the path.
 IRC-IRC-IRC-IRC-IRC-IRC-IRC-IRC-IRC-IRC-IRC-IRC-IRC-IRC-IRC-IRC-IRC-IRC
                          Input orientation:                          
 ---------------------------------------------------------------------
 Center     Atomic      Atomic             Coordinates (Angstroms)
 Number     Number       Type             X           Y           Z
 ---------------------------------------------------------------------
      1          6           0       -1.209436   -0.298931   -0.116557
      2          6           0        0.035216    0.132480    0.301216
      3          6           0        1.280779    0.047342   -0.227476
      4          1           0       -0.165693    0.838527    1.180934
      5          1           0       -2.070069   -0.123893    0.514806
      6          1           0       -1.297380    1.530572    0.682267
      7          1           0       -1.336781   -0.966954   -0.969497
      8          1           0        1.444721   -0.035812   -1.297737
      9          1           0        2.156429    0.175774    0.399034
 ---------------------------------------------------------------------
                    Distance matrix (angstroms):
                    1          2          3          4          5
     1  C    0.000000
     2  C    1.381958   0.000000
     3  C    2.516620   1.355799   0.000000
     4  H    2.016603   1.145762   2.168380   0.000000
     5  H    1.081641   2.131565   3.436347   2.235313   0.000000
     6  H    1.998233   1.968673   3.110387   1.417149   1.833670
     7  H    1.090862   2.169295   2.903620   3.042295   1.857854
     8  H    2.917014   2.138148   1.085933   3.082485   3.955606
     9  H    3.438056   2.123909   1.084331   2.538280   4.238690
                    6          7          8          9
     6  H    0.000000
     7  H    2.994581   0.000000
     8  H    3.727345   2.951528   0.000000
     9  H    3.720820   3.921890   1.852115   0.000000
 Symmetry turned off by external request.
 Stoichiometry    C3H6
 Framework group  C1[X(C3H6)]
 Deg. of freedom    21
 Full point group                 C1      NOp   1
 Rotational constants (GHZ):          44.0733876           9.3416895           8.0751001
 Standard basis: 6-31G(d,p) (6D, 7F)
    75 basis functions,   126 primitive gaussians,    75 cartesian basis functions
    12 alpha electrons       12 beta electrons
       nuclear repulsion energy        70.1558617207 Hartrees.
 NAtoms=    9 NActive=    9 NUniq=    9 SFac= 1.00D+00 NAtFMM=   60 NAOKFM=F Big=F
 Integral buffers will be    131072 words long.
 Raffenetti 2 integral format.
 Two-electron integral symmetry is turned off.
 One-electron integrals computed using PRISM.
 NBasis=    75 RedAO= T EigKep=  4.26D-03  NBF=    75
 NBsUse=    75 1.00D-06 EigRej= -1.00D+00 NBFU=    75
 Initial guess from the checkpoint file:  "/scratch/brown/zhao922/pyGSM/new-benchmarking/R1-3/IRC-folder/Gau-48406.chk"
 B after Tr=    -0.000123   -0.001190   -0.000834
         Rot=    1.000000    0.000113    0.000081   -0.000251 Ang=   0.03 deg.
 ExpMin= 1.61D-01 ExpMax= 3.05D+03 ExpMxC= 4.57D+02 IAcc=3 IRadAn=         5 AccDes= 0.00D+00
 Harris functional with IExCor=  402 and IRadAn=       5 diagonalized for initial guess.
 HarFok:  IExCor=  402 AccDes= 0.00D+00 IRadAn=         5 IDoV= 1 UseB2=F ITyADJ=14
 ICtDFT=  3500011 ScaDFX=  1.000000  1.000000  1.000000  1.000000
 FoFCou: FMM=F IPFlag=           0 FMFlag=      100000 FMFlg1=           0
         NFxFlg=           0 DoJE=T BraDBF=F KetDBF=T FulRan=T
         wScrn=  0.000000 ICntrl=       500 IOpCl=  0 I1Cent=   200000004 NGrid=           0
         NMat0=    1 NMatS0=      1 NMatT0=    0 NMatD0=    1 NMtDS0=    0 NMtDT0=    0
 Symmetry not used in FoFCou.
 Keep R1 ints in memory in canonical form, NReq=25608061.
 Requested convergence on RMS density matrix=1.00D-08 within 128 cycles.
 Requested convergence on MAX density matrix=1.00D-06.
 Requested convergence on             energy=1.00D-06.
 No special actions if energy rises.
 Integral accuracy reduced to 1.0D-05 until final iterations.
 Initial convergence to 1.0D-05 achieved.  Increase integral accuracy.
 SCF Done:  E(RB3LYP) =  -117.737911552     A.U. after   13 cycles
            NFock= 13  Conv=0.30D-08     -V/T= 2.0101
 DoSCS=F DFT=T ScalE2(SS,OS)=  1.000000  1.000000
 Range of M.O.s used for correlation:     1    75
 NBasis=    75 NAE=    12 NBE=    12 NFC=     0 NFV=     0
 NROrb=     75 NOA=    12 NOB=    12 NVA=    63 NVB=    63
 Symmetrizing basis deriv contribution to polar:
 IMax=3 JMax=2 DiffMx= 0.00D+00
 G2DrvN: will do    10 centers at a time, making    1 passes.
 Calling FoFCou, ICntrl=  3107 FMM=F I1Cent=   0 AccDes= 0.00D+00.
 End of G2Drv F.D. properties file   721 does not exist.
 End of G2Drv F.D. properties file   722 does not exist.
 End of G2Drv F.D. properties file   788 does not exist.
          IDoAtm=111111111
          Differentiating once with respect to nuclear coordinates.
 Keep R1 ints in memory in canonical form, NReq=25532406.
          There are    30 degrees of freedom in the 1st order CPHF.  IDoFFX=6 NUNeed=     0.
     24 vectors produced by pass  0 Test12= 2.52D-15 3.33D-09 XBig12= 1.25D-01 1.98D-01.
 AX will form    24 AO Fock derivatives at one time.
     24 vectors produced by pass  1 Test12= 2.52D-15 3.33D-09 XBig12= 3.75D-02 9.28D-02.
     24 vectors produced by pass  2 Test12= 2.52D-15 3.33D-09 XBig12= 2.61D-04 3.42D-03.
     24 vectors produced by pass  3 Test12= 2.52D-15 3.33D-09 XBig12= 3.34D-07 1.27D-04.
     24 vectors produced by pass  4 Test12= 2.52D-15 3.33D-09 XBig12= 2.90D-10 2.93D-06.
     12 vectors produced by pass  5 Test12= 2.52D-15 3.33D-09 XBig12= 1.78D-13 8.12D-08.
 InvSVY:  IOpt=1 It=  1 EMax= 1.33D-15
 Solved reduced A of dimension   132 with    24 vectors.
 End of Minotr F.D. properties file   721 does not exist.
 End of Minotr F.D. properties file   722 does not exist.
 End of Minotr F.D. properties file   788 does not exist.
 Calling FoFJK, ICntrl=    100127 FMM=F ISym2X=0 I1Cent= 0 IOpClX= 0 NMat=1 NMatS=1 NMatT=0.
 -------------------------------------------------------------------
 Center     Atomic                   Forces (Hartrees/Bohr)
 Number     Number              X              Y              Z
 -------------------------------------------------------------------
      1        6          -0.004418639    0.008815478    0.000692662
      2        6           0.006366284    0.003299009    0.009129608
      3        6          -0.000429708   -0.001197821   -0.002182610
      4        1           0.006495083   -0.006748341    0.003026201
      5        1           0.000642653   -0.004435693    0.002561469
      6        1          -0.007577025   -0.002817658   -0.010062437
      7        1          -0.000874480    0.004160515   -0.002650313
      8        1          -0.000077719   -0.003864504    0.000155688
      9        1          -0.000126449    0.002789015   -0.000670266
 -------------------------------------------------------------------
 Cartesian Forces:  Max     0.010062437 RMS     0.004624039
 IRC-IRC-IRC-IRC-IRC-IRC-IRC-IRC-IRC-IRC-IRC-IRC-IRC-IRC-IRC-IRC-IRC-IRC
 Pt  3 Step number   1 out of a maximum of 100
 Modified Bulirsch-Stoer Extrapolation Cycles:
    EPS =    0.000010000000000
      PEZero:  N= 2 I= 1 D=  5.35D-04 Err=  2.75D-05
      PEZero:  N= 3 I= 2 D=  5.35D-04 Err=  1.83D-05
      PEZero:  N= 3 I= 1 D=  1.07D-03 Err=  3.95D-08
 Maximum DWI energy   std dev =  0.000001579 at pt    28
 Maximum DWI gradient std dev =  0.005493646 at pt    24
 CORRECTOR INTEGRATION CONVERGENCE:
   Recorrection delta-x convergence threshold:    0.010000
   Delta-x Convergence Met
 Point Number:   3          Path Number:   1
   CHANGE IN THE REACTION COORDINATE =    0.10268
   NET REACTION COORDINATE UP TO THIS POINT =    0.30805
  # OF POINTS ALONG THE PATH =   3
  # OF STEPS =   1

 Calculating another point on the path.
 IRC-IRC-IRC-IRC-IRC-IRC-IRC-IRC-IRC-IRC-IRC-IRC-IRC-IRC-IRC-IRC-IRC-IRC
                          Input orientation:                          
 ---------------------------------------------------------------------
 Center     Atomic      Atomic             Coordinates (Angstroms)
 Number     Number       Type             X           Y           Z
 ---------------------------------------------------------------------
      1          6           0       -1.210522   -0.296705   -0.116352
      2          6           0        0.036815    0.133196    0.303396
      3          6           0        1.280663    0.047071   -0.227988
      4          1           0       -0.147770    0.819742    1.189501
      5          1           0       -2.068287   -0.136887    0.522263
      6          1           0       -1.318686    1.521558    0.653039
      7          1           0       -1.339351   -0.954920   -0.977073
      8          1           0        1.444491   -0.046787   -1.297294
      9          1           0        2.156096    0.183697    0.397080
 ---------------------------------------------------------------------
                    Distance matrix (angstroms):
                    1          2          3          4          5
     1  C    0.000000
     2  C    1.384505   0.000000
     3  C    2.517270   1.355339   0.000000
     4  H    2.020185   1.136045   2.155624   0.000000
     5  H    1.081264   2.133613   3.436885   2.246938   0.000000
     6  H    1.977307   1.971593   3.115595   1.466759   1.824677
     7  H    1.091185   2.171965   2.903375   3.043572   1.857023
     8  H    2.916535   2.139195   1.085847   3.077388   3.957084
     9  H    3.439261   2.121951   1.084325   2.517992   4.238379
                    6          7          8          9
     6  H    0.000000
     7  H    2.964901   0.000000
     8  H    3.728089   2.945679   0.000000
     9  H    3.732224   3.924652   1.852136   0.000000
 Symmetry turned off by external request.
 Stoichiometry    C3H6
 Framework group  C1[X(C3H6)]
 Deg. of freedom    21
 Full point group                 C1      NOp   1
 Rotational constants (GHZ):          44.3070263           9.3263910           8.0768894
 Standard basis: 6-31G(d,p) (6D, 7F)
    75 basis functions,   126 primitive gaussians,    75 cartesian basis functions
    12 alpha electrons       12 beta electrons
       nuclear repulsion energy        70.1643504850 Hartrees.
 NAtoms=    9 NActive=    9 NUniq=    9 SFac= 1.00D+00 NAtFMM=   60 NAOKFM=F Big=F
 Integral buffers will be    131072 words long.
 Raffenetti 2 integral format.
 Two-electron integral symmetry is turned off.
 One-electron integrals computed using PRISM.
 NBasis=    75 RedAO= T EigKep=  4.27D-03  NBF=    75
 NBsUse=    75 1.00D-06 EigRej= -1.00D+00 NBFU=    75
 Initial guess from the checkpoint file:  "/scratch/brown/zhao922/pyGSM/new-benchmarking/R1-3/IRC-folder/Gau-48406.chk"
 B after Tr=    -0.000151   -0.001221   -0.000847
         Rot=    1.000000    0.000135    0.000091   -0.000272 Ang=   0.04 deg.
 ExpMin= 1.61D-01 ExpMax= 3.05D+03 ExpMxC= 4.57D+02 IAcc=3 IRadAn=         5 AccDes= 0.00D+00
 Harris functional with IExCor=  402 and IRadAn=       5 diagonalized for initial guess.
 HarFok:  IExCor=  402 AccDes= 0.00D+00 IRadAn=         5 IDoV= 1 UseB2=F ITyADJ=14
 ICtDFT=  3500011 ScaDFX=  1.000000  1.000000  1.000000  1.000000
 FoFCou: FMM=F IPFlag=           0 FMFlag=      100000 FMFlg1=           0
         NFxFlg=           0 DoJE=T BraDBF=F KetDBF=T FulRan=T
         wScrn=  0.000000 ICntrl=       500 IOpCl=  0 I1Cent=   200000004 NGrid=           0
         NMat0=    1 NMatS0=      1 NMatT0=    0 NMatD0=    1 NMtDS0=    0 NMtDT0=    0
 Symmetry not used in FoFCou.
 Keep R1 ints in memory in canonical form, NReq=25608061.
 Requested convergence on RMS density matrix=1.00D-08 within 128 cycles.
 Requested convergence on MAX density matrix=1.00D-06.
 Requested convergence on             energy=1.00D-06.
 No special actions if energy rises.
 Integral accuracy reduced to 1.0D-05 until final iterations.
 Initial convergence to 1.0D-05 achieved.  Increase integral accuracy.
 SCF Done:  E(RB3LYP) =  -117.740118161     A.U. after   13 cycles
            NFock= 13  Conv=0.19D-08     -V/T= 2.0101
 DoSCS=F DFT=T ScalE2(SS,OS)=  1.000000  1.000000
 Range of M.O.s used for correlation:     1    75
 NBasis=    75 NAE=    12 NBE=    12 NFC=     0 NFV=     0
 NROrb=     75 NOA=    12 NOB=    12 NVA=    63 NVB=    63
 Symmetrizing basis deriv contribution to polar:
 IMax=3 JMax=2 DiffMx= 0.00D+00
 G2DrvN: will do    10 centers at a time, making    1 passes.
 Calling FoFCou, ICntrl=  3107 FMM=F I1Cent=   0 AccDes= 0.00D+00.
 End of G2Drv F.D. properties file   721 does not exist.
 End of G2Drv F.D. properties file   722 does not exist.
 End of G2Drv F.D. properties file   788 does not exist.
          IDoAtm=111111111
          Differentiating once with respect to nuclear coordinates.
 Keep R1 ints in memory in canonical form, NReq=25532406.
          There are    30 degrees of freedom in the 1st order CPHF.  IDoFFX=6 NUNeed=     0.
     24 vectors produced by pass  0 Test12= 2.52D-15 3.33D-09 XBig12= 1.26D-01 2.00D-01.
 AX will form    24 AO Fock derivatives at one time.
     24 vectors produced by pass  1 Test12= 2.52D-15 3.33D-09 XBig12= 3.79D-02 9.48D-02.
     24 vectors produced by pass  2 Test12= 2.52D-15 3.33D-09 XBig12= 2.63D-04 3.30D-03.
     24 vectors produced by pass  3 Test12= 2.52D-15 3.33D-09 XBig12= 3.55D-07 1.36D-04.
     24 vectors produced by pass  4 Test12= 2.52D-15 3.33D-09 XBig12= 3.06D-10 3.06D-06.
     11 vectors produced by pass  5 Test12= 2.52D-15 3.33D-09 XBig12= 1.80D-13 7.53D-08.
 InvSVY:  IOpt=1 It=  1 EMax= 2.33D-15
 Solved reduced A of dimension   131 with    24 vectors.
 End of Minotr F.D. properties file   721 does not exist.
 End of Minotr F.D. properties file   722 does not exist.
 End of Minotr F.D. properties file   788 does not exist.
 Calling FoFJK, ICntrl=    100127 FMM=F ISym2X=0 I1Cent= 0 IOpClX= 0 NMat=1 NMatS=1 NMatT=0.
 -------------------------------------------------------------------
 Center     Atomic                   Forces (Hartrees/Bohr)
 Number     Number              X              Y              Z
 -------------------------------------------------------------------
      1        6          -0.005993457    0.012396153    0.001293797
      2        6           0.008918003    0.003314050    0.011364519
      3        6          -0.000692399   -0.001348732   -0.002675369
      4        1           0.007665660   -0.008039399    0.003918538
      5        1           0.000843791   -0.005952938    0.003316985
      6        1          -0.009315762   -0.004483080   -0.013230135
      7        1          -0.001173229    0.005462659   -0.003315784
      8        1          -0.000104800   -0.004853145    0.000229259
      9        1          -0.000147807    0.003504430   -0.000901810
 -------------------------------------------------------------------
 Cartesian Forces:  Max     0.013230135 RMS     0.005984998
 IRC-IRC-IRC-IRC-IRC-IRC-IRC-IRC-IRC-IRC-IRC-IRC-IRC-IRC-IRC-IRC-IRC-IRC
 Pt  4 Step number   1 out of a maximum of 100
 Modified Bulirsch-Stoer Extrapolation Cycles:
    EPS =    0.000010000000000
      PEZero:  N= 2 I= 1 D=  5.35D-04 Err=  2.92D-05
      PEZero:  N= 3 I= 2 D=  5.35D-04 Err=  1.95D-05
      PEZero:  N= 3 I= 1 D=  1.07D-03 Err=  2.95D-08
 Maximum DWI energy   std dev =  0.000001301 at pt    28
 Maximum DWI gradient std dev =  0.003461934 at pt    24
 CORRECTOR INTEGRATION CONVERGENCE:
   Recorrection delta-x convergence threshold:    0.010000
   Delta-x Convergence Met
 Point Number:   4          Path Number:   1
   CHANGE IN THE REACTION COORDINATE =    0.10268
   NET REACTION COORDINATE UP TO THIS POINT =    0.41074
  # OF POINTS ALONG THE PATH =   4
  # OF STEPS =   1

 Calculating another point on the path.
 IRC-IRC-IRC-IRC-IRC-IRC-IRC-IRC-IRC-IRC-IRC-IRC-IRC-IRC-IRC-IRC-IRC-IRC
                          Input orientation:                          
 ---------------------------------------------------------------------
 Center     Atomic      Atomic             Coordinates (Angstroms)
 Number     Number       Type             X           Y           Z
 ---------------------------------------------------------------------
      1          6           0       -1.211680   -0.294263   -0.116073
      2          6           0        0.038560    0.133747    0.305520
      3          6           0        1.280521    0.046835   -0.228480
      4          1           0       -0.131212    0.802249    1.198211
      5          1           0       -2.066416   -0.150540    0.529797
      6          1           0       -1.339160    1.510502    0.622953
      7          1           0       -1.342049   -0.942551   -0.984458
      8          1           0        1.444249   -0.057572   -1.296768
      9          1           0        2.155789    0.191490    0.395020
 ---------------------------------------------------------------------
                    Distance matrix (angstroms):
                    1          2          3          4          5
     1  C    0.000000
     2  C    1.387096   0.000000
     3  C    2.517946   1.354687   0.000000
     4  H    2.024128   1.128102   2.144548   0.000000
     5  H    1.080915   2.135894   3.437430   2.258229   0.000000
     6  H    1.954377   1.973406   3.119293   1.513830   1.815665
     7  H    1.091497   2.174521   2.903147   3.045405   1.856059
     8  H    2.916166   2.140069   1.085794   3.073482   3.958504
     9  H    3.440497   2.119906   1.084330   2.499703   4.238179
                    6          7          8          9
     6  H    0.000000
     7  H    2.932788   0.000000
     8  H    3.727138   2.940099   0.000000
     9  H    3.742514   3.927325   1.852152   0.000000
 Symmetry turned off by external request.
 Stoichiometry    C3H6
 Framework group  C1[X(C3H6)]
 Deg. of freedom    21
 Full point group                 C1      NOp   1
 Rotational constants (GHZ):          44.5612368           9.3109775           8.0790424
 Standard basis: 6-31G(d,p) (6D, 7F)
    75 basis functions,   126 primitive gaussians,    75 cartesian basis functions
    12 alpha electrons       12 beta electrons
       nuclear repulsion energy        70.1739359147 Hartrees.
 NAtoms=    9 NActive=    9 NUniq=    9 SFac= 1.00D+00 NAtFMM=   60 NAOKFM=F Big=F
 Integral buffers will be    131072 words long.
 Raffenetti 2 integral format.
 Two-electron integral symmetry is turned off.
 One-electron integrals computed using PRISM.
 NBasis=    75 RedAO= T EigKep=  4.29D-03  NBF=    75
 NBsUse=    75 1.00D-06 EigRej= -1.00D+00 NBFU=    75
 Initial guess from the checkpoint file:  "/scratch/brown/zhao922/pyGSM/new-benchmarking/R1-3/IRC-folder/Gau-48406.chk"
 B after Tr=    -0.000171   -0.001259   -0.000862
         Rot=    1.000000    0.000158    0.000100   -0.000294 Ang=   0.04 deg.
 ExpMin= 1.61D-01 ExpMax= 3.05D+03 ExpMxC= 4.57D+02 IAcc=3 IRadAn=         5 AccDes= 0.00D+00
 Harris functional with IExCor=  402 and IRadAn=       5 diagonalized for initial guess.
 HarFok:  IExCor=  402 AccDes= 0.00D+00 IRadAn=         5 IDoV= 1 UseB2=F ITyADJ=14
 ICtDFT=  3500011 ScaDFX=  1.000000  1.000000  1.000000  1.000000
 FoFCou: FMM=F IPFlag=           0 FMFlag=      100000 FMFlg1=           0
         NFxFlg=           0 DoJE=T BraDBF=F KetDBF=T FulRan=T
         wScrn=  0.000000 ICntrl=       500 IOpCl=  0 I1Cent=   200000004 NGrid=           0
         NMat0=    1 NMatS0=      1 NMatT0=    0 NMatD0=    1 NMtDS0=    0 NMtDT0=    0
 Symmetry not used in FoFCou.
 Keep R1 ints in memory in canonical form, NReq=25608061.
 Requested convergence on RMS density matrix=1.00D-08 within 128 cycles.
 Requested convergence on MAX density matrix=1.00D-06.
 Requested convergence on             energy=1.00D-06.
 No special actions if energy rises.
 Integral accuracy reduced to 1.0D-05 until final iterations.
 Initial convergence to 1.0D-05 achieved.  Increase integral accuracy.
 SCF Done:  E(RB3LYP) =  -117.742838116     A.U. after   12 cycles
            NFock= 12  Conv=0.93D-08     -V/T= 2.0101
 DoSCS=F DFT=T ScalE2(SS,OS)=  1.000000  1.000000
 Range of M.O.s used for correlation:     1    75
 NBasis=    75 NAE=    12 NBE=    12 NFC=     0 NFV=     0
 NROrb=     75 NOA=    12 NOB=    12 NVA=    63 NVB=    63
 Symmetrizing basis deriv contribution to polar:
 IMax=3 JMax=2 DiffMx= 0.00D+00
 G2DrvN: will do    10 centers at a time, making    1 passes.
 Calling FoFCou, ICntrl=  3107 FMM=F I1Cent=   0 AccDes= 0.00D+00.
 End of G2Drv F.D. properties file   721 does not exist.
 End of G2Drv F.D. properties file   722 does not exist.
 End of G2Drv F.D. properties file   788 does not exist.
          IDoAtm=111111111
          Differentiating once with respect to nuclear coordinates.
 Keep R1 ints in memory in canonical form, NReq=25532406.
          There are    30 degrees of freedom in the 1st order CPHF.  IDoFFX=6 NUNeed=     0.
     24 vectors produced by pass  0 Test12= 2.52D-15 3.33D-09 XBig12= 1.28D-01 2.02D-01.
 AX will form    24 AO Fock derivatives at one time.
     24 vectors produced by pass  1 Test12= 2.52D-15 3.33D-09 XBig12= 3.76D-02 9.59D-02.
     24 vectors produced by pass  2 Test12= 2.52D-15 3.33D-09 XBig12= 2.62D-04 3.32D-03.
     24 vectors produced by pass  3 Test12= 2.52D-15 3.33D-09 XBig12= 3.76D-07 1.45D-04.
     24 vectors produced by pass  4 Test12= 2.52D-15 3.33D-09 XBig12= 3.19D-10 3.19D-06.
     10 vectors produced by pass  5 Test12= 2.52D-15 3.33D-09 XBig12= 1.80D-13 7.02D-08.
 InvSVY:  IOpt=1 It=  1 EMax= 1.44D-15
 Solved reduced A of dimension   130 with    24 vectors.
 End of Minotr F.D. properties file   721 does not exist.
 End of Minotr F.D. properties file   722 does not exist.
 End of Minotr F.D. properties file   788 does not exist.
 Calling FoFJK, ICntrl=    100127 FMM=F ISym2X=0 I1Cent= 0 IOpClX= 0 NMat=1 NMatS=1 NMatT=0.
 -------------------------------------------------------------------
 Center     Atomic                   Forces (Hartrees/Bohr)
 Number     Number              X              Y              Z
 -------------------------------------------------------------------
      1        6          -0.007657706    0.016266881    0.002014773
      2        6           0.011559384    0.002990680    0.013332341
      3        6          -0.000977160   -0.001400701   -0.003065151
      4        1           0.008497860   -0.009005450    0.004703263
      5        1           0.001058764   -0.007484382    0.004021173
      6        1          -0.010710408   -0.006496302   -0.016318821
      7        1          -0.001476619    0.006711437   -0.003868448
      8        1          -0.000133209   -0.005711988    0.000314689
      9        1          -0.000160907    0.004129824   -0.001133818
 -------------------------------------------------------------------
 Cartesian Forces:  Max     0.016318821 RMS     0.007316129
 IRC-IRC-IRC-IRC-IRC-IRC-IRC-IRC-IRC-IRC-IRC-IRC-IRC-IRC-IRC-IRC-IRC-IRC
 Pt  5 Step number   1 out of a maximum of 100
 Modified Bulirsch-Stoer Extrapolation Cycles:
    EPS =    0.000010000000000
      PEZero:  N= 2 I= 1 D=  5.35D-04 Err=  3.02D-05
      PEZero:  N= 3 I= 2 D=  5.35D-04 Err=  2.01D-05
      PEZero:  N= 3 I= 1 D=  1.07D-03 Err=  2.18D-08
 Maximum DWI energy   std dev =  0.000001067 at pt    28
 Maximum DWI gradient std dev =  0.002429361 at pt    24
 CORRECTOR INTEGRATION CONVERGENCE:
   Recorrection delta-x convergence threshold:    0.010000
   Delta-x Convergence Met
 Point Number:   5          Path Number:   1
   CHANGE IN THE REACTION COORDINATE =    0.10268
   NET REACTION COORDINATE UP TO THIS POINT =    0.51342
  # OF POINTS ALONG THE PATH =   5
  # OF STEPS =   1

 Calculating another point on the path.
 IRC-IRC-IRC-IRC-IRC-IRC-IRC-IRC-IRC-IRC-IRC-IRC-IRC-IRC-IRC-IRC-IRC-IRC
                          Input orientation:                          
 ---------------------------------------------------------------------
 Center     Atomic      Atomic             Coordinates (Angstroms)
 Number     Number       Type             X           Y           Z
 ---------------------------------------------------------------------
      1          6           0       -1.212912   -0.291609   -0.115725
      2          6           0        0.040427    0.134148    0.307590
      3          6           0        1.280359    0.046632   -0.228946
      4          1           0       -0.115967    0.785983    1.206875
      5          1           0       -2.064440   -0.164778    0.537361
      6          1           0       -1.358669    1.497358    0.592155
      7          1           0       -1.344867   -0.929946   -0.991581
      8          1           0        1.443994   -0.068104   -1.296164
      9          1           0        2.155511    0.199113    0.392872
 ---------------------------------------------------------------------
                    Distance matrix (angstroms):
                    1          2          3          4          5
     1  C    0.000000
     2  C    1.389720   0.000000
     3  C    2.518655   1.353869   0.000000
     4  H    2.028242   1.121634   2.134935   0.000000
     5  H    1.080606   2.138368   3.437965   2.269085   0.000000
     6  H    1.929442   1.974029   3.121422   1.558282   1.806603
     7  H    1.091792   2.176966   2.902951   3.047592   1.854975
     8  H    2.915911   2.140778   1.085769   3.070529   3.959832
     9  H    3.441766   2.117800   1.084343   2.483270   4.238076
                    6          7          8          9
     6  H    0.000000
     7  H    2.898313   0.000000
     8  H    3.724424   2.934840   0.000000
     9  H    3.751615   3.929902   1.852162   0.000000
 Symmetry turned off by external request.
 Stoichiometry    C3H6
 Framework group  C1[X(C3H6)]
 Deg. of freedom    21
 Full point group                 C1      NOp   1
 Rotational constants (GHZ):          44.8379515           9.2956227           8.0815716
 Standard basis: 6-31G(d,p) (6D, 7F)
    75 basis functions,   126 primitive gaussians,    75 cartesian basis functions
    12 alpha electrons       12 beta electrons
       nuclear repulsion energy        70.1853569185 Hartrees.
 NAtoms=    9 NActive=    9 NUniq=    9 SFac= 1.00D+00 NAtFMM=   60 NAOKFM=F Big=F
 Integral buffers will be    131072 words long.
 Raffenetti 2 integral format.
 Two-electron integral symmetry is turned off.
 One-electron integrals computed using PRISM.
 NBasis=    75 RedAO= T EigKep=  4.30D-03  NBF=    75
 NBsUse=    75 1.00D-06 EigRej= -1.00D+00 NBFU=    75
 Initial guess from the checkpoint file:  "/scratch/brown/zhao922/pyGSM/new-benchmarking/R1-3/IRC-folder/Gau-48406.chk"
 B after Tr=    -0.000183   -0.001301   -0.000878
         Rot=    1.000000    0.000179    0.000108   -0.000314 Ang=   0.04 deg.
 ExpMin= 1.61D-01 ExpMax= 3.05D+03 ExpMxC= 4.57D+02 IAcc=3 IRadAn=         5 AccDes= 0.00D+00
 Harris functional with IExCor=  402 and IRadAn=       5 diagonalized for initial guess.
 HarFok:  IExCor=  402 AccDes= 0.00D+00 IRadAn=         5 IDoV= 1 UseB2=F ITyADJ=14
 ICtDFT=  3500011 ScaDFX=  1.000000  1.000000  1.000000  1.000000
 FoFCou: FMM=F IPFlag=           0 FMFlag=      100000 FMFlg1=           0
         NFxFlg=           0 DoJE=T BraDBF=F KetDBF=T FulRan=T
         wScrn=  0.000000 ICntrl=       500 IOpCl=  0 I1Cent=   200000004 NGrid=           0
         NMat0=    1 NMatS0=      1 NMatT0=    0 NMatD0=    1 NMtDS0=    0 NMtDT0=    0
 Symmetry not used in FoFCou.
 Keep R1 ints in memory in canonical form, NReq=25608061.
 Requested convergence on RMS density matrix=1.00D-08 within 128 cycles.
 Requested convergence on MAX density matrix=1.00D-06.
 Requested convergence on             energy=1.00D-06.
 No special actions if energy rises.
 Integral accuracy reduced to 1.0D-05 until final iterations.
 Initial convergence to 1.0D-05 achieved.  Increase integral accuracy.
 SCF Done:  E(RB3LYP) =  -117.746044639     A.U. after   12 cycles
            NFock= 12  Conv=0.85D-08     -V/T= 2.0101
 DoSCS=F DFT=T ScalE2(SS,OS)=  1.000000  1.000000
 Range of M.O.s used for correlation:     1    75
 NBasis=    75 NAE=    12 NBE=    12 NFC=     0 NFV=     0
 NROrb=     75 NOA=    12 NOB=    12 NVA=    63 NVB=    63
 Symmetrizing basis deriv contribution to polar:
 IMax=3 JMax=2 DiffMx= 0.00D+00
 G2DrvN: will do    10 centers at a time, making    1 passes.
 Calling FoFCou, ICntrl=  3107 FMM=F I1Cent=   0 AccDes= 0.00D+00.
 End of G2Drv F.D. properties file   721 does not exist.
 End of G2Drv F.D. properties file   722 does not exist.
 End of G2Drv F.D. properties file   788 does not exist.
          IDoAtm=111111111
          Differentiating once with respect to nuclear coordinates.
 Keep R1 ints in memory in canonical form, NReq=25532406.
          There are    30 degrees of freedom in the 1st order CPHF.  IDoFFX=6 NUNeed=     0.
     24 vectors produced by pass  0 Test12= 2.52D-15 3.33D-09 XBig12= 1.28D-01 2.03D-01.
 AX will form    24 AO Fock derivatives at one time.
     24 vectors produced by pass  1 Test12= 2.52D-15 3.33D-09 XBig12= 3.66D-02 9.60D-02.
     24 vectors produced by pass  2 Test12= 2.52D-15 3.33D-09 XBig12= 2.58D-04 3.37D-03.
     24 vectors produced by pass  3 Test12= 2.52D-15 3.33D-09 XBig12= 3.95D-07 1.54D-04.
     24 vectors produced by pass  4 Test12= 2.52D-15 3.33D-09 XBig12= 3.29D-10 3.21D-06.
     10 vectors produced by pass  5 Test12= 2.52D-15 3.33D-09 XBig12= 1.83D-13 6.63D-08.
 InvSVY:  IOpt=1 It=  1 EMax= 2.11D-15
 Solved reduced A of dimension   130 with    24 vectors.
 End of Minotr F.D. properties file   721 does not exist.
 End of Minotr F.D. properties file   722 does not exist.
 End of Minotr F.D. properties file   788 does not exist.
 Calling FoFJK, ICntrl=    100127 FMM=F ISym2X=0 I1Cent= 0 IOpClX= 0 NMat=1 NMatS=1 NMatT=0.
 -------------------------------------------------------------------
 Center     Atomic                   Forces (Hartrees/Bohr)
 Number     Number              X              Y              Z
 -------------------------------------------------------------------
      1        6          -0.009423716    0.020417083    0.002825696
      2        6           0.014228675    0.002426468    0.015101176
      3        6          -0.001262084   -0.001370843   -0.003362274
      4        1           0.009072788   -0.009725522    0.005363980
      5        1           0.001293944   -0.009025093    0.004677539
      6        1          -0.011796674   -0.008843964   -0.019338401
      7        1          -0.001783743    0.007900275   -0.004313707
      8        1          -0.000162998   -0.006454822    0.000409382
      9        1          -0.000166192    0.004676417   -0.001363391
 -------------------------------------------------------------------
 Cartesian Forces:  Max     0.020417083 RMS     0.008642407
 IRC-IRC-IRC-IRC-IRC-IRC-IRC-IRC-IRC-IRC-IRC-IRC-IRC-IRC-IRC-IRC-IRC-IRC
 Pt  6 Step number   1 out of a maximum of 100
 Modified Bulirsch-Stoer Extrapolation Cycles:
    EPS =    0.000010000000000
      PEZero:  N= 2 I= 1 D=  5.35D-04 Err=  3.05D-05
      PEZero:  N= 3 I= 2 D=  5.35D-04 Err=  2.04D-05
      PEZero:  N= 3 I= 1 D=  1.07D-03 Err=  1.56D-08
 Maximum DWI energy   std dev =  0.000000884 at pt    28
 Maximum DWI gradient std dev =  0.001845007 at pt    47
 CORRECTOR INTEGRATION CONVERGENCE:
   Recorrection delta-x convergence threshold:    0.010000
   Delta-x Convergence Met
 Point Number:   6          Path Number:   1
   CHANGE IN THE REACTION COORDINATE =    0.10268
   NET REACTION COORDINATE UP TO THIS POINT =    0.61610
  # OF POINTS ALONG THE PATH =   6
  # OF STEPS =   1

 Calculating another point on the path.
 IRC-IRC-IRC-IRC-IRC-IRC-IRC-IRC-IRC-IRC-IRC-IRC-IRC-IRC-IRC-IRC-IRC-IRC
                          Input orientation:                          
 ---------------------------------------------------------------------
 Center     Atomic      Atomic             Coordinates (Angstroms)
 Number     Number       Type             X           Y           Z
 ---------------------------------------------------------------------
      1          6           0       -1.214216   -0.288753   -0.115315
      2          6           0        0.042393    0.134413    0.309607
      3          6           0        1.280182    0.046464   -0.229385
      4          1           0       -0.101964    0.770874    1.215349
      5          1           0       -2.062344   -0.179522    0.544912
      6          1           0       -1.377107    1.482118    0.560796
      7          1           0       -1.347788   -0.917207   -0.998386
      8          1           0        1.443725   -0.078328   -1.295486
      9          1           0        2.155266    0.206531    0.390656
 ---------------------------------------------------------------------
                    Distance matrix (angstroms):
                    1          2          3          4          5
     1  C    0.000000
     2  C    1.392370   0.000000
     3  C    2.519405   1.352911   0.000000
     4  H    2.032383   1.116374   2.126583   0.000000
     5  H    1.080348   2.140991   3.438471   2.279436   0.000000
     6  H    1.902536   1.973419   3.121965   1.600093   1.797456
     7  H    1.092067   2.179301   2.902800   3.049971   1.853790
     8  H    2.915774   2.141335   1.085767   3.068321   3.961039
     9  H    3.443068   2.115657   1.084364   2.468540   4.238050
                    6          7          8          9
     6  H    0.000000
     7  H    2.861584   0.000000
     8  H    3.719928   2.929938   0.000000
     9  H    3.759485   3.932380   1.852164   0.000000
 Symmetry turned off by external request.
 Stoichiometry    C3H6
 Framework group  C1[X(C3H6)]
 Deg. of freedom    21
 Full point group                 C1      NOp   1
 Rotational constants (GHZ):          45.1381553           9.2804905           8.0844523
 Standard basis: 6-31G(d,p) (6D, 7F)
    75 basis functions,   126 primitive gaussians,    75 cartesian basis functions
    12 alpha electrons       12 beta electrons
       nuclear repulsion energy        70.1992462314 Hartrees.
 NAtoms=    9 NActive=    9 NUniq=    9 SFac= 1.00D+00 NAtFMM=   60 NAOKFM=F Big=F
 Integral buffers will be    131072 words long.
 Raffenetti 2 integral format.
 Two-electron integral symmetry is turned off.
 One-electron integrals computed using PRISM.
 NBasis=    75 RedAO= T EigKep=  4.30D-03  NBF=    75
 NBsUse=    75 1.00D-06 EigRej= -1.00D+00 NBFU=    75
 Initial guess from the checkpoint file:  "/scratch/brown/zhao922/pyGSM/new-benchmarking/R1-3/IRC-folder/Gau-48406.chk"
 B after Tr=    -0.000187   -0.001347   -0.000893
         Rot=    1.000000    0.000200    0.000114   -0.000334 Ang=   0.05 deg.
 ExpMin= 1.61D-01 ExpMax= 3.05D+03 ExpMxC= 4.57D+02 IAcc=3 IRadAn=         5 AccDes= 0.00D+00
 Harris functional with IExCor=  402 and IRadAn=       5 diagonalized for initial guess.
 HarFok:  IExCor=  402 AccDes= 0.00D+00 IRadAn=         5 IDoV= 1 UseB2=F ITyADJ=14
 ICtDFT=  3500011 ScaDFX=  1.000000  1.000000  1.000000  1.000000
 FoFCou: FMM=F IPFlag=           0 FMFlag=      100000 FMFlg1=           0
         NFxFlg=           0 DoJE=T BraDBF=F KetDBF=T FulRan=T
         wScrn=  0.000000 ICntrl=       500 IOpCl=  0 I1Cent=   200000004 NGrid=           0
         NMat0=    1 NMatS0=      1 NMatT0=    0 NMatD0=    1 NMtDS0=    0 NMtDT0=    0
 Symmetry not used in FoFCou.
 Keep R1 ints in memory in canonical form, NReq=25608061.
 Requested convergence on RMS density matrix=1.00D-08 within 128 cycles.
 Requested convergence on MAX density matrix=1.00D-06.
 Requested convergence on             energy=1.00D-06.
 No special actions if energy rises.
 Integral accuracy reduced to 1.0D-05 until final iterations.
 Initial convergence to 1.0D-05 achieved.  Increase integral accuracy.
 SCF Done:  E(RB3LYP) =  -117.749721810     A.U. after   12 cycles
            NFock= 12  Conv=0.71D-08     -V/T= 2.0102
 DoSCS=F DFT=T ScalE2(SS,OS)=  1.000000  1.000000
 Range of M.O.s used for correlation:     1    75
 NBasis=    75 NAE=    12 NBE=    12 NFC=     0 NFV=     0
 NROrb=     75 NOA=    12 NOB=    12 NVA=    63 NVB=    63
 Symmetrizing basis deriv contribution to polar:
 IMax=3 JMax=2 DiffMx= 0.00D+00
 G2DrvN: will do    10 centers at a time, making    1 passes.
 Calling FoFCou, ICntrl=  3107 FMM=F I1Cent=   0 AccDes= 0.00D+00.
 End of G2Drv F.D. properties file   721 does not exist.
 End of G2Drv F.D. properties file   722 does not exist.
 End of G2Drv F.D. properties file   788 does not exist.
          IDoAtm=111111111
          Differentiating once with respect to nuclear coordinates.
 Keep R1 ints in memory in canonical form, NReq=25532406.
          There are    30 degrees of freedom in the 1st order CPHF.  IDoFFX=6 NUNeed=     0.
     24 vectors produced by pass  0 Test12= 2.52D-15 3.33D-09 XBig12= 1.28D-01 2.04D-01.
 AX will form    24 AO Fock derivatives at one time.
     24 vectors produced by pass  1 Test12= 2.52D-15 3.33D-09 XBig12= 3.50D-02 9.51D-02.
     24 vectors produced by pass  2 Test12= 2.52D-15 3.33D-09 XBig12= 2.53D-04 3.55D-03.
     24 vectors produced by pass  3 Test12= 2.52D-15 3.33D-09 XBig12= 4.12D-07 1.62D-04.
     24 vectors produced by pass  4 Test12= 2.52D-15 3.33D-09 XBig12= 3.36D-10 3.13D-06.
     10 vectors produced by pass  5 Test12= 2.52D-15 3.33D-09 XBig12= 1.88D-13 6.47D-08.
 InvSVY:  IOpt=1 It=  1 EMax= 1.55D-15
 Solved reduced A of dimension   130 with    24 vectors.
 End of Minotr F.D. properties file   721 does not exist.
 End of Minotr F.D. properties file   722 does not exist.
 End of Minotr F.D. properties file   788 does not exist.
 Calling FoFJK, ICntrl=    100127 FMM=F ISym2X=0 I1Cent= 0 IOpClX= 0 NMat=1 NMatS=1 NMatT=0.
 -------------------------------------------------------------------
 Center     Atomic                   Forces (Hartrees/Bohr)
 Number     Number              X              Y              Z
 -------------------------------------------------------------------
      1        6          -0.011301174    0.024837637    0.003701909
      2        6           0.016877609    0.001693174    0.016715922
      3        6          -0.001528664   -0.001275356   -0.003577597
      4        1           0.009454962   -0.010256040    0.005901736
      5        1           0.001554635   -0.010569512    0.005288435
      6        1          -0.012606895   -0.011513072   -0.022295240
      7        1          -0.002092439    0.009023607   -0.004657795
      8        1          -0.000193898   -0.007095100    0.000510891
      9        1          -0.000164136    0.005154661   -0.001588261
 -------------------------------------------------------------------
 Cartesian Forces:  Max     0.024837637 RMS     0.009980660
 IRC-IRC-IRC-IRC-IRC-IRC-IRC-IRC-IRC-IRC-IRC-IRC-IRC-IRC-IRC-IRC-IRC-IRC
 Pt  7 Step number   1 out of a maximum of 100
 Modified Bulirsch-Stoer Extrapolation Cycles:
    EPS =    0.000010000000000
      PEZero:  N= 2 I= 1 D=  5.35D-04 Err=  3.04D-05
      PEZero:  N= 3 I= 2 D=  5.35D-04 Err=  2.03D-05
      PEZero:  N= 3 I= 1 D=  1.07D-03 Err=  1.22D-08
 Maximum DWI energy   std dev =  0.000000750 at pt    28
 Maximum DWI gradient std dev =  0.001481766 at pt    47
 CORRECTOR INTEGRATION CONVERGENCE:
   Recorrection delta-x convergence threshold:    0.010000
   Delta-x Convergence Met
 Point Number:   7          Path Number:   1
   CHANGE IN THE REACTION COORDINATE =    0.10268
   NET REACTION COORDINATE UP TO THIS POINT =    0.71878
  # OF POINTS ALONG THE PATH =   7
  # OF STEPS =   1

 Calculating another point on the path.
 IRC-IRC-IRC-IRC-IRC-IRC-IRC-IRC-IRC-IRC-IRC-IRC-IRC-IRC-IRC-IRC-IRC-IRC
                          Input orientation:                          
 ---------------------------------------------------------------------
 Center     Atomic      Atomic             Coordinates (Angstroms)
 Number     Number       Type             X           Y           Z
 ---------------------------------------------------------------------
      1          6           0       -1.215592   -0.285706   -0.114849
      2          6           0        0.044434    0.134559    0.311572
      3          6           0        1.279996    0.046329   -0.229796
      4          1           0       -0.089119    0.756857    1.223528
      5          1           0       -2.060113   -0.194685    0.552406
      6          1           0       -1.394398    1.464804    0.529026
      7          1           0       -1.350796   -0.904433   -1.004823
      8          1           0        1.443446   -0.088204   -1.294744
      9          1           0        2.155055    0.213718    0.388390
 ---------------------------------------------------------------------
                    Distance matrix (angstroms):
                    1          2          3          4          5
     1  C    0.000000
     2  C    1.395035   0.000000
     3  C    2.520202   1.351842   0.000000
     4  H    2.036450   1.112095   2.119310   0.000000
     5  H    1.080153   2.143717   3.438932   2.289247   0.000000
     6  H    1.873721   1.971567   3.120940   1.639290   1.788190
     7  H    1.092318   2.181529   2.902702   3.052419   1.852522
     8  H    2.915757   2.141754   1.085785   3.066688   3.962099
     9  H    3.444406   2.113501   1.084390   2.455357   4.238082
                    6          7          8          9
     6  H    0.000000
     7  H    2.822743   0.000000
     8  H    3.713668   2.925418   0.000000
     9  H    3.766114   3.934755   1.852157   0.000000
 Symmetry turned off by external request.
 Stoichiometry    C3H6
 Framework group  C1[X(C3H6)]
 Deg. of freedom    21
 Full point group                 C1      NOp   1
 Rotational constants (GHZ):          45.4619981           9.2657316           8.0876290
 Standard basis: 6-31G(d,p) (6D, 7F)
    75 basis functions,   126 primitive gaussians,    75 cartesian basis functions
    12 alpha electrons       12 beta electrons
       nuclear repulsion energy        70.2161086615 Hartrees.
 NAtoms=    9 NActive=    9 NUniq=    9 SFac= 1.00D+00 NAtFMM=   60 NAOKFM=F Big=F
 Integral buffers will be    131072 words long.
 Raffenetti 2 integral format.
 Two-electron integral symmetry is turned off.
 One-electron integrals computed using PRISM.
 NBasis=    75 RedAO= T EigKep=  4.30D-03  NBF=    75
 NBsUse=    75 1.00D-06 EigRej= -1.00D+00 NBFU=    75
 Initial guess from the checkpoint file:  "/scratch/brown/zhao922/pyGSM/new-benchmarking/R1-3/IRC-folder/Gau-48406.chk"
 B after Tr=    -0.000184   -0.001394   -0.000906
         Rot=    1.000000    0.000219    0.000119   -0.000353 Ang=   0.05 deg.
 ExpMin= 1.61D-01 ExpMax= 3.05D+03 ExpMxC= 4.57D+02 IAcc=3 IRadAn=         5 AccDes= 0.00D+00
 Harris functional with IExCor=  402 and IRadAn=       5 diagonalized for initial guess.
 HarFok:  IExCor=  402 AccDes= 0.00D+00 IRadAn=         5 IDoV= 1 UseB2=F ITyADJ=14
 ICtDFT=  3500011 ScaDFX=  1.000000  1.000000  1.000000  1.000000
 FoFCou: FMM=F IPFlag=           0 FMFlag=      100000 FMFlg1=           0
         NFxFlg=           0 DoJE=T BraDBF=F KetDBF=T FulRan=T
         wScrn=  0.000000 ICntrl=       500 IOpCl=  0 I1Cent=   200000004 NGrid=           0
         NMat0=    1 NMatS0=      1 NMatT0=    0 NMatD0=    1 NMtDS0=    0 NMtDT0=    0
 Symmetry not used in FoFCou.
 Keep R1 ints in memory in canonical form, NReq=25608061.
 Requested convergence on RMS density matrix=1.00D-08 within 128 cycles.
 Requested convergence on MAX density matrix=1.00D-06.
 Requested convergence on             energy=1.00D-06.
 No special actions if energy rises.
 Integral accuracy reduced to 1.0D-05 until final iterations.
 Initial convergence to 1.0D-05 achieved.  Increase integral accuracy.
 SCF Done:  E(RB3LYP) =  -117.753861961     A.U. after   12 cycles
            NFock= 12  Conv=0.56D-08     -V/T= 2.0102
 DoSCS=F DFT=T ScalE2(SS,OS)=  1.000000  1.000000
 Range of M.O.s used for correlation:     1    75
 NBasis=    75 NAE=    12 NBE=    12 NFC=     0 NFV=     0
 NROrb=     75 NOA=    12 NOB=    12 NVA=    63 NVB=    63
 Symmetrizing basis deriv contribution to polar:
 IMax=3 JMax=2 DiffMx= 0.00D+00
 G2DrvN: will do    10 centers at a time, making    1 passes.
 Calling FoFCou, ICntrl=  3107 FMM=F I1Cent=   0 AccDes= 0.00D+00.
 End of G2Drv F.D. properties file   721 does not exist.
 End of G2Drv F.D. properties file   722 does not exist.
 End of G2Drv F.D. properties file   788 does not exist.
          IDoAtm=111111111
          Differentiating once with respect to nuclear coordinates.
 Keep R1 ints in memory in canonical form, NReq=25532406.
          There are    30 degrees of freedom in the 1st order CPHF.  IDoFFX=6 NUNeed=     0.
     24 vectors produced by pass  0 Test12= 2.52D-15 3.33D-09 XBig12= 1.28D-01 2.03D-01.
 AX will form    24 AO Fock derivatives at one time.
     24 vectors produced by pass  1 Test12= 2.52D-15 3.33D-09 XBig12= 3.29D-02 9.32D-02.
     24 vectors produced by pass  2 Test12= 2.52D-15 3.33D-09 XBig12= 2.45D-04 3.78D-03.
     24 vectors produced by pass  3 Test12= 2.52D-15 3.33D-09 XBig12= 4.24D-07 1.67D-04.
     24 vectors produced by pass  4 Test12= 2.52D-15 3.33D-09 XBig12= 3.39D-10 2.95D-06.
     10 vectors produced by pass  5 Test12= 2.52D-15 3.33D-09 XBig12= 1.96D-13 6.66D-08.
 InvSVY:  IOpt=1 It=  1 EMax= 1.55D-15
 Solved reduced A of dimension   130 with    24 vectors.
 End of Minotr F.D. properties file   721 does not exist.
 End of Minotr F.D. properties file   722 does not exist.
 End of Minotr F.D. properties file   788 does not exist.
[...]
  39                   -1.32065  -1.21325  -0.70797   1.48953   0.34433
  40                   -1.31712  -1.20472  -0.72109   1.48450   0.32623
  41                   -1.31421  -1.19584  -0.73428   1.47984   0.30789
  42                   -1.31189  -1.18665  -0.74750   1.47554   0.28939
  43                   -1.31012  -1.17716  -0.76070   1.47158   0.27078
  44                   -1.30887  -1.16743  -0.77383   1.46795   0.25213
  45                   -1.30811  -1.15746  -0.78685   1.46465   0.23349
  46                   -1.30780  -1.14729  -0.79972   1.46165   0.21493
  47                   -1.30791  -1.13694  -0.81240   1.45894   0.19649
  48                   -1.30840  -1.12645  -0.82486   1.45653   0.17823
  49                   -1.30924  -1.11584  -0.83706   1.45439   0.16021
  50                   -1.31039  -1.10515  -0.84897   1.45254   0.14249
  51                   -1.31182  -1.09443  -0.86053   1.45095   0.12518
  52                   -1.31346  -1.08378  -0.87165   1.44964   0.10843
  53                   -1.31524  -1.07339  -0.88217   1.44860   0.09254
  54                   -1.31707  -1.06352  -0.89186   1.44781   0.07790
  55                   -1.31887  -1.05429  -0.90065   1.44722   0.06465
  56                   -1.32063  -1.04553  -0.90873   1.44676   0.05255
  57                   -1.32237  -1.03697  -0.91638   1.44640   0.04118
  58                   -1.32413  -1.02833  -0.92384   1.44610   0.03018
  59                   -1.32596  -1.01938  -0.93128   1.44584   0.01932
  60                   -1.32787  -1.00996  -0.93879   1.44560   0.00845
  61                   -1.32991  -0.99992  -0.94641   1.44538  -0.00251
  62                   -1.33206  -0.98952  -0.95407   1.44516  -0.01360
  63                   -1.33436  -0.97848  -0.96179   1.44495  -0.02473
  64                   -1.33679  -0.96690  -0.96947   1.44472  -0.03581
  65                   -1.33936  -0.95489  -0.97705   1.44449  -0.04678
  66                   -1.34205  -0.94253  -0.98443   1.44425  -0.05756
  67                   -1.34487  -0.92993  -0.99156   1.44399  -0.06810
  68                   -1.34779  -0.91720  -0.99836   1.44373  -0.07832
  69                   -1.35079  -0.90443  -1.00480   1.44345  -0.08820
  70                   -1.35387  -0.89172  -1.01084   1.44316  -0.09770
  71                   -1.35698  -0.87914  -1.01645   1.44286  -0.10680
  72                   -1.36011  -0.86677  -1.02163   1.44255  -0.11551
  73                   -1.36324  -0.85467  -1.02637   1.44224  -0.12383
  74                   -1.36634  -0.84288  -1.03068   1.44193  -0.13177
  75                   -1.36938  -0.83145  -1.03456   1.44161  -0.13935
  76                   -1.37235  -0.82040  -1.03803   1.44129  -0.14659
  77                   -1.37523  -0.80975  -1.04111   1.44096  -0.15353
  78                   -1.37801  -0.79951  -1.04382   1.44063  -0.16021
  79                   -1.38066  -0.78968  -1.04618   1.44030  -0.16666
  80                   -1.38318  -0.78026  -1.04822   1.43995  -0.17293
  81                   -1.38556  -0.77123  -1.04997   1.43959  -0.17907
  82                   -1.38778  -0.76257  -1.05146   1.43922  -0.18514
  83                   -1.38986  -0.75425  -1.05270   1.43882  -0.19121
  84                   -1.39176  -0.74626  -1.05374   1.43839  -0.19738
  85                   -1.39347  -0.73856  -1.05460   1.43791  -0.20374
  86                   -1.39497  -0.73115  -1.05531   1.43737  -0.21044
  87                   -1.39617  -0.72407  -1.05592   1.43673  -0.21766
  88                   -1.39694  -0.71750  -1.05645   1.43595  -0.22554
  89                   -1.39708  -0.71174  -1.05694   1.43499  -0.23419
  90                   -1.39629  -0.70723  -1.05736   1.43379  -0.24353
  91                   -1.39426  -0.70434  -1.05762   1.43229  -0.25345
  92                   -1.39065  -0.70326  -1.05759   1.43040  -0.26383
  93                   -1.38507  -0.70408  -1.05712   1.42798  -0.27456
  94                   -1.37711  -0.70674  -1.05616   1.42482  -0.28550
  95                   -1.36634  -0.71097  -1.05476   1.42056  -0.29641
  96                   -1.35234  -0.71620  -1.05317   1.41465  -0.30691
  97                   -1.33490  -0.72134  -1.05198   1.40620  -0.31637
  98                   -1.31450  -0.72471  -1.05216   1.39414  -0.32387
  99                   -1.29297  -0.72478  -1.05454   1.37830  -0.32891
 100                   -1.27225  -0.72138  -1.05899   1.36017  -0.33242
 101                   -1.25285  -0.71513  -1.06491   1.34144  -0.33610
 102                   -1.23475  -0.70618  -1.07206   1.32324  -0.34121
 103                   -1.21835  -0.69410  -1.08052   1.30662  -0.34838
 104                   -1.20495  -0.67830  -1.09037   1.29316  -0.35773
 105                   -1.19636  -0.65904  -1.10118   1.28472  -0.36858
 106                   -1.19286  -0.63795  -1.11196   1.28139  -0.37972
 107                   -1.19271  -0.61638  -1.12217   1.28113  -0.39057
 108                   -1.19411  -0.59465  -1.13178   1.28193  -0.40123
                          Z8        X9        Y9        Z9
   1                   -0.96299   1.99677  -0.17816   0.66154
   2                   -0.96677   1.99850  -0.17831   0.66008
   3                   -0.97087   2.00075  -0.17847   0.65797
   4                   -0.97558   2.00375  -0.17871   0.65495
   5                   -0.98104   2.00761  -0.17906   0.65087
   6                   -0.98726   2.01230  -0.17953   0.64573
   7                   -0.99413   2.01770  -0.18011   0.63965
   8                   -1.00151   2.02361  -0.18079   0.63279
   9                   -1.00924   2.02986  -0.18155   0.62532
  10                   -1.01720   2.03630  -0.18237   0.61739
  11                   -1.02530   2.04282  -0.18324   0.60911
  12                   -1.03346   2.04934  -0.18413   0.60057
  13                   -1.04164   2.05579  -0.18505   0.59184
  14                   -1.04980   2.06212  -0.18597   0.58297
  15                   -1.05792   2.06830  -0.18688   0.57401
  16                   -1.06599   2.07429  -0.18775   0.56501
  17                   -1.07399   2.08008  -0.18856   0.55601
  18                   -1.08194   2.08565  -0.18928   0.54704
  19                   -1.08982   2.09097  -0.18987   0.53815
  20                   -1.09766   2.09605  -0.19029   0.52937
  21                   -1.10546   2.10088  -0.19049   0.52075
  22                   -1.11323   2.10544  -0.19042   0.51232
  23                   -1.12099   2.10974  -0.19001   0.50414
  24                   -1.12876   2.11379  -0.18920   0.49625
  25                   -1.13655   2.11758  -0.18791   0.48870
  26                   -1.14437   2.12112  -0.18609   0.48152
  27                   -1.15223   2.12442  -0.18364   0.47476
  28                   -1.16012   2.12750  -0.18051   0.46846
  29                   -1.16805   2.13038  -0.17665   0.46263
  30                   -1.17598   2.13306  -0.17200   0.45730
  31                   -1.18392   2.13557  -0.16653   0.45248
  32                   -1.19181   2.13792  -0.16023   0.44814
  33                   -1.19964   2.14013  -0.15311   0.44429
  34                   -1.20735   2.14222  -0.14517   0.44088
  35                   -1.21491   2.14420  -0.13646   0.43789
  36                   -1.22229   2.14607  -0.12702   0.43527
  37                   -1.22943   2.14784  -0.11690   0.43297
  38                   -1.23630   2.14951  -0.10619   0.43096
  39                   -1.24288   2.15109  -0.09493   0.42918
  40                   -1.24914   2.15257  -0.08320   0.42760
  41                   -1.25505   2.15395  -0.07107   0.42618
  42                   -1.26060   2.15522  -0.05861   0.42488
  43                   -1.26577   2.15637  -0.04587   0.42366
  44                   -1.27055   2.15741  -0.03293   0.42252
  45                   -1.27494   2.15833  -0.01985   0.42142
  46                   -1.27894   2.15911  -0.00668   0.42034
  47                   -1.28255   2.15976   0.00652   0.41929
  48                   -1.28576   2.16027   0.01969   0.41824
  49                   -1.28859   2.16063   0.03277   0.41719
  50                   -1.29104   2.16085   0.04569   0.41613
  51                   -1.29311   2.16092   0.05836   0.41508
  52                   -1.29480   2.16083   0.07066   0.41403
  53                   -1.29611   2.16062   0.08233   0.41299
  54                   -1.29706   2.16031   0.09308   0.41197
  55                   -1.29770   2.15994   0.10279   0.41098
  56                   -1.29813   2.15954   0.11165   0.41000
  57                   -1.29840   2.15914   0.11996   0.40899
  58                   -1.29856   2.15874   0.12797   0.40792
  59                   -1.29863   2.15833   0.13588   0.40676
  60                   -1.29861   2.15793   0.14378   0.40549
  61                   -1.29851   2.15753   0.15172   0.40406
  62                   -1.29833   2.15715   0.15974   0.40253
  63                   -1.29807   2.15678   0.16777   0.40084
  64                   -1.29772   2.15643   0.17577   0.39902
  65                   -1.29728   2.15609   0.18369   0.39707
  66                   -1.29676   2.15579   0.19148   0.39501
  67                   -1.29615   2.15551   0.19911   0.39287
  68                   -1.29548   2.15526   0.20652   0.39065
  69                   -1.29474   2.15505   0.21371   0.38839
  70                   -1.29394   2.15488   0.22065   0.38609
  71                   -1.29309   2.15474   0.22733   0.38377
  72                   -1.29221   2.15464   0.23375   0.38146
  73                   -1.29130   2.15457   0.23992   0.37915
  74                   -1.29036   2.15454   0.24582   0.37685
  75                   -1.28940   2.15454   0.25149   0.37457
  76                   -1.28843   2.15458   0.25693   0.37231
  77                   -1.28745   2.15466   0.26217   0.37007
  78                   -1.28646   2.15477   0.26722   0.36784
  79                   -1.28546   2.15492   0.27211   0.36561
  80                   -1.28445   2.15511   0.27686   0.36337
  81                   -1.28342   2.15534   0.28152   0.36111
  82                   -1.28237   2.15561   0.28612   0.35881
  83                   -1.28129   2.15594   0.29070   0.35643
  84                   -1.28016   2.15633   0.29532   0.35394
  85                   -1.27896   2.15679   0.30006   0.35128
  86                   -1.27767   2.15735   0.30499   0.34838
  87                   -1.27626   2.15804   0.31021   0.34514
  88                   -1.27468   2.15890   0.31580   0.34145
  89                   -1.27294   2.15999   0.32175   0.33721
  90                   -1.27103   2.16135   0.32795   0.33238
  91                   -1.26901   2.16303   0.33421   0.32695
  92                   -1.26694   2.16507   0.34034   0.32088
  93                   -1.26487   2.16755   0.34612   0.31412
  94                   -1.26289   2.17053   0.35124   0.30658
  95                   -1.26116   2.17411   0.35522   0.29817
  96                   -1.25990   2.17835   0.35735   0.28879
  97                   -1.25947   2.18327   0.35654   0.27838
  98                   -1.26027   2.18861   0.35160   0.26710
  99                   -1.26232   2.19370   0.34250   0.25553
 100                   -1.26486   2.19785   0.33132   0.24417
 101                   -1.26702   2.20096   0.32037   0.23298
 102                   -1.26828   2.20327   0.31084   0.22187
 103                   -1.26833   2.20496   0.30313   0.21122
 104                   -1.26692   2.20615   0.29726   0.20216
 105                   -1.26410   2.20691   0.29301   0.19629
 106                   -1.26033   2.20736   0.28989   0.19402
 107                   -1.25616   2.20764   0.28736   0.19399
 108                   -1.25184   2.20787   0.28500   0.19477
 --------------------------------------------------------------------------
 
 Total number of points:                  107
 Total number of gradient calculations:   108
 Total number of Hessian calculations:    108
 IRC-IRC-IRC-IRC-IRC-IRC-IRC-IRC-IRC-IRC-IRC-IRC-IRC-IRC-IRC-IRC-IRC-IRC
                          Input orientation:                          
 ---------------------------------------------------------------------
 Center     Atomic      Atomic             Coordinates (Angstroms)
 Number     Number       Type             X           Y           Z
 ---------------------------------------------------------------------
      1          6           0       -1.235399   -0.383913   -0.039069
      2          6           0        0.043282   -0.120796   -0.083602
      3          6           0        1.323111    0.141742   -0.129708
      4          1           0       -0.582424    2.213105    1.533393
      5          1           0       -1.937321    0.302056    0.428003
      6          1           0       -1.156388    2.595878    1.811851
      7          1           0       -1.640765   -1.297539   -0.466777
      8          1           0        1.760410    0.686461   -0.962973
      9          1           0        1.996765   -0.178175    0.661540
 ---------------------------------------------------------------------
                    Distance matrix (angstroms):
                    1          2          3          4          5
     1  C    0.000000
     2  C    1.306231   0.000000
     3  C    2.613522   1.307292   0.000000
     4  H    3.105401   2.907452   3.269176   0.000000
     5  H    1.086924   2.088859   3.311669   2.590316   0.000000
     6  H    3.508747   3.523105   3.992537   0.743968   2.790432
     7  H    1.087184   2.089871   3.312054   4.176767   1.856686
     8  H    3.312729   2.091288   1.087327   3.748514   3.969357
     9  H    3.313618   2.091560   1.087304   3.623612   3.970162
                    6          7          8          9
     6  H    0.000000
     7  H    4.537121   0.000000
     8  H    4.455697   3.968685   0.000000
     9  H    4.354419   3.969596   1.855398   0.000000
 Symmetry turned off by external request.
 Stoichiometry    C3H6
 Framework group  C1[X(C3H6)]
 Deg. of freedom    21
 Full point group                 C1      NOp   1
 Rotational constants (GHZ):          22.1952184           8.7727729           6.5714312

 **********************************************************************

            Population analysis using the SCF Density.

 **********************************************************************

 Alpha  occ. eigenvalues --  -10.20727 -10.19284 -10.19114  -0.78813  -0.70175
 Alpha  occ. eigenvalues --   -0.52072  -0.45014  -0.44557  -0.44086  -0.42118
 Alpha  occ. eigenvalues --   -0.26513  -0.26425
 Alpha virt. eigenvalues --    0.01791   0.01909   0.10510   0.13015   0.14052
 Alpha virt. eigenvalues --    0.21202   0.21433   0.30622   0.32913   0.42871
 Alpha virt. eigenvalues --    0.52133   0.53809   0.62054   0.64927   0.65205
 Alpha virt. eigenvalues --    0.67353   0.71239   0.83166   0.83601   0.85795
 Alpha virt. eigenvalues --    0.86101   0.90585   0.92119   1.04249   1.09968
 Alpha virt. eigenvalues --    1.17316   1.18693   1.38476   1.44861   1.57210
 Alpha virt. eigenvalues --    1.57226   1.63556   1.67989   1.69367   1.75918
 Alpha virt. eigenvalues --    1.91427   1.95048   1.95185   2.05777   2.07758
 Alpha virt. eigenvalues --    2.14567   2.14640   2.32227   2.38721   2.41482
 Alpha virt. eigenvalues --    2.42065   2.53869   2.60661   2.61960   2.62399
 Alpha virt. eigenvalues --    2.76625   2.82467   2.82778   2.90260   3.19186
 Alpha virt. eigenvalues --    3.35524   3.36009   3.56814   3.56942   4.14551
 Alpha virt. eigenvalues --    4.17341   4.36595   4.67518
          Condensed to atoms (all electrons):
               1          2          3          4          5          6
     1  C    5.293770   0.608265  -0.209024  -0.000712   0.350503  -0.000413
     2  C    0.608265   4.514634   0.600552   0.005124  -0.007159  -0.002545
     3  C   -0.209024   0.600552   5.299328   0.003476   0.002274  -0.000971
     4  H   -0.000712   0.005124   0.003476   0.577841  -0.001042   0.403897
     5  H    0.350503  -0.007159   0.002274  -0.001042   0.566281   0.002377
     6  H   -0.000413  -0.002545  -0.000971   0.403897   0.002377   0.615653
     7  H    0.353448  -0.006818   0.002454   0.000116  -0.041198  -0.000010
     8  H    0.002409  -0.007054   0.353060   0.000026  -0.000036  -0.000000
     9  H    0.002444  -0.007005   0.352918   0.000015  -0.000032   0.000005
               7          8          9
     1  C    0.353448   0.002409   0.002444
     2  C   -0.006818  -0.007054  -0.007005
     3  C    0.002454   0.353060   0.352918
     4  H    0.000116   0.000026   0.000015
     5  H   -0.041198  -0.000036  -0.000032
     6  H   -0.000010  -0.000000   0.000005
     7  H    0.565734  -0.000033  -0.000034
     8  H   -0.000033   0.565375  -0.041341
     9  H   -0.000034  -0.041341   0.565506
 Mulliken charges:
               1
     1  C   -0.400692
     2  C    0.302005
     3  C   -0.404067
     4  H    0.011259
     5  H    0.128033
     6  H   -0.017994
     7  H    0.126340
     8  H    0.127593
     9  H    0.127523
 Sum of Mulliken charges =  -0.00000
 Mulliken charges with hydrogens summed into heavy atoms:
               1
     1  C   -0.164313
     2  C    0.313263
     3  C   -0.148951
 APT charges:
               1
     1  C   -0.535082
     2  C   -0.631125
     3  C   -0.538044
     4  H   -0.611512
     5  H    0.398992
     6  H    0.611022
     7  H    0.446423
     8  H    0.431259
     9  H    0.428068
 Sum of APT charges =  -0.00000
 APT charges with hydrogens summed into heavy atoms:
               1
     1  C    0.921355
     2  C   -1.242637
     3  C    0.321282
 Electronic spatial extent (au):  <R**2>=            249.0640
 Charge=             -0.0000 electrons
 Dipole moment (field-independent basis, Debye):
    X=              0.0473    Y=             -0.1049    Z=             -0.0722  Tot=              0.1358
 Quadrupole moment (field-independent basis, Debye-Ang):
   XX=            -17.4302   YY=            -20.8046   ZZ=            -20.8739
   XY=              0.5687   XZ=             -0.1774   YZ=             -0.0830
 Traceless Quadrupole moment (field-independent basis, Debye-Ang):
   XX=              2.2727   YY=             -1.1017   ZZ=             -1.1710
   XY=              0.5687   XZ=             -0.1774   YZ=             -0.0830
 Octapole moment (field-independent basis, Debye-Ang**2):
  XXX=              2.5368  YYY=             -8.6772  ZZZ=             -5.5604  XYY=             -1.4574
  XXY=             -1.6440  XXZ=             -0.3379  XZZ=              2.2507  YZZ=             -1.9288
  YYZ=             -2.6032  XYZ=             -3.0235
 Hexadecapole moment (field-independent basis, Debye-Ang**3):
 XXXX=           -179.6175 YYYY=           -104.0612 ZZZZ=            -63.2733 XXXY=             -3.3790
 XXXZ=             10.4898 YYYX=             -3.9159 YYYZ=            -21.8484 ZZZX=             10.2829
 ZZZY=            -24.3141 XXYY=            -45.2349 XXZZ=            -39.2388 YYZZ=            -26.7918
 XXYZ=             -6.5416 YYXZ=              2.2084 ZZXY=             -1.8725
 N-N= 6.670368732292D+01 E-N=-4.052379117246D+02  KE= 1.166391823783D+02
  Exact polarizability:   0.000   0.000   0.000   0.000   0.000   0.000
 Approx polarizability:  95.632  10.453  29.848  -4.863   2.067  25.389

 This type of calculation cannot be archived.


 WHEN A MATHEMATICIAN ENGAGED IN INVESTIGATING
 PHYSICAL ACTIONS AND RESULTS HAS ARRIVED AT HIS
 CONCLUSIONS, MAY THEY NOT BE EXPRESSED IN COMMON
 LANGUAGE AS FULLY, CLEARLY, AND DEFINITELY AS IN
 MATHEMATICAL FORMULAE?
           - LETTER FROM M. FARADAY TO J.C. MAXWELL, 1857.
 Job cpu time:       0 days  3 hours 17 minutes 57.7 seconds.
 Elapsed time:       0 days  0 hours  9 minutes 18.8 seconds.
 File lengths (MBytes):  RWF=     10 Int=      0 D2E=      0 Chk=      3 Scr=      1
 Normal termination of Gaussian 16 at Fri Jul 17 19:01:36 2020.
