 Entering Gaussian System, Link 0=g16
 Initial command:
 /apps/cent7/gaussian/g16-B.01/g16-haswell/g16/l1.exe "/scratch/brown/zhao922/pyGSM/new-benchmarking/R1-3/IRC-folder/Gau-89016.inp" -scrdir="/scratch/brown/zhao922/pyGSM/new-benchmarking/R1-3/IRC-folder/"
 Entering Link 1 = /apps/cent7/gaussian/g16-B.01/g16-haswell/g16/l1.exe PID=     89017.
  
 Copyright (c) 1988-2017, Gaussian, Inc.  All Rights Reserved.
  
 This is part of the Gaussian(R) 16 program.  It is based on
 the Gaussian(R) 09 system (copyright 2009, Gaussian, Inc.),
 the Gaussian(R) 03 system (copyright 2003, Gaussian, Inc.),
 the Gaussian(R) 98 system (copyright 1998, Gaussian, Inc.),
 the Gaussian(R) 94 system (copyright 1995, Gaussian, Inc.),
 the Gaussian 92(TM) system (copyright 1992, Gaussian, Inc.),
 the Gaussian 90(TM) system (copyright 1990, Gaussian, Inc.),
 the Gaussian 88(TM) system (copyright 1988, Gaussian, Inc.),
 the Gaussian 86(TM) system (copyright 1986, Carnegie Mellon
 University), and the Gaussian 82(TM) system (copyright 1983,
 Carnegie Mellon University). Gaussian is a federally registered
 trademark of Gaussian, Inc.
  
 This software contains proprietary and confidential information,
 including trade secrets, belonging to Gaussian, Inc.
  
 This software is provided under written license and may be
 used, copied, transmitted, or stored only in accord with that
 written license.
  
 The following legend is applicable only to US Government
 contracts under FAR:
  
                    RESTRICTED RIGHTS LEGEND
  
 Use, reproduction and disclosure by the US Government is
 subject to restrictions as set forth in subparagraphs (a)
 and (c) of the Commercial Computer Software - Restricted
 Rights clause in FAR 52.227-19.
  
 Gaussian, Inc.
 340 Quinnipiac St., Bldg. 40, Wallingford CT 06492
  
  
 ---------------------------------------------------------------
 Warning -- This program may not be used in any manner that
 competes with the business of Gaussian, Inc. or will provide
 assistance to any competitor of Gaussian, Inc.  The licensee
 of this program is prohibited from giving any competitor of
 Gaussian, Inc. access to this program.  By using this program,
 the user acknowledges that Gaussian, Inc. is engaged in the
 business of creating and licensing software in the field of
 computational chemistry and represents and warrants to the
 licensee that it is not a competitor of Gaussian, Inc. and that
 it will not use this program in any manner prohibited above.
 ---------------------------------------------------------------
  

 Cite this work as:
 Gaussian 16, Revision B.01,
 M. J. Frisch, G. W. Trucks, H. B. Schlegel, G. E. Scuseria, 
 M. A. Robb, J. R. Cheeseman, G. Scalmani, V. Barone, 
 G. A. Petersson, H. Nakatsuji, X. Li, M. Caricato, A. V. Marenich, 
 J. Bloino, B. G. Janesko, R. Gomperts, B. Mennucci, H. P. Hratchian, 
 J. V. Ortiz, A. F. Izmaylov, J. L. Sonnenberg, D. Williams-Young, 
 F. Ding, F. Lipparini, F. Egidi, J. Goings, B. Peng, A. Petrone, 
 T. Henderson, D. Ranasinghe, V. G. Zakrzewski, J. Gao, N. Rega, 
 G. Zheng, W. Liang, M. Hada, M. Ehara, K. Toyota, R. Fukuda, 
 J. Hasegawa, M. Ishida, T. Nakajima, Y. Honda, O. Kitao, H. Nakai, 
 T. Vreven, K. Throssell, J. A. Montgomery, Jr., J. E. Peralta, 
 F. Ogliaro, M. J. Bearpark, J. J. Heyd, E. N. Brothers, K. N. Kudin, 
 V. N. Staroverov, T. A. Keith, R. Kobayashi, J. Normand, 
 K. Raghavachari, A. P. Rendell, J. C. Burant, S. S. Iyengar, 
 J. Tomasi, M. Cossi, J. M. Millam, M. Klene, C. Adamo, R. Cammi, 
 J. W. Ochterski, R. L. Martin, K. Morokuma, O. Farkas, 
 J. B. Foresman, and D. J. Fox, Gaussian, Inc., Wallingford CT, 2016.
 
 ******************************************
 Gaussian 16:  ES64L-G16RevB.01 20-Dec-2017
                17-Jul-2020 
 ******************************************
 %NProcShared=24
 Will use up to   24 processors via shared memory.
 %Mem=60GB
 ----------------------------------------------------------------------
 # B3LYP/6-31G** IRC=(CALCALL, maxpoints=60, StepSize=10, maxcyc=100, R
 eport=Cartesians)
 ----------------------------------------------------------------------
 1/6=100,10=4,18=10,26=3,38=1,39=10,42=60,44=3,71=1,129=10,172=1/1,23;
 2/12=2,17=6,18=5,29=1,40=1/2;
 3/5=1,6=6,7=101,11=2,25=1,30=1,71=2,74=-5,140=1/1,2,3;
 4//1;
 5/5=2,38=5/2;
 8/6=4,10=90,11=11/1;
 11/6=1,8=1,9=11,15=111,16=1/1,2,10;
 10/6=1,13=1/2;
 6/7=2,8=2,9=2,10=2,18=1,28=1/1;
 7/10=1,25=1/1,2,3,16;
 1/6=100,10=4,18=10,26=3,39=10,42=60,44=3,71=1,129=10/23(2);
 2/29=1/2;
 99/5=20/99;
 2/29=1/2;
 3/5=1,6=6,7=101,11=2,25=1,30=1,71=2,74=-5,140=1/1,2,3;
 4/5=5,16=3,69=1/1;
 5/5=2,38=5/2;
 8/6=4,10=90,11=11/1;
 11/6=1,8=1,9=11,15=111,16=1/1,2,10;
 10/6=1,13=1/2;
 7/10=1,25=1/1,2,3,16;
 1/6=100,10=4,18=10,26=3,39=10,42=60,44=3,71=1,129=10/23(-8);
 2/29=1/2;
 6/7=2,8=2,9=2,10=2,18=1,19=2,28=1/1;
 99/5=20/99;
 ----------
 pp_3_2 IRC
 ----------
 Symbolic Z-matrix:
 Charge =  0 Multiplicity = 1
 C                    -2.46412   0.45321   1.27257 
 C                    -1.21283  -0.02376   1.58353 
 C                     0.02869   0.18131   1.0792 
 H                    -1.44762  -0.95533   2.28574 
 H                    -3.32095   0.10764   1.83712 
 H                    -2.61082   1.29199   0.59238 
 H                    -2.44091  -1.53034   1.7815 
 H                     0.17991   0.43993   0.03493 
 H                     0.91426  -0.02198   1.67113 
 
 IRC-IRC-IRC-IRC-IRC-IRC-IRC-IRC-IRC-IRC-IRC-IRC-IRC-IRC-IRC-IRC-IRC-IRC
 ------------------------------------------------------------------------
 INPUT DATA FOR L123
 ------------------------------------------------------------------------
 GENERAL PARAMETERS:
 Follow reaction path in both directions.
 Maximum points per path      =  60
 Step size                    =   0.100 bohr
 Integration scheme           = HPC                                 
    Redo corrector integration= Yes                                 
    DWI Weight Power          =  2
    DWI will use Hessian update vectors when possible.
    Max correction cycles     = 100
 Initial Hessian              = CalcFC
 Hessian evaluation           = Analytic at all predictor steps
                              = Update at all corrector steps
 Hessian updating method      = Bofill                              
 ------------------------------------------------------------------------
 IRC-IRC-IRC-IRC-IRC-IRC-IRC-IRC-IRC-IRC-IRC-IRC-IRC-IRC-IRC-IRC-IRC-IRC
                          Input orientation:                          
 ---------------------------------------------------------------------
 Center     Atomic      Atomic             Coordinates (Angstroms)
 Number     Number       Type             X           Y           Z
 ---------------------------------------------------------------------
      1          6           0       -2.464123    0.453208    1.272571
      2          6           0       -1.212831   -0.023761    1.583531
      3          6           0        0.028687    0.181313    1.079195
      4          1           0       -1.447617   -0.955325    2.285743
      5          1           0       -3.320951    0.107644    1.837120
      6          1           0       -2.610815    1.291994    0.592380
      7          1           0       -2.440908   -1.530343    1.781504
      8          1           0        0.179905    0.439926    0.034933
      9          1           0        0.914255   -0.021982    1.671133
 ---------------------------------------------------------------------
                    Distance matrix (angstroms):
                    1          2          3          4          5
     1  C    0.000000
     2  C    1.374746   0.000000
     3  C    2.515039   1.355646   0.000000
     4  H    2.010912   1.189974   2.219725   0.000000
     5  H    1.082721   2.127380   3.435106   2.200124   0.000000
     6  H    1.089835   2.160544   2.904750   3.044824   1.859128
     7  H    2.047932   1.953754   3.085758   1.253607   1.860261
     8  H    2.919385   2.133747   1.086384   3.108327   3.951491
     9  H    3.434836   2.128890   1.084412   2.612913   4.240439
                    6          7          8          9
     6  H    0.000000
     7  H    3.067323   0.000000
     8  H    2.970671   3.714987   0.000000
     9  H    3.913612   3.680279   1.851966   0.000000
 Symmetry turned off by external request.
 Stoichiometry    C3H6
 Framework group  C1[X(C3H6)]
 Deg. of freedom    21
 Full point group                 C1      NOp   1
 Rotational constants (GHZ):          43.4893872           9.3832667           8.0707596
 Standard basis: 6-31G(d,p) (6D, 7F)
    75 basis functions,   126 primitive gaussians,    75 cartesian basis functions
    12 alpha electrons       12 beta electrons
       nuclear repulsion energy        70.1284778740 Hartrees.
 NAtoms=    9 NActive=    9 NUniq=    9 SFac= 1.00D+00 NAtFMM=   60 NAOKFM=F Big=F
 Integral buffers will be    131072 words long.
 Raffenetti 2 integral format.
 Two-electron integral symmetry is turned off.
 One-electron integrals computed using PRISM.
 NBasis=    75 RedAO= T EigKep=  4.19D-03  NBF=    75
 NBsUse=    75 1.00D-06 EigRej= -1.00D+00 NBFU=    75
 ExpMin= 1.61D-01 ExpMax= 3.05D+03 ExpMxC= 4.57D+02 IAcc=3 IRadAn=         5 AccDes= 0.00D+00
 Harris functional with IExCor=  402 and IRadAn=       5 diagonalized for initial guess.
 HarFok:  IExCor=  402 AccDes= 0.00D+00 IRadAn=         5 IDoV= 1 UseB2=F ITyADJ=14
 ICtDFT=  3500011 ScaDFX=  1.000000  1.000000  1.000000  1.000000
 FoFCou: FMM=F IPFlag=           0 FMFlag=      100000 FMFlg1=           0
         NFxFlg=           0 DoJE=T BraDBF=F KetDBF=T FulRan=T
         wScrn=  0.000000 ICntrl=       500 IOpCl=  0 I1Cent=   200000004 NGrid=           0
         NMat0=    1 NMatS0=      1 NMatT0=    0 NMatD0=    1 NMtDS0=    0 NMtDT0=    0
 Symmetry not used in FoFCou.
 Keep R1 ints in memory in canonical form, NReq=25608061.
 Requested convergence on RMS density matrix=1.00D-08 within 128 cycles.
 Requested convergence on MAX density matrix=1.00D-06.
 Requested convergence on             energy=1.00D-06.
 No special actions if energy rises.
 Integral accuracy reduced to 1.0D-05 until final iterations.
 Initial convergence to 1.0D-05 achieved.  Increase integral accuracy.
 SCF Done:  E(RB3LYP) =  -117.734849496     A.U. after   14 cycles
            NFock= 14  Conv=0.94D-08     -V/T= 2.0101
 DoSCS=F DFT=T ScalE2(SS,OS)=  1.000000  1.000000
 Range of M.O.s used for correlation:     1    75
 NBasis=    75 NAE=    12 NBE=    12 NFC=     0 NFV=     0
 NROrb=     75 NOA=    12 NOB=    12 NVA=    63 NVB=    63
 Symmetrizing basis deriv contribution to polar:
 IMax=3 JMax=2 DiffMx= 0.00D+00
 G2DrvN: will do    10 centers at a time, making    1 passes.
 Calling FoFCou, ICntrl=  3107 FMM=F I1Cent=   0 AccDes= 0.00D+00.
 End of G2Drv F.D. properties file   721 does not exist.
 End of G2Drv F.D. properties file   722 does not exist.
 End of G2Drv F.D. properties file   788 does not exist.
          IDoAtm=111111111
          Differentiating once with respect to nuclear coordinates.
 Keep R1 ints in memory in canonical form, NReq=25532406.
          There are    30 degrees of freedom in the 1st order CPHF.  IDoFFX=6 NUNeed=     0.
     24 vectors produced by pass  0 Test12= 2.52D-15 3.33D-09 XBig12= 1.26D-01 1.86D-01.
 AX will form    24 AO Fock derivatives at one time.
     24 vectors produced by pass  1 Test12= 2.52D-15 3.33D-09 XBig12= 3.33D-02 8.12D-02.
     24 vectors produced by pass  2 Test12= 2.52D-15 3.33D-09 XBig12= 2.43D-04 3.45D-03.
     24 vectors produced by pass  3 Test12= 2.52D-15 3.33D-09 XBig12= 3.22D-07 1.12D-04.
     24 vectors produced by pass  4 Test12= 2.52D-15 3.33D-09 XBig12= 2.58D-10 2.70D-06.
     12 vectors produced by pass  5 Test12= 2.52D-15 3.33D-09 XBig12= 1.70D-13 1.05D-07.
 InvSVY:  IOpt=1 It=  1 EMax= 1.22D-15
 Solved reduced A of dimension   132 with    24 vectors.
 End of Minotr F.D. properties file   721 does not exist.
 End of Minotr F.D. properties file   722 does not exist.
 End of Minotr F.D. properties file   788 does not exist.

 **********************************************************************

            Population analysis using the SCF Density.

 **********************************************************************

 Alpha  occ. eigenvalues --  -10.22601 -10.21369 -10.18409  -0.80512  -0.68995
 Alpha  occ. eigenvalues --   -0.56035  -0.49242  -0.44674  -0.40507  -0.37775
 Alpha  occ. eigenvalues --   -0.29750  -0.20198
 Alpha virt. eigenvalues --   -0.09211   0.03656   0.11738   0.12871   0.15252
 Alpha virt. eigenvalues --    0.18546   0.21176   0.29446   0.35693   0.48495
 Alpha virt. eigenvalues --    0.49643   0.54198   0.59444   0.63342   0.63836
 Alpha virt. eigenvalues --    0.67085   0.70189   0.79113   0.82290   0.83305
 Alpha virt. eigenvalues --    0.87761   0.88963   0.91999   0.97352   1.00493
 Alpha virt. eigenvalues --    1.12757   1.18050   1.35294   1.43945   1.46930
 Alpha virt. eigenvalues --    1.57672   1.71954   1.83248   1.84618   1.89674
 Alpha virt. eigenvalues --    1.93881   1.96781   2.00310   2.07087   2.10258
 Alpha virt. eigenvalues --    2.12913   2.22302   2.26354   2.36390   2.37403
 Alpha virt. eigenvalues --    2.43892   2.49164   2.52048   2.54015   2.64693
 Alpha virt. eigenvalues --    2.70830   2.75868   2.86878   2.92958   3.03204
 Alpha virt. eigenvalues --    3.19334   3.32586   3.33606   3.53332   3.64317
 Alpha virt. eigenvalues --    4.15718   4.28924   4.57701
          Condensed to atoms (all electrons):
               1          2          3          4          5          6
     1  C    5.034004   0.557886  -0.060905  -0.084501   0.368008   0.365198
     2  C    0.557886   4.764620   0.615742   0.277764  -0.029249  -0.034250
     3  C   -0.060905   0.615742   5.015120  -0.029138   0.005456  -0.002951
     4  H   -0.084501   0.277764  -0.029138   0.634097  -0.014367   0.007447
     5  H    0.368008  -0.029249   0.005456  -0.014367   0.549644  -0.037618
     6  H    0.365198  -0.034250  -0.002951   0.007447  -0.037618   0.575716
     7  H    0.021472  -0.124224  -0.015783   0.115962   0.016888   0.003325
     8  H   -0.009222  -0.036322   0.387287   0.004840  -0.000055   0.002693
     9  H    0.004783  -0.019051   0.370768  -0.006346  -0.000179  -0.000059
               7          8          9
     1  C    0.021472  -0.009222   0.004783
     2  C   -0.124224  -0.036322  -0.019051
     3  C   -0.015783   0.387287   0.370768
     4  H    0.115962   0.004840  -0.006346
     5  H    0.016888  -0.000055  -0.000179
     6  H    0.003325   0.002693  -0.000059
     7  H    1.104453  -0.000432   0.000347
     8  H   -0.000432   0.581486  -0.041804
     9  H    0.000347  -0.041804   0.582037
 Mulliken charges:
               1
     1  C   -0.196724
     2  C    0.027084
     3  C   -0.285596
     4  H    0.094242
     5  H    0.141471
     6  H    0.120498
     7  H   -0.122007
     8  H    0.111529
     9  H    0.109504
 Sum of Mulliken charges =  -0.00000
 Mulliken charges with hydrogens summed into heavy atoms:
               1
     1  C    0.065245
     2  C   -0.000681
     3  C   -0.064564
 APT charges:
               1
     1  C   -0.586655
     2  C   -0.253161
     3  C   -0.810468
     4  H    0.247665
     5  H    0.726615
     6  H    0.291299
     7  H   -0.155331
     8  H    0.143115
     9  H    0.396921
 Sum of APT charges =  -0.00000
 APT charges with hydrogens summed into heavy atoms:
               1
     1  C    0.431259
     2  C   -0.160828
     3  C   -0.270431
 Electronic spatial extent (au):  <R**2>=            493.5095
 Charge=             -0.0000 electrons
 Dipole moment (field-independent basis, Debye):
    X=             -0.1419    Y=              0.9814    Z=             -0.2063  Tot=              1.0128
 Quadrupole moment (field-independent basis, Debye-Ang):
   XX=            -18.5504   YY=            -22.8225   ZZ=            -20.7662
   XY=             -3.3043   XZ=              0.1243   YZ=              0.1639
 Traceless Quadrupole moment (field-independent basis, Debye-Ang):
   XX=              2.1626   YY=             -2.1095   ZZ=             -0.0532
   XY=             -3.3043   XZ=              0.1243   YZ=              0.1639
 Octapole moment (field-independent basis, Debye-Ang**2):
  XXX=             73.4308  YYY=             -1.7245  ZZZ=            -83.7431  XYY=             30.1497
  XXY=              7.6787  XXZ=            -24.6713  XZZ=             27.7056  YZZ=             -2.1410
  YYZ=            -31.9417  XYZ=             -3.2314
 Hexadecapole moment (field-independent basis, Debye-Ang**3):
 XXXX=           -366.9046 YYYY=            -67.4530 ZZZZ=           -268.8054 XXXY=            -19.7151
 XXXZ=            105.6817 YYYX=             -4.0383 YYYZ=              7.2045 ZZZX=            119.9995
 ZZZY=              1.1193 XXYY=            -85.5742 XXZZ=           -105.4466 YYZZ=            -62.0965
 XXYZ=             10.7963 YYXZ=             47.2809 ZZXY=             -2.1819
 N-N= 7.012847787401D+01 E-N=-4.117931342246D+02  KE= 1.165583761247D+02
  Exact polarizability:   0.000   0.000   0.000   0.000   0.000   0.000
 Approx polarizability: 137.983  57.073 109.096 -22.531 -37.608  44.730
 Calling FoFJK, ICntrl=    100127 FMM=F ISym2X=0 I1Cent= 0 IOpClX= 0 NMat=1 NMatS=1 NMatT=0.
 -------------------------------------------------------------------
 Center     Atomic                   Forces (Hartrees/Bohr)
 Number     Number              X              Y              Z
 -------------------------------------------------------------------
      1        6          -0.000000618    0.000000247   -0.000000041
      2        6          -0.000000005   -0.000000635    0.000002678
      3        6           0.000001674    0.000001599   -0.000000278
      4        1          -0.000002111   -0.000003356    0.000000223
      5        1          -0.000000932    0.000000179    0.000000091
      6        1          -0.000000021    0.000000275   -0.000000519
      7        1           0.000001616    0.000001507   -0.000001919
      8        1           0.000000099    0.000000281    0.000000200
      9        1           0.000000297   -0.000000098   -0.000000434
 -------------------------------------------------------------------
 Cartesian Forces:  Max     0.000003356 RMS     0.000001209
 IRC-IRC-IRC-IRC-IRC-IRC-IRC-IRC-IRC-IRC-IRC-IRC-IRC-IRC-IRC-IRC-IRC-IRC
          ******** Start new reaction path calculation ********
 Supplied step size of   0.1000 bohr.
    Integration on MW PES will use step size of   0.1027 sqrt(amu)*bohr.
 Point Number:   0          Path Number:   1
 Calculating another point on the path.
 IRC-IRC-IRC-IRC-IRC-IRC-IRC-IRC-IRC-IRC-IRC-IRC-IRC-IRC-IRC-IRC-IRC-IRC
                          Input orientation:                          
 ---------------------------------------------------------------------
 Center     Atomic      Atomic             Coordinates (Angstroms)
 Number     Number       Type             X           Y           Z
 ---------------------------------------------------------------------
      1          6           0       -1.214585    0.293465   -0.047515
      2          6           0        0.038512   -0.183891    0.265914
      3          6           0        1.279029    0.023490   -0.241004
      4          1           0       -0.175031   -1.090877    0.976254
      5          1           0       -2.069095   -0.041800    0.526127
      6          1           0       -1.362444    1.125095   -0.736789
      7          1           0       -1.213503   -1.681367    0.437676
      8          1           0        1.429831    0.292412   -1.282548
      9          1           0        2.164354   -0.187836    0.348434
 ---------------------------------------------------------------------
                    Distance matrix (angstroms):
                    1          2          3          4          5
     1  C    0.000000
     2  C    1.377084   0.000000
     3  C    2.515639   1.356044   0.000000
     4  H    2.011263   1.171668   2.199505   0.000000
     5  H    1.082430   2.128359   3.435504   2.211483   0.000000
     6  H    1.090215   2.163686   2.904603   3.042203   1.859020
     7  H    2.033562   1.959459   3.095135   1.310408   1.851497
     8  H    2.918603   2.135501   1.086220   3.096975   3.952909
     9  H    3.435936   2.127447   1.084387   2.585027   4.239693
                    6          7          8          9
     6  H    0.000000
     7  H    3.045945   0.000000
     8  H    2.964459   3.720509   0.000000
     9  H    3.916606   3.694390   1.852098   0.000000
 Symmetry turned off by external request.
 Stoichiometry    C3H6
 Framework group  C1[X(C3H6)]
 Deg. of freedom    21
 Full point group                 C1      NOp   1
 Rotational constants (GHZ):          43.6754860           9.3696596           8.0719126
 Standard basis: 6-31G(d,p) (6D, 7F)
    75 basis functions,   126 primitive gaussians,    75 cartesian basis functions
    12 alpha electrons       12 beta electrons
       nuclear repulsion energy        70.1393512450 Hartrees.
 NAtoms=    9 NActive=    9 NUniq=    9 SFac= 1.00D+00 NAtFMM=   60 NAOKFM=F Big=F
 Integral buffers will be    131072 words long.
 Raffenetti 2 integral format.
 Two-electron integral symmetry is turned off.
 One-electron integrals computed using PRISM.
 NBasis=    75 RedAO= T EigKep=  4.21D-03  NBF=    75
 NBsUse=    75 1.00D-06 EigRej= -1.00D+00 NBFU=    75
 Initial guess from the checkpoint file:  "/scratch/brown/zhao922/pyGSM/new-benchmarking/R1-3/IRC-folder/Gau-89017.chk"
 B after Tr=     2.362714   -0.298554   -2.494494
         Rot=    1.000000   -0.000049    0.000011    0.000202 Ang=  -0.02 deg.
 ExpMin= 1.61D-01 ExpMax= 3.05D+03 ExpMxC= 4.57D+02 IAcc=3 IRadAn=         5 AccDes= 0.00D+00
 Harris functional with IExCor=  402 and IRadAn=       5 diagonalized for initial guess.
 HarFok:  IExCor=  402 AccDes= 0.00D+00 IRadAn=         5 IDoV= 1 UseB2=F ITyADJ=14
 ICtDFT=  3500011 ScaDFX=  1.000000  1.000000  1.000000  1.000000
 FoFCou: FMM=F IPFlag=           0 FMFlag=      100000 FMFlg1=           0
         NFxFlg=           0 DoJE=T BraDBF=F KetDBF=T FulRan=T
         wScrn=  0.000000 ICntrl=       500 IOpCl=  0 I1Cent=   200000004 NGrid=           0
         NMat0=    1 NMatS0=      1 NMatT0=    0 NMatD0=    1 NMtDS0=    0 NMtDT0=    0
 Symmetry not used in FoFCou.
 Keep R1 ints in memory in canonical form, NReq=25608061.
 Requested convergence on RMS density matrix=1.00D-08 within 128 cycles.
 Requested convergence on MAX density matrix=1.00D-06.
 Requested convergence on             energy=1.00D-06.
 No special actions if energy rises.
 Integral accuracy reduced to 1.0D-05 until final iterations.
 Initial convergence to 1.0D-05 achieved.  Increase integral accuracy.
 SCF Done:  E(RB3LYP) =  -117.735214805     A.U. after   13 cycles
            NFock= 13  Conv=0.66D-08     -V/T= 2.0101
 DoSCS=F DFT=T ScalE2(SS,OS)=  1.000000  1.000000
 Range of M.O.s used for correlation:     1    75
 NBasis=    75 NAE=    12 NBE=    12 NFC=     0 NFV=     0
 NROrb=     75 NOA=    12 NOB=    12 NVA=    63 NVB=    63
 Symmetrizing basis deriv contribution to polar:
 IMax=3 JMax=2 DiffMx= 0.00D+00
 G2DrvN: will do    10 centers at a time, making    1 passes.
 Calling FoFCou, ICntrl=  3107 FMM=F I1Cent=   0 AccDes= 0.00D+00.
 End of G2Drv F.D. properties file   721 does not exist.
 End of G2Drv F.D. properties file   722 does not exist.
 End of G2Drv F.D. properties file   788 does not exist.
          IDoAtm=111111111
          Differentiating once with respect to nuclear coordinates.
 Keep R1 ints in memory in canonical form, NReq=25532406.
          There are    30 degrees of freedom in the 1st order CPHF.  IDoFFX=6 NUNeed=     0.
     24 vectors produced by pass  0 Test12= 2.52D-15 3.33D-09 XBig12= 1.24D-01 1.89D-01.
 AX will form    24 AO Fock derivatives at one time.
     24 vectors produced by pass  1 Test12= 2.52D-15 3.33D-09 XBig12= 3.49D-02 8.57D-02.
     24 vectors produced by pass  2 Test12= 2.52D-15 3.33D-09 XBig12= 2.51D-04 3.49D-03.
     24 vectors produced by pass  3 Test12= 2.52D-15 3.33D-09 XBig12= 3.16D-07 1.13D-04.
     24 vectors produced by pass  4 Test12= 2.52D-15 3.33D-09 XBig12= 2.53D-10 2.72D-06.
     12 vectors produced by pass  5 Test12= 2.52D-15 3.33D-09 XBig12= 1.65D-13 9.56D-08.
 InvSVY:  IOpt=1 It=  1 EMax= 1.33D-15
 Solved reduced A of dimension   132 with    24 vectors.
 End of Minotr F.D. properties file   721 does not exist.
 End of Minotr F.D. properties file   722 does not exist.
 End of Minotr F.D. properties file   788 does not exist.
 Calling FoFJK, ICntrl=    100127 FMM=F ISym2X=0 I1Cent= 0 IOpClX= 0 NMat=1 NMatS=1 NMatT=0.
 -------------------------------------------------------------------
 Center     Atomic                   Forces (Hartrees/Bohr)
 Number     Number              X              Y              Z
 -------------------------------------------------------------------
      1        6          -0.001400483   -0.002564643   -0.000474065
      2        6           0.001964209   -0.002277426    0.002996102
      3        6          -0.000123607    0.000712421   -0.000736867
      4        1           0.002706120    0.002506514    0.001673931
      5        1           0.000232776    0.001277959    0.001143629
      6        1          -0.000271879   -0.001236127   -0.001235034
      7        1          -0.003014570    0.001154649   -0.003280043
      8        1          -0.000049340    0.001418290    0.000335095
      9        1          -0.000043226   -0.000991637   -0.000422749
 -------------------------------------------------------------------
 Cartesian Forces:  Max     0.003280043 RMS     0.001665006
 IRC-IRC-IRC-IRC-IRC-IRC-IRC-IRC-IRC-IRC-IRC-IRC-IRC-IRC-IRC-IRC-IRC-IRC
 Pt  1 Step number   1 out of a maximum of 100
 Modified Bulirsch-Stoer Extrapolation Cycles:
    EPS =    0.000010000000000
      PEZero:  N= 2 I= 1 D=  2.68D-04 Err=  3.77D-04
      PEZero:  N= 3 I= 2 D=  2.68D-04 Err=  2.52D-04
      PEZero:  N= 3 I= 1 D=  5.35D-04 Err=  1.31D-07
 Maximum DWI energy   std dev =  0.000001946 at pt     1
 Maximum DWI gradient std dev =  0.019893480 at pt    21
 CORRECTOR INTEGRATION CONVERGENCE:
   Recorrection delta-x convergence threshold:    0.010000
   Delta-x Convergence Met
 Point Number:   1          Path Number:   1
   CHANGE IN THE REACTION COORDINATE =    0.10270
   NET REACTION COORDINATE UP TO THIS POINT =    0.10270
  # OF POINTS ALONG THE PATH =   1
  # OF STEPS =   1

 Calculating another point on the path.
 IRC-IRC-IRC-IRC-IRC-IRC-IRC-IRC-IRC-IRC-IRC-IRC-IRC-IRC-IRC-IRC-IRC-IRC
                          Input orientation:                          
 ---------------------------------------------------------------------
 Center     Atomic      Atomic             Coordinates (Angstroms)
 Number     Number       Type             X           Y           Z
 ---------------------------------------------------------------------
      1          6           0       -1.215494    0.291661   -0.047800
      2          6           0        0.039829   -0.185355    0.267952
      3          6           0        1.278957    0.023922   -0.241471
      4          1           0       -0.154818   -1.070926    0.987803
      5          1           0       -2.067590   -0.031771    0.535389
      6          1           0       -1.364617    1.115581   -0.746515
      7          1           0       -1.236377   -1.671357    0.412088
      8          1           0        1.429413    0.303279   -1.280144
      9          1           0        2.164115   -0.195407    0.345218
 ---------------------------------------------------------------------
                    Distance matrix (angstroms):
                    1          2          3          4          5
     1  C    0.000000
     2  C    1.379522   0.000000
     3  C    2.516243   1.356004   0.000000
     4  H    2.013492   1.157717   2.183006   0.000000
     5  H    1.082028   2.129865   3.435984   2.223335   0.000000
     6  H    1.090543   2.166575   2.904354   3.041757   1.858458
     7  H    2.016276   1.964098   3.102904   1.364454   1.842379
     8  H    2.917934   2.136892   1.086057   3.088982   3.954421
     9  H    3.437071   2.125714   1.084350   2.560644   4.239135
                    6          7          8          9
     6  H    0.000000
     7  H    3.020898   0.000000
     8  H    2.958242   3.724147   0.000000
     9  H    3.919505   3.707593   1.852101   0.000000
 Symmetry turned off by external request.
 Stoichiometry    C3H6
 Framework group  C1[X(C3H6)]
 Deg. of freedom    21
 Full point group                 C1      NOp   1
 Rotational constants (GHZ):          43.8787338           9.3551843           8.0732502
 Standard basis: 6-31G(d,p) (6D, 7F)
    75 basis functions,   126 primitive gaussians,    75 cartesian basis functions
    12 alpha electrons       12 beta electrons
       nuclear repulsion energy        70.1478895405 Hartrees.
 NAtoms=    9 NActive=    9 NUniq=    9 SFac= 1.00D+00 NAtFMM=   60 NAOKFM=F Big=F
 Integral buffers will be    131072 words long.
 Raffenetti 2 integral format.
 Two-electron integral symmetry is turned off.
 One-electron integrals computed using PRISM.
 NBasis=    75 RedAO= T EigKep=  4.24D-03  NBF=    75
 NBsUse=    75 1.00D-06 EigRej= -1.00D+00 NBFU=    75
 Initial guess from the checkpoint file:  "/scratch/brown/zhao922/pyGSM/new-benchmarking/R1-3/IRC-folder/Gau-89017.chk"
 B after Tr=    -0.000125    0.001298   -0.000584
         Rot=    1.000000   -0.000092    0.000025    0.000241 Ang=  -0.03 deg.
 ExpMin= 1.61D-01 ExpMax= 3.05D+03 ExpMxC= 4.57D+02 IAcc=3 IRadAn=         5 AccDes= 0.00D+00
 Harris functional with IExCor=  402 and IRadAn=       5 diagonalized for initial guess.
 HarFok:  IExCor=  402 AccDes= 0.00D+00 IRadAn=         5 IDoV= 1 UseB2=F ITyADJ=14
 ICtDFT=  3500011 ScaDFX=  1.000000  1.000000  1.000000  1.000000
 FoFCou: FMM=F IPFlag=           0 FMFlag=      100000 FMFlg1=           0
         NFxFlg=           0 DoJE=T BraDBF=F KetDBF=T FulRan=T
         wScrn=  0.000000 ICntrl=       500 IOpCl=  0 I1Cent=   200000004 NGrid=           0
         NMat0=    1 NMatS0=      1 NMatT0=    0 NMatD0=    1 NMtDS0=    0 NMtDT0=    0
 Symmetry not used in FoFCou.
 Keep R1 ints in memory in canonical form, NReq=25608061.
 Requested convergence on RMS density matrix=1.00D-08 within 128 cycles.
 Requested convergence on MAX density matrix=1.00D-06.
 Requested convergence on             energy=1.00D-06.
 No special actions if energy rises.
 Integral accuracy reduced to 1.0D-05 until final iterations.
 Initial convergence to 1.0D-05 achieved.  Increase integral accuracy.
 SCF Done:  E(RB3LYP) =  -117.736261925     A.U. after   13 cycles
            NFock= 13  Conv=0.54D-08     -V/T= 2.0101
 DoSCS=F DFT=T ScalE2(SS,OS)=  1.000000  1.000000
 Range of M.O.s used for correlation:     1    75
 NBasis=    75 NAE=    12 NBE=    12 NFC=     0 NFV=     0
 NROrb=     75 NOA=    12 NOB=    12 NVA=    63 NVB=    63
 Symmetrizing basis deriv contribution to polar:
 IMax=3 JMax=2 DiffMx= 0.00D+00
 G2DrvN: will do    10 centers at a time, making    1 passes.
 Calling FoFCou, ICntrl=  3107 FMM=F I1Cent=   0 AccDes= 0.00D+00.
 End of G2Drv F.D. properties file   721 does not exist.
 End of G2Drv F.D. properties file   722 does not exist.
 End of G2Drv F.D. properties file   788 does not exist.
          IDoAtm=111111111
          Differentiating once with respect to nuclear coordinates.
 Keep R1 ints in memory in canonical form, NReq=25532406.
          There are    30 degrees of freedom in the 1st order CPHF.  IDoFFX=6 NUNeed=     0.
     24 vectors produced by pass  0 Test12= 2.52D-15 3.33D-09 XBig12= 1.23D-01 1.93D-01.
 AX will form    24 AO Fock derivatives at one time.
     24 vectors produced by pass  1 Test12= 2.52D-15 3.33D-09 XBig12= 3.62D-02 8.95D-02.
     24 vectors produced by pass  2 Test12= 2.52D-15 3.33D-09 XBig12= 2.56D-04 3.48D-03.
     24 vectors produced by pass  3 Test12= 2.52D-15 3.33D-09 XBig12= 3.13D-07 1.20D-04.
     24 vectors produced by pass  4 Test12= 2.52D-15 3.33D-09 XBig12= 2.72D-10 2.90D-06.
     12 vectors produced by pass  5 Test12= 2.52D-15 3.33D-09 XBig12= 1.73D-13 8.77D-08.
 InvSVY:  IOpt=1 It=  1 EMax= 9.99D-16
 Solved reduced A of dimension   132 with    24 vectors.
 End of Minotr F.D. properties file   721 does not exist.
 End of Minotr F.D. properties file   722 does not exist.
 End of Minotr F.D. properties file   788 does not exist.
 Calling FoFJK, ICntrl=    100127 FMM=F ISym2X=0 I1Cent= 0 IOpClX= 0 NMat=1 NMatS=1 NMatT=0.
 -------------------------------------------------------------------
 Center     Atomic                   Forces (Hartrees/Bohr)
 Number     Number              X              Y              Z
 -------------------------------------------------------------------
      1        6          -0.002787899   -0.005544945   -0.000789926
      2        6           0.004104517   -0.003969072    0.005852372
      3        6          -0.000264791    0.001231481   -0.001371204
      4        1           0.004829912    0.004666245    0.002962132
      5        1           0.000414779    0.002558427    0.002277280
      6        1          -0.000545629   -0.002421477   -0.002373395
      7        1          -0.005582880    0.002670492   -0.006364513
      8        1          -0.000102473    0.002664880    0.000619255
      9        1          -0.000065538   -0.001856031   -0.000812000
 -------------------------------------------------------------------
 Cartesian Forces:  Max     0.006364513 RMS     0.003205583
 IRC-IRC-IRC-IRC-IRC-IRC-IRC-IRC-IRC-IRC-IRC-IRC-IRC-IRC-IRC-IRC-IRC-IRC
 Pt  2 Step number   1 out of a maximum of 100
 Modified Bulirsch-Stoer Extrapolation Cycles:
    EPS =    0.000010000000000
      PEZero:  N= 2 I= 1 D=  5.35D-04 Err=  2.74D-05
      PEZero:  N= 3 I= 2 D=  5.35D-04 Err=  1.83D-05
      PEZero:  N= 3 I= 1 D=  1.07D-03 Err=  4.78D-08
 Maximum DWI energy   std dev =  0.000001869 at pt    27
 Maximum DWI gradient std dev =  0.010921475 at pt    23
 CORRECTOR INTEGRATION CONVERGENCE:
   Recorrection delta-x convergence threshold:    0.010000
   Delta-x Convergence Met
 Point Number:   2          Path Number:   1
   CHANGE IN THE REACTION COORDINATE =    0.10268
   NET REACTION COORDINATE UP TO THIS POINT =    0.20538
  # OF POINTS ALONG THE PATH =   2
  # OF STEPS =   1

 Calculating another point on the path.
 IRC-IRC-IRC-IRC-IRC-IRC-IRC-IRC-IRC-IRC-IRC-IRC-IRC-IRC-IRC-IRC-IRC-IRC
                          Input orientation:                          
 ---------------------------------------------------------------------
 Center     Atomic      Atomic             Coordinates (Angstroms)
 Number     Number       Type             X           Y           Z
 ---------------------------------------------------------------------
      1          6           0       -1.216463    0.289650   -0.048052
      2          6           0        0.041301   -0.186640    0.269968
      3          6           0        1.278856    0.024322   -0.241932
      4          1           0       -0.135790   -1.052288    0.999566
      5          1           0       -2.066027   -0.021104    0.544907
      6          1           0       -1.366907    1.105617   -0.756261
      7          1           0       -1.258815   -1.659505    0.385891
      8          1           0        1.428987    0.314072   -1.277672
      9          1           0        2.163888   -0.202912    0.341895
 ---------------------------------------------------------------------
                    Distance matrix (angstroms):
                    1          2          3          4          5
     1  C    0.000000
     2  C    1.382013   0.000000
     3  C    2.516864   1.355761   0.000000
     4  H    2.016471   1.145871   2.168324   0.000000
     5  H    1.081632   2.131625   3.436484   2.235144   0.000000
     6  H    1.090870   2.169361   2.904100   3.042225   1.857770
     7  H    1.997325   1.968013   3.109536   1.416508   1.833367
     8  H    2.917356   2.138123   1.085933   3.082414   3.955914
     9  H    3.438233   2.123867   1.084330   2.538206   4.238684
                    6          7          8          9
     6  H    0.000000
     7  H    2.993677   0.000000
     8  H    2.952191   3.726490   0.000000
     9  H    3.922334   3.720013   1.852120   0.000000
 Symmetry turned off by external request.
 Stoichiometry    C3H6
 Framework group  C1[X(C3H6)]
 Deg. of freedom    21
 Full point group                 C1      NOp   1
 Rotational constants (GHZ):          44.0946847           9.3402513           8.0747712
 Standard basis: 6-31G(d,p) (6D, 7F)
    75 basis functions,   126 primitive gaussians,    75 cartesian basis functions
    12 alpha electrons       12 beta electrons
       nuclear repulsion energy        70.1562699589 Hartrees.
 NAtoms=    9 NActive=    9 NUniq=    9 SFac= 1.00D+00 NAtFMM=   60 NAOKFM=F Big=F
 Integral buffers will be    131072 words long.
 Raffenetti 2 integral format.
 Two-electron integral symmetry is turned off.
 One-electron integrals computed using PRISM.
 NBasis=    75 RedAO= T EigKep=  4.25D-03  NBF=    75
 NBsUse=    75 1.00D-06 EigRej= -1.00D+00 NBFU=    75
 Initial guess from the checkpoint file:  "/scratch/brown/zhao922/pyGSM/new-benchmarking/R1-3/IRC-folder/Gau-89017.chk"
 B after Tr=    -0.000155    0.001324   -0.000590
         Rot=    1.000000   -0.000110    0.000029    0.000262 Ang=  -0.03 deg.
 ExpMin= 1.61D-01 ExpMax= 3.05D+03 ExpMxC= 4.57D+02 IAcc=3 IRadAn=         5 AccDes= 0.00D+00
 Harris functional with IExCor=  402 and IRadAn=       5 diagonalized for initial guess.
 HarFok:  IExCor=  402 AccDes= 0.00D+00 IRadAn=         5 IDoV= 1 UseB2=F ITyADJ=14
 ICtDFT=  3500011 ScaDFX=  1.000000  1.000000  1.000000  1.000000
 FoFCou: FMM=F IPFlag=           0 FMFlag=      100000 FMFlg1=           0
         NFxFlg=           0 DoJE=T BraDBF=F KetDBF=T FulRan=T
         wScrn=  0.000000 ICntrl=       500 IOpCl=  0 I1Cent=   200000004 NGrid=           0
         NMat0=    1 NMatS0=      1 NMatT0=    0 NMatD0=    1 NMtDS0=    0 NMtDT0=    0
 Symmetry not used in FoFCou.
 Keep R1 ints in memory in canonical form, NReq=25608061.
 Requested convergence on RMS density matrix=1.00D-08 within 128 cycles.
 Requested convergence on MAX density matrix=1.00D-06.
 Requested convergence on             energy=1.00D-06.
 No special actions if energy rises.
 Integral accuracy reduced to 1.0D-05 until final iterations.
 Initial convergence to 1.0D-05 achieved.  Increase integral accuracy.
 SCF Done:  E(RB3LYP) =  -117.737919195     A.U. after   13 cycles
            NFock= 13  Conv=0.33D-08     -V/T= 2.0101
 DoSCS=F DFT=T ScalE2(SS,OS)=  1.000000  1.000000
 Range of M.O.s used for correlation:     1    75
 NBasis=    75 NAE=    12 NBE=    12 NFC=     0 NFV=     0
 NROrb=     75 NOA=    12 NOB=    12 NVA=    63 NVB=    63
 Symmetrizing basis deriv contribution to polar:
 IMax=3 JMax=2 DiffMx= 0.00D+00
 G2DrvN: will do    10 centers at a time, making    1 passes.
 Calling FoFCou, ICntrl=  3107 FMM=F I1Cent=   0 AccDes= 0.00D+00.
 End of G2Drv F.D. properties file   721 does not exist.
 End of G2Drv F.D. properties file   722 does not exist.
 End of G2Drv F.D. properties file   788 does not exist.
          IDoAtm=111111111
          Differentiating once with respect to nuclear coordinates.
 Keep R1 ints in memory in canonical form, NReq=25532406.
          There are    30 degrees of freedom in the 1st order CPHF.  IDoFFX=6 NUNeed=     0.
     24 vectors produced by pass  0 Test12= 2.52D-15 3.33D-09 XBig12= 1.24D-01 1.96D-01.
 AX will form    24 AO Fock derivatives at one time.
     24 vectors produced by pass  1 Test12= 2.52D-15 3.33D-09 XBig12= 3.71D-02 9.24D-02.
     24 vectors produced by pass  2 Test12= 2.52D-15 3.33D-09 XBig12= 2.60D-04 3.42D-03.
     24 vectors produced by pass  3 Test12= 2.52D-15 3.33D-09 XBig12= 3.35D-07 1.28D-04.
     24 vectors produced by pass  4 Test12= 2.52D-15 3.33D-09 XBig12= 2.91D-10 2.95D-06.
     12 vectors produced by pass  5 Test12= 2.52D-15 3.33D-09 XBig12= 1.79D-13 8.10D-08.
 InvSVY:  IOpt=1 It=  1 EMax= 1.78D-15
 Solved reduced A of dimension   132 with    24 vectors.
 End of Minotr F.D. properties file   721 does not exist.
 End of Minotr F.D. properties file   722 does not exist.
 End of Minotr F.D. properties file   788 does not exist.
 Calling FoFJK, ICntrl=    100127 FMM=F ISym2X=0 I1Cent= 0 IOpClX= 0 NMat=1 NMatS=1 NMatT=0.
 -------------------------------------------------------------------
 Center     Atomic                   Forces (Hartrees/Bohr)
 Number     Number              X              Y              Z
 -------------------------------------------------------------------
      1        6          -0.004224169   -0.008884362   -0.000971437
      2        6           0.006531459   -0.004889664    0.008295203
      3        6          -0.000491048    0.001603972   -0.001913794
      4        1           0.006418889    0.006206835    0.004225555
      5        1           0.000588946    0.003880094    0.003361401
      6        1          -0.000823266   -0.003601144   -0.003398123
      7        1          -0.007768796    0.004534538   -0.009301203
      8        1          -0.000149937    0.003765501    0.000893997
      9        1          -0.000082078   -0.002615769   -0.001191599
 -------------------------------------------------------------------
 Cartesian Forces:  Max     0.009301203 RMS     0.004633811
 IRC-IRC-IRC-IRC-IRC-IRC-IRC-IRC-IRC-IRC-IRC-IRC-IRC-IRC-IRC-IRC-IRC-IRC
 Pt  3 Step number   1 out of a maximum of 100
 Modified Bulirsch-Stoer Extrapolation Cycles:
    EPS =    0.000010000000000
      PEZero:  N= 2 I= 1 D=  5.35D-04 Err=  3.01D-05
      PEZero:  N= 3 I= 2 D=  5.35D-04 Err=  2.01D-05
      PEZero:  N= 3 I= 1 D=  1.07D-03 Err=  3.45D-08
 Maximum DWI energy   std dev =  0.000001592 at pt    28
 Maximum DWI gradient std dev =  0.005509619 at pt    24
 CORRECTOR INTEGRATION CONVERGENCE:
   Recorrection delta-x convergence threshold:    0.010000
   Delta-x Convergence Met
 Point Number:   3          Path Number:   1
   CHANGE IN THE REACTION COORDINATE =    0.10268
   NET REACTION COORDINATE UP TO THIS POINT =    0.30807
  # OF POINTS ALONG THE PATH =   3
  # OF STEPS =   1

 Calculating another point on the path.
 IRC-IRC-IRC-IRC-IRC-IRC-IRC-IRC-IRC-IRC-IRC-IRC-IRC-IRC-IRC-IRC-IRC-IRC
                          Input orientation:                          
 ---------------------------------------------------------------------
 Center     Atomic      Atomic             Coordinates (Angstroms)
 Number     Number       Type             X           Y           Z
 ---------------------------------------------------------------------
      1          6           0       -1.217499    0.287406   -0.048268
      2          6           0        0.042936   -0.187732    0.271958
      3          6           0        1.278726    0.024687   -0.242382
      4          1           0       -0.118121   -1.035087    1.011442
      5          1           0       -2.064408   -0.009755    0.554686
      6          1           0       -1.369323    1.095209   -0.765977
      7          1           0       -1.280638   -1.645533    0.359094
      8          1           0        1.428552    0.324740   -1.275138
      9          1           0        2.163681   -0.210315    0.338468
 ---------------------------------------------------------------------
                    Distance matrix (angstroms):
                    1          2          3          4          5
     1  C    0.000000
     2  C    1.384557   0.000000
     3  C    2.517507   1.355303   0.000000
     4  H    2.020051   1.136128   2.155546   0.000000
     5  H    1.081256   2.133661   3.437012   2.246767   0.000000
     6  H    1.091192   2.172032   2.903848   3.043499   1.856944
     7  H    1.976407   1.970944   3.114763   1.466168   1.824368
     8  H    2.916880   2.139174   1.085847   3.077301   3.957387
     9  H    3.439429   2.121908   1.084324   2.517888   4.238361
                    6          7          8          9
     6  H    0.000000
     7  H    2.964003   0.000000
     8  H    2.946349   3.727251   0.000000
     9  H    3.925087   3.731435   1.852140   0.000000
 Symmetry turned off by external request.
 Stoichiometry    C3H6
 Framework group  C1[X(C3H6)]
 Deg. of freedom    21
 Full point group                 C1      NOp   1
 Rotational constants (GHZ):          44.3282296           9.3250037           8.0765818
 Standard basis: 6-31G(d,p) (6D, 7F)
    75 basis functions,   126 primitive gaussians,    75 cartesian basis functions
    12 alpha electrons       12 beta electrons
       nuclear repulsion energy        70.1648643268 Hartrees.
 NAtoms=    9 NActive=    9 NUniq=    9 SFac= 1.00D+00 NAtFMM=   60 NAOKFM=F Big=F
 Integral buffers will be    131072 words long.
 Raffenetti 2 integral format.
 Two-electron integral symmetry is turned off.
 One-electron integrals computed using PRISM.
 NBasis=    75 RedAO= T EigKep=  4.27D-03  NBF=    75
 NBsUse=    75 1.00D-06 EigRej= -1.00D+00 NBFU=    75
 Initial guess from the checkpoint file:  "/scratch/brown/zhao922/pyGSM/new-benchmarking/R1-3/IRC-folder/Gau-89017.chk"
 B after Tr=    -0.000184    0.001357   -0.000596
         Rot=    1.000000   -0.000133    0.000035    0.000285 Ang=  -0.04 deg.
 ExpMin= 1.61D-01 ExpMax= 3.05D+03 ExpMxC= 4.57D+02 IAcc=3 IRadAn=         5 AccDes= 0.00D+00
 Harris functional with IExCor=  402 and IRadAn=       5 diagonalized for initial guess.
 HarFok:  IExCor=  402 AccDes= 0.00D+00 IRadAn=         5 IDoV= 1 UseB2=F ITyADJ=14
 ICtDFT=  3500011 ScaDFX=  1.000000  1.000000  1.000000  1.000000
 FoFCou: FMM=F IPFlag=           0 FMFlag=      100000 FMFlg1=           0
         NFxFlg=           0 DoJE=T BraDBF=F KetDBF=T FulRan=T
         wScrn=  0.000000 ICntrl=       500 IOpCl=  0 I1Cent=   200000004 NGrid=           0
         NMat0=    1 NMatS0=      1 NMatT0=    0 NMatD0=    1 NMtDS0=    0 NMtDT0=    0
 Symmetry not used in FoFCou.
 Keep R1 ints in memory in canonical form, NReq=25608061.
 Requested convergence on RMS density matrix=1.00D-08 within 128 cycles.
 Requested convergence on MAX density matrix=1.00D-06.
 Requested convergence on             energy=1.00D-06.
 No special actions if energy rises.
 Integral accuracy reduced to 1.0D-05 until final iterations.
 Initial convergence to 1.0D-05 achieved.  Increase integral accuracy.
 SCF Done:  E(RB3LYP) =  -117.740131253     A.U. after   13 cycles
            NFock= 13  Conv=0.19D-08     -V/T= 2.0101
 DoSCS=F DFT=T ScalE2(SS,OS)=  1.000000  1.000000
 Range of M.O.s used for correlation:     1    75
 NBasis=    75 NAE=    12 NBE=    12 NFC=     0 NFV=     0
 NROrb=     75 NOA=    12 NOB=    12 NVA=    63 NVB=    63
 Symmetrizing basis deriv contribution to polar:
 IMax=3 JMax=2 DiffMx= 0.00D+00
 G2DrvN: will do    10 centers at a time, making    1 passes.
 Calling FoFCou, ICntrl=  3107 FMM=F I1Cent=   0 AccDes= 0.00D+00.
 End of G2Drv F.D. properties file   721 does not exist.
 End of G2Drv F.D. properties file   722 does not exist.
 End of G2Drv F.D. properties file   788 does not exist.
          IDoAtm=111111111
          Differentiating once with respect to nuclear coordinates.
 Keep R1 ints in memory in canonical form, NReq=25532406.
          There are    30 degrees of freedom in the 1st order CPHF.  IDoFFX=6 NUNeed=     0.
     24 vectors produced by pass  0 Test12= 2.52D-15 3.33D-09 XBig12= 1.26D-01 1.98D-01.
 AX will form    24 AO Fock derivatives at one time.
     24 vectors produced by pass  1 Test12= 2.52D-15 3.33D-09 XBig12= 3.75D-02 9.45D-02.
     24 vectors produced by pass  2 Test12= 2.52D-15 3.33D-09 XBig12= 2.61D-04 3.30D-03.
     24 vectors produced by pass  3 Test12= 2.52D-15 3.33D-09 XBig12= 3.57D-07 1.37D-04.
     24 vectors produced by pass  4 Test12= 2.52D-15 3.33D-09 XBig12= 3.07D-10 3.08D-06.
     11 vectors produced by pass  5 Test12= 2.52D-15 3.33D-09 XBig12= 1.81D-13 7.52D-08.
 InvSVY:  IOpt=1 It=  1 EMax= 1.33D-15
 Solved reduced A of dimension   131 with    24 vectors.
 End of Minotr F.D. properties file   721 does not exist.
 End of Minotr F.D. properties file   722 does not exist.
 End of Minotr F.D. properties file   788 does not exist.
 Calling FoFJK, ICntrl=    100127 FMM=F ISym2X=0 I1Cent= 0 IOpClX= 0 NMat=1 NMatS=1 NMatT=0.
 -------------------------------------------------------------------
 Center     Atomic                   Forces (Hartrees/Bohr)
 Number     Number              X              Y              Z
 -------------------------------------------------------------------
      1        6          -0.005728133   -0.012554665   -0.001056535
      2        6           0.009116297   -0.005278877    0.010471269
      3        6          -0.000761619    0.001840211   -0.002368043
      4        1           0.007576050    0.007328873    0.005342811
      5        1           0.000769080    0.005232213    0.004393906
      6        1          -0.001104820   -0.004759931   -0.004299788
      7        1          -0.009579390    0.006744404   -0.012083586
      8        1          -0.000195254    0.004723105    0.001156092
      9        1          -0.000092212   -0.003275333   -0.001556127
 -------------------------------------------------------------------
 Cartesian Forces:  Max     0.012554665 RMS     0.005997350
 IRC-IRC-IRC-IRC-IRC-IRC-IRC-IRC-IRC-IRC-IRC-IRC-IRC-IRC-IRC-IRC-IRC-IRC
 Pt  4 Step number   1 out of a maximum of 100
 Modified Bulirsch-Stoer Extrapolation Cycles:
    EPS =    0.000010000000000
      PEZero:  N= 2 I= 1 D=  5.35D-04 Err=  3.16D-05
      PEZero:  N= 3 I= 2 D=  5.35D-04 Err=  2.10D-05
      PEZero:  N= 3 I= 1 D=  1.07D-03 Err=  2.57D-08
 Maximum DWI energy   std dev =  0.000001315 at pt    28
 Maximum DWI gradient std dev =  0.003469718 at pt    24
 CORRECTOR INTEGRATION CONVERGENCE:
   Recorrection delta-x convergence threshold:    0.010000
   Delta-x Convergence Met
 Point Number:   4          Path Number:   1
   CHANGE IN THE REACTION COORDINATE =    0.10269
   NET REACTION COORDINATE UP TO THIS POINT =    0.41075
  # OF POINTS ALONG THE PATH =   4
  # OF STEPS =   1

 Calculating another point on the path.
 IRC-IRC-IRC-IRC-IRC-IRC-IRC-IRC-IRC-IRC-IRC-IRC-IRC-IRC-IRC-IRC-IRC-IRC
                          Input orientation:                          
 ---------------------------------------------------------------------
 Center     Atomic      Atomic             Coordinates (Angstroms)
 Number     Number       Type             X           Y           Z
 ---------------------------------------------------------------------
      1          6           0       -1.218603    0.284934   -0.048453
      2          6           0        0.044713   -0.188647    0.273923
      3          6           0        1.278573    0.025012   -0.242818
      4          1           0       -0.101796   -1.019217    1.023222
      5          1           0       -2.062714    0.002231    0.564670
      6          1           0       -1.371860    1.084430   -0.775570
      7          1           0       -1.301676   -1.629368    0.331839
      8          1           0        1.428110    0.335210   -1.272558
      9          1           0        2.163497   -0.217572    0.334962
 ---------------------------------------------------------------------
                    Distance matrix (angstroms):
                    1          2          3          4          5
     1  C    0.000000
     2  C    1.387145   0.000000
     3  C    2.518178   1.354652   0.000000
     4  H    2.023994   1.128167   2.144456   0.000000
     5  H    1.080908   2.135934   3.437550   2.258058   0.000000
     6  H    1.091504   2.174589   2.903616   3.045332   1.855983
     7  H    1.953477   1.972763   3.118475   1.513277   1.815352
     8  H    2.916513   2.140051   1.085794   3.073385   3.958804
     9  H    3.440657   2.119861   1.084329   2.499579   4.238153
                    6          7          8          9
     6  H    0.000000
     7  H    2.931889   0.000000
     8  H    2.940776   3.726311   0.000000
     9  H    3.927753   3.741739   1.852157   0.000000
 Symmetry turned off by external request.
 Stoichiometry    C3H6
 Framework group  C1[X(C3H6)]
 Deg. of freedom    21
 Full point group                 C1      NOp   1
 Rotational constants (GHZ):          44.5824023           9.3096295           8.0787467
 Standard basis: 6-31G(d,p) (6D, 7F)
    75 basis functions,   126 primitive gaussians,    75 cartesian basis functions
    12 alpha electrons       12 beta electrons
       nuclear repulsion energy        70.1745222952 Hartrees.
 NAtoms=    9 NActive=    9 NUniq=    9 SFac= 1.00D+00 NAtFMM=   60 NAOKFM=F Big=F
 Integral buffers will be    131072 words long.
 Raffenetti 2 integral format.
 Two-electron integral symmetry is turned off.
 One-electron integrals computed using PRISM.
 NBasis=    75 RedAO= T EigKep=  4.28D-03  NBF=    75
 NBsUse=    75 1.00D-06 EigRej= -1.00D+00 NBFU=    75
 Initial guess from the checkpoint file:  "/scratch/brown/zhao922/pyGSM/new-benchmarking/R1-3/IRC-folder/Gau-89017.chk"
 B after Tr=    -0.000205    0.001397   -0.000604
         Rot=    1.000000   -0.000155    0.000039    0.000308 Ang=  -0.04 deg.
 ExpMin= 1.61D-01 ExpMax= 3.05D+03 ExpMxC= 4.57D+02 IAcc=3 IRadAn=         5 AccDes= 0.00D+00
 Harris functional with IExCor=  402 and IRadAn=       5 diagonalized for initial guess.
 HarFok:  IExCor=  402 AccDes= 0.00D+00 IRadAn=         5 IDoV= 1 UseB2=F ITyADJ=14
 ICtDFT=  3500011 ScaDFX=  1.000000  1.000000  1.000000  1.000000
 FoFCou: FMM=F IPFlag=           0 FMFlag=      100000 FMFlg1=           0
         NFxFlg=           0 DoJE=T BraDBF=F KetDBF=T FulRan=T
         wScrn=  0.000000 ICntrl=       500 IOpCl=  0 I1Cent=   200000004 NGrid=           0
         NMat0=    1 NMatS0=      1 NMatT0=    0 NMatD0=    1 NMtDS0=    0 NMtDT0=    0
 Symmetry not used in FoFCou.
 Keep R1 ints in memory in canonical form, NReq=25608061.
 Requested convergence on RMS density matrix=1.00D-08 within 128 cycles.
 Requested convergence on MAX density matrix=1.00D-06.
 Requested convergence on             energy=1.00D-06.
 No special actions if energy rises.
 Integral accuracy reduced to 1.0D-05 until final iterations.
 Initial convergence to 1.0D-05 achieved.  Increase integral accuracy.
 SCF Done:  E(RB3LYP) =  -117.742857479     A.U. after   12 cycles
            NFock= 12  Conv=0.87D-08     -V/T= 2.0101
 DoSCS=F DFT=T ScalE2(SS,OS)=  1.000000  1.000000
 Range of M.O.s used for correlation:     1    75
 NBasis=    75 NAE=    12 NBE=    12 NFC=     0 NFV=     0
 NROrb=     75 NOA=    12 NOB=    12 NVA=    63 NVB=    63
 Symmetrizing basis deriv contribution to polar:
 IMax=3 JMax=2 DiffMx= 0.00D+00
 G2DrvN: will do    10 centers at a time, making    1 passes.
 Calling FoFCou, ICntrl=  3107 FMM=F I1Cent=   0 AccDes= 0.00D+00.
 End of G2Drv F.D. properties file   721 does not exist.
 End of G2Drv F.D. properties file   722 does not exist.
 End of G2Drv F.D. properties file   788 does not exist.
          IDoAtm=111111111
          Differentiating once with respect to nuclear coordinates.
 Keep R1 ints in memory in canonical form, NReq=25532406.
          There are    30 degrees of freedom in the 1st order CPHF.  IDoFFX=6 NUNeed=     0.
     24 vectors produced by pass  0 Test12= 2.52D-15 3.33D-09 XBig12= 1.27D-01 2.00D-01.
 AX will form    24 AO Fock derivatives at one time.
     24 vectors produced by pass  1 Test12= 2.52D-15 3.33D-09 XBig12= 3.72D-02 9.56D-02.
     24 vectors produced by pass  2 Test12= 2.52D-15 3.33D-09 XBig12= 2.60D-04 3.30D-03.
     24 vectors produced by pass  3 Test12= 2.52D-15 3.33D-09 XBig12= 3.77D-07 1.47D-04.
     24 vectors produced by pass  4 Test12= 2.52D-15 3.33D-09 XBig12= 3.20D-10 3.21D-06.
     10 vectors produced by pass  5 Test12= 2.52D-15 3.33D-09 XBig12= 1.81D-13 7.01D-08.
 InvSVY:  IOpt=1 It=  1 EMax= 1.67D-15
 Solved reduced A of dimension   130 with    24 vectors.
 End of Minotr F.D. properties file   721 does not exist.
 End of Minotr F.D. properties file   722 does not exist.
 End of Minotr F.D. properties file   788 does not exist.
 Calling FoFJK, ICntrl=    100127 FMM=F ISym2X=0 I1Cent= 0 IOpClX= 0 NMat=1 NMatS=1 NMatT=0.
 -------------------------------------------------------------------
 Center     Atomic                   Forces (Hartrees/Bohr)
 Number     Number              X              Y              Z
 -------------------------------------------------------------------
      1        6          -0.007313079   -0.016534589   -0.001078345
      2        6           0.011780803   -0.005280971    0.012448465
      3        6          -0.001051290    0.001958871   -0.002739515
      4        1           0.008396556    0.008143335    0.006293543
      5        1           0.000962153    0.006608230    0.005378205
      6        1          -0.001390562   -0.005887806   -0.005080083
      7        1          -0.011049458    0.009288379   -0.014723259
      8        1          -0.000239323    0.005550492    0.001404881
      9        1          -0.000095801   -0.003845940   -0.001903891
 -------------------------------------------------------------------
 Cartesian Forces:  Max     0.016534589 RMS     0.007330501
 IRC-IRC-IRC-IRC-IRC-IRC-IRC-IRC-IRC-IRC-IRC-IRC-IRC-IRC-IRC-IRC-IRC-IRC
 Pt  5 Step number   1 out of a maximum of 100
 Modified Bulirsch-Stoer Extrapolation Cycles:
    EPS =    0.000010000000000
      PEZero:  N= 2 I= 1 D=  5.35D-04 Err=  3.22D-05
      PEZero:  N= 3 I= 2 D=  5.35D-04 Err=  2.15D-05
      PEZero:  N= 3 I= 1 D=  1.07D-03 Err=  1.90D-08
 Maximum DWI energy   std dev =  0.000001073 at pt    28
 Maximum DWI gradient std dev =  0.002431913 at pt    24
 CORRECTOR INTEGRATION CONVERGENCE:
   Recorrection delta-x convergence threshold:    0.010000
   Delta-x Convergence Met
 Point Number:   5          Path Number:   1
   CHANGE IN THE REACTION COORDINATE =    0.10269
   NET REACTION COORDINATE UP TO THIS POINT =    0.51344
  # OF POINTS ALONG THE PATH =   5
  # OF STEPS =   1

 Calculating another point on the path.
 IRC-IRC-IRC-IRC-IRC-IRC-IRC-IRC-IRC-IRC-IRC-IRC-IRC-IRC-IRC-IRC-IRC-IRC
                          Input orientation:                          
 ---------------------------------------------------------------------
 Center     Atomic      Atomic             Coordinates (Angstroms)
 Number     Number       Type             X           Y           Z
 ---------------------------------------------------------------------
      1          6           0       -1.219775    0.282239   -0.048609
      2          6           0        0.046609   -0.189401    0.275863
      3          6           0        1.278400    0.025299   -0.243237
      4          1           0       -0.086767   -1.004577    1.034733
      5          1           0       -2.060927    0.014793    0.574797
      6          1           0       -1.374509    1.073367   -0.784951
      7          1           0       -1.321797   -1.610990    0.304276
      8          1           0        1.427660    0.345418   -1.269949
      9          1           0        2.163340   -0.224645    0.331401
 ---------------------------------------------------------------------
                    Distance matrix (angstroms):
                    1          2          3          4          5
     1  C    0.000000
     2  C    1.389769   0.000000
     3  C    2.518884   1.353834   0.000000
     4  H    2.028110   1.121688   2.134837   0.000000
     5  H    1.080601   2.138403   3.438079   2.268912   0.000000
     6  H    1.091799   2.177036   2.903416   3.047520   1.854902
     7  H    1.928537   1.973388   3.120614   1.557756   1.806286
     8  H    2.916261   2.140763   1.085769   3.070429   3.960131
     9  H    3.441920   2.117753   1.084343   2.483134   4.238042
                    6          7          8          9
     6  H    0.000000
     7  H    2.897407   0.000000
     8  H    2.935521   3.723604   0.000000
     9  H    3.930325   3.750849   1.852166   0.000000
 Symmetry turned off by external request.
 Stoichiometry    C3H6
 Framework group  C1[X(C3H6)]
 Deg. of freedom    21
 Full point group                 C1      NOp   1
 Rotational constants (GHZ):          44.8591282           9.2943076           8.0812821
 Standard basis: 6-31G(d,p) (6D, 7F)
    75 basis functions,   126 primitive gaussians,    75 cartesian basis functions
    12 alpha electrons       12 beta electrons
       nuclear repulsion energy        70.1859981283 Hartrees.
 NAtoms=    9 NActive=    9 NUniq=    9 SFac= 1.00D+00 NAtFMM=   60 NAOKFM=F Big=F
 Integral buffers will be    131072 words long.
 Raffenetti 2 integral format.
 Two-electron integral symmetry is turned off.
 One-electron integrals computed using PRISM.
 NBasis=    75 RedAO= T EigKep=  4.29D-03  NBF=    75
 NBsUse=    75 1.00D-06 EigRej= -1.00D+00 NBFU=    75
 Initial guess from the checkpoint file:  "/scratch/brown/zhao922/pyGSM/new-benchmarking/R1-3/IRC-folder/Gau-89017.chk"
 B after Tr=    -0.000218    0.001441   -0.000611
         Rot=    1.000000   -0.000177    0.000042    0.000330 Ang=  -0.04 deg.
 ExpMin= 1.61D-01 ExpMax= 3.05D+03 ExpMxC= 4.57D+02 IAcc=3 IRadAn=         5 AccDes= 0.00D+00
 Harris functional with IExCor=  402 and IRadAn=       5 diagonalized for initial guess.
 HarFok:  IExCor=  402 AccDes= 0.00D+00 IRadAn=         5 IDoV= 1 UseB2=F ITyADJ=14
 ICtDFT=  3500011 ScaDFX=  1.000000  1.000000  1.000000  1.000000
 FoFCou: FMM=F IPFlag=           0 FMFlag=      100000 FMFlg1=           0
         NFxFlg=           0 DoJE=T BraDBF=F KetDBF=T FulRan=T
         wScrn=  0.000000 ICntrl=       500 IOpCl=  0 I1Cent=   200000004 NGrid=           0
         NMat0=    1 NMatS0=      1 NMatT0=    0 NMatD0=    1 NMtDS0=    0 NMtDT0=    0
 Symmetry not used in FoFCou.
 Keep R1 ints in memory in canonical form, NReq=25608061.
 Requested convergence on RMS density matrix=1.00D-08 within 128 cycles.
 Requested convergence on MAX density matrix=1.00D-06.
 Requested convergence on             energy=1.00D-06.
 No special actions if energy rises.
 Integral accuracy reduced to 1.0D-05 until final iterations.
 Initial convergence to 1.0D-05 achieved.  Increase integral accuracy.
 SCF Done:  E(RB3LYP) =  -117.746070934     A.U. after   12 cycles
            NFock= 12  Conv=0.77D-08     -V/T= 2.0101
 DoSCS=F DFT=T ScalE2(SS,OS)=  1.000000  1.000000
 Range of M.O.s used for correlation:     1    75
 NBasis=    75 NAE=    12 NBE=    12 NFC=     0 NFV=     0
 NROrb=     75 NOA=    12 NOB=    12 NVA=    63 NVB=    63
 Symmetrizing basis deriv contribution to polar:
 IMax=3 JMax=2 DiffMx= 0.00D+00
 G2DrvN: will do    10 centers at a time, making    1 passes.
 Calling FoFCou, ICntrl=  3107 FMM=F I1Cent=   0 AccDes= 0.00D+00.
 End of G2Drv F.D. properties file   721 does not exist.
 End of G2Drv F.D. properties file   722 does not exist.
 End of G2Drv F.D. properties file   788 does not exist.
          IDoAtm=111111111
          Differentiating once with respect to nuclear coordinates.
 Keep R1 ints in memory in canonical form, NReq=25532406.
          There are    30 degrees of freedom in the 1st order CPHF.  IDoFFX=6 NUNeed=     0.
     24 vectors produced by pass  0 Test12= 2.52D-15 3.33D-09 XBig12= 1.28D-01 2.01D-01.
 AX will form    24 AO Fock derivatives at one time.
     24 vectors produced by pass  1 Test12= 2.52D-15 3.33D-09 XBig12= 3.62D-02 9.57D-02.
     24 vectors produced by pass  2 Test12= 2.52D-15 3.33D-09 XBig12= 2.57D-04 3.36D-03.
     24 vectors produced by pass  3 Test12= 2.52D-15 3.33D-09 XBig12= 3.96D-07 1.55D-04.
     24 vectors produced by pass  4 Test12= 2.52D-15 3.33D-09 XBig12= 3.29D-10 3.22D-06.
     10 vectors produced by pass  5 Test12= 2.52D-15 3.33D-09 XBig12= 1.83D-13 6.63D-08.
 InvSVY:  IOpt=1 It=  1 EMax= 1.11D-15
 Solved reduced A of dimension   130 with    24 vectors.
 End of Minotr F.D. properties file   721 does not exist.
 End of Minotr F.D. properties file   722 does not exist.
 End of Minotr F.D. properties file   788 does not exist.
 Calling FoFJK, ICntrl=    100127 FMM=F ISym2X=0 I1Cent= 0 IOpClX= 0 NMat=1 NMatS=1 NMatT=0.
 -------------------------------------------------------------------
 Center     Atomic                   Forces (Hartrees/Bohr)
 Number     Number              X              Y              Z
 -------------------------------------------------------------------
      1        6          -0.008992277   -0.020808568   -0.001064235
      2        6           0.014465128   -0.005007149    0.014275618
      3        6          -0.001338460    0.001979284   -0.003035275
      4        1           0.008963143    0.008733706    0.007076703
      5        1           0.001175137    0.008002574    0.006317047
      6        1          -0.001679790   -0.006977210   -0.005743061
      7        1          -0.012217369    0.012154789   -0.017233093
      8        1          -0.000282488    0.006261818    0.001640484
      9        1          -0.000093023   -0.004339245   -0.002234189
 -------------------------------------------------------------------
 Cartesian Forces:  Max     0.020808568 RMS     0.008658796
 IRC-IRC-IRC-IRC-IRC-IRC-IRC-IRC-IRC-IRC-IRC-IRC-IRC-IRC-IRC-IRC-IRC-IRC
 Pt  6 Step number   1 out of a maximum of 100
 Modified Bulirsch-Stoer Extrapolation Cycles:
    EPS =    0.000010000000000
      PEZero:  N= 2 I= 1 D=  5.35D-04 Err=  3.21D-05
      PEZero:  N= 3 I= 2 D=  5.35D-04 Err=  2.14D-05
      PEZero:  N= 3 I= 1 D=  1.07D-03 Err=  1.49D-08
 Maximum DWI energy   std dev =  0.000000885 at pt    28
 Maximum DWI gradient std dev =  0.001845780 at pt    47
 CORRECTOR INTEGRATION CONVERGENCE:
   Recorrection delta-x convergence threshold:    0.010000
   Delta-x Convergence Met
 Point Number:   6          Path Number:   1
   CHANGE IN THE REACTION COORDINATE =    0.10269
   NET REACTION COORDINATE UP TO THIS POINT =    0.61613
  # OF POINTS ALONG THE PATH =   6
  # OF STEPS =   1

 Calculating another point on the path.
 IRC-IRC-IRC-IRC-IRC-IRC-IRC-IRC-IRC-IRC-IRC-IRC-IRC-IRC-IRC-IRC-IRC-IRC
                          Input orientation:                          
 ---------------------------------------------------------------------
 Center     Atomic      Atomic             Coordinates (Angstroms)
 Number     Number       Type             X           Y           Z
 ---------------------------------------------------------------------
      1          6           0       -1.221017    0.279331   -0.048743
      2          6           0        0.048602   -0.190009    0.277777
      3          6           0        1.278213    0.025546   -0.243634
      4          1           0       -0.072963   -0.991068    1.045843
      5          1           0       -2.059029    0.027858    0.585007
      6          1           0       -1.377256    1.062109   -0.794043
      7          1           0       -1.340894   -1.590421    0.276554
      8          1           0        1.427204    0.355311   -1.267328
      9          1           0        2.163211   -0.231503    0.327811
 ---------------------------------------------------------------------
                    Distance matrix (angstroms):
                    1          2          3          4          5
     1  C    0.000000
     2  C    1.392418   0.000000
     3  C    2.519631   1.352878   0.000000
     4  H    2.032255   1.116422   2.126483   0.000000
     5  H    1.080344   2.141020   3.438581   2.279263   0.000000
     6  H    1.092074   2.179374   2.903262   3.049901   1.853719
     7  H    1.901621   1.972779   3.121165   1.599587   1.797133
     8  H    2.916126   2.141323   1.085768   3.068223   3.961337
     9  H    3.443217   2.115608   1.084364   2.468396   4.238010
                    6          7          8          9
     6  H    0.000000
     7  H    2.860668   0.000000
     8  H    2.930624   3.719114   0.000000
     9  H    3.932798   3.758729   1.852168   0.000000
 Symmetry turned off by external request.
 Stoichiometry    C3H6
 Framework group  C1[X(C3H6)]
 Deg. of freedom    21
 Full point group                 C1      NOp   1
 Rotational constants (GHZ):          45.1593814           9.2792049           8.0841650
 Standard basis: 6-31G(d,p) (6D, 7F)
    75 basis functions,   126 primitive gaussians,    75 cartesian basis functions
    12 alpha electrons       12 beta electrons
       nuclear repulsion energy        70.1999339158 Hartrees.
 NAtoms=    9 NActive=    9 NUniq=    9 SFac= 1.00D+00 NAtFMM=   60 NAOKFM=F Big=F
 Integral buffers will be    131072 words long.
 Raffenetti 2 integral format.
 Two-electron integral symmetry is turned off.
 One-electron integrals computed using PRISM.
 NBasis=    75 RedAO= T EigKep=  4.30D-03  NBF=    75
 NBsUse=    75 1.00D-06 EigRej= -1.00D+00 NBFU=    75
 Initial guess from the checkpoint file:  "/scratch/brown/zhao922/pyGSM/new-benchmarking/R1-3/IRC-folder/Gau-89017.chk"
 B after Tr=    -0.000224    0.001489   -0.000617
         Rot=    1.000000   -0.000198    0.000044    0.000351 Ang=  -0.05 deg.
 ExpMin= 1.61D-01 ExpMax= 3.05D+03 ExpMxC= 4.57D+02 IAcc=3 IRadAn=         5 AccDes= 0.00D+00
 Harris functional with IExCor=  402 and IRadAn=       5 diagonalized for initial guess.
 HarFok:  IExCor=  402 AccDes= 0.00D+00 IRadAn=         5 IDoV= 1 UseB2=F ITyADJ=14
 ICtDFT=  3500011 ScaDFX=  1.000000  1.000000  1.000000  1.000000
 FoFCou: FMM=F IPFlag=           0 FMFlag=      100000 FMFlg1=           0
         NFxFlg=           0 DoJE=T BraDBF=F KetDBF=T FulRan=T
         wScrn=  0.000000 ICntrl=       500 IOpCl=  0 I1Cent=   200000004 NGrid=           0
         NMat0=    1 NMatS0=      1 NMatT0=    0 NMatD0=    1 NMtDS0=    0 NMtDT0=    0
 Symmetry not used in FoFCou.
 Keep R1 ints in memory in canonical form, NReq=25608061.
 Requested convergence on RMS density matrix=1.00D-08 within 128 cycles.
 Requested convergence on MAX density matrix=1.00D-06.
 Requested convergence on             energy=1.00D-06.
 No special actions if energy rises.
 Integral accuracy reduced to 1.0D-05 until final iterations.
 Initial convergence to 1.0D-05 achieved.  Increase integral accuracy.
 SCF Done:  E(RB3LYP) =  -117.749755802     A.U. after   12 cycles
            NFock= 12  Conv=0.65D-08     -V/T= 2.0102
 DoSCS=F DFT=T ScalE2(SS,OS)=  1.000000  1.000000
 Range of M.O.s used for correlation:     1    75
 NBasis=    75 NAE=    12 NBE=    12 NFC=     0 NFV=     0
 NROrb=     75 NOA=    12 NOB=    12 NVA=    63 NVB=    63
 Symmetrizing basis deriv contribution to polar:
 IMax=3 JMax=2 DiffMx= 0.00D+00
 G2DrvN: will do    10 centers at a time, making    1 passes.
 Calling FoFCou, ICntrl=  3107 FMM=F I1Cent=   0 AccDes= 0.00D+00.
 End of G2Drv F.D. properties file   721 does not exist.
 End of G2Drv F.D. properties file   722 does not exist.
 End of G2Drv F.D. properties file   788 does not exist.
          IDoAtm=111111111
          Differentiating once with respect to nuclear coordinates.
 Keep R1 ints in memory in canonical form, NReq=25532406.
          There are    30 degrees of freedom in the 1st order CPHF.  IDoFFX=6 NUNeed=     0.
     24 vectors produced by pass  0 Test12= 2.52D-15 3.33D-09 XBig12= 1.28D-01 2.02D-01.
 AX will form    24 AO Fock derivatives at one time.
     24 vectors produced by pass  1 Test12= 2.52D-15 3.33D-09 XBig12= 3.46D-02 9.48D-02.
     24 vectors produced by pass  2 Test12= 2.52D-15 3.33D-09 XBig12= 2.51D-04 3.51D-03.
     24 vectors produced by pass  3 Test12= 2.52D-15 3.33D-09 XBig12= 4.12D-07 1.63D-04.
     24 vectors produced by pass  4 Test12= 2.52D-15 3.33D-09 XBig12= 3.36D-10 3.13D-06.
     10 vectors produced by pass  5 Test12= 2.52D-15 3.33D-09 XBig12= 1.88D-13 6.48D-08.
 InvSVY:  IOpt=1 It=  1 EMax= 1.33D-15
 Solved reduced A of dimension   130 with    24 vectors.
 End of Minotr F.D. properties file   721 does not exist.
 End of Minotr F.D. properties file   722 does not exist.
 End of Minotr F.D. properties file   788 does not exist.
 Calling FoFJK, ICntrl=    100127 FMM=F ISym2X=0 I1Cent= 0 IOpClX= 0 NMat=1 NMatS=1 NMatT=0.
 -------------------------------------------------------------------
 Center     Atomic                   Forces (Hartrees/Bohr)
 Number     Number              X              Y              Z
 -------------------------------------------------------------------
      1        6          -0.010776052   -0.025363164   -0.001036766
      2        6           0.017122612   -0.004538762    0.015983841
      3        6          -0.001605039    0.001920022   -0.003263249
      4        1           0.009340426    0.009158090    0.007703531
      5        1           0.001413312    0.009409393    0.007211897
      6        1          -0.001970565   -0.008021495   -0.006293850
      7        1          -0.013115812    0.015331056   -0.019621712
      8        1          -0.000324730    0.006870909    0.001863113
      9        1          -0.000084153   -0.004766050   -0.002546804
 -------------------------------------------------------------------
 Cartesian Forces:  Max     0.025363164 RMS     0.009999228
 IRC-IRC-IRC-IRC-IRC-IRC-IRC-IRC-IRC-IRC-IRC-IRC-IRC-IRC-IRC-IRC-IRC-IRC
 Pt  7 Step number   1 out of a maximum of 100
 Modified Bulirsch-Stoer Extrapolation Cycles:
    EPS =    0.000010000000000
      PEZero:  N= 2 I= 1 D=  5.35D-04 Err=  3.16D-05
      PEZero:  N= 3 I= 2 D=  5.35D-04 Err=  2.11D-05
      PEZero:  N= 3 I= 1 D=  1.07D-03 Err=  1.20D-08
 Maximum DWI energy   std dev =  0.000000754 at pt    28
 Maximum DWI gradient std dev =  0.001479497 at pt    47
 CORRECTOR INTEGRATION CONVERGENCE:
   Recorrection delta-x convergence threshold:    0.010000
   Delta-x Convergence Met
 Point Number:   7          Path Number:   1
   CHANGE IN THE REACTION COORDINATE =    0.10269
   NET REACTION COORDINATE UP TO THIS POINT =    0.71881
  # OF POINTS ALONG THE PATH =   7
  # OF STEPS =   1

 Calculating another point on the path.
 IRC-IRC-IRC-IRC-IRC-IRC-IRC-IRC-IRC-IRC-IRC-IRC-IRC-IRC-IRC-IRC-IRC-IRC
                          Input orientation:                          
 ---------------------------------------------------------------------
 Center     Atomic      Atomic             Coordinates (Angstroms)
 Number     Number       Type             X           Y           Z
 ---------------------------------------------------------------------
      1          6           0       -1.222326    0.276223   -0.048859
      2          6           0        0.050667   -0.190487    0.279662
      3          6           0        1.278020    0.025755   -0.244010
      4          1           0       -0.060300   -0.978600    1.056460
      5          1           0       -2.057006    0.041347    0.595242
      6          1           0       -1.380083    1.050746   -0.802782
      7          1           0       -1.358892   -1.567712    0.248819
      8          1           0        1.426743    0.364850   -1.264709
      9          1           0        2.163112   -0.238125    0.324216
 ---------------------------------------------------------------------
                    Distance matrix (angstroms):
                    1          2          3          4          5
     1  C    0.000000
     2  C    1.395083   0.000000
     3  C    2.520425   1.351809   0.000000
     4  H    2.036324   1.112138   2.119209   0.000000
     5  H    1.080150   2.143741   3.439038   2.289072   0.000000
     6  H    1.092325   2.181603   2.903161   3.052353   1.852453
     7  H    1.872794   1.970928   3.120147   1.638804   1.787860
     8  H    2.916112   2.141743   1.085786   3.066591   3.962395
     9  H    3.444550   2.113451   1.084390   2.455207   4.238037
                    6          7          8          9
     6  H    0.000000
     7  H    2.821815   0.000000
     8  H    2.926107   3.712859   0.000000
     9  H    3.935168   3.765368   1.852161   0.000000
 Symmetry turned off by external request.
 Stoichiometry    C3H6
 Framework group  C1[X(C3H6)]
 Deg. of freedom    21
 Full point group                 C1      NOp   1
 Rotational constants (GHZ):          45.4833064           9.2644733           8.0873412
 Standard basis: 6-31G(d,p) (6D, 7F)
    75 basis functions,   126 primitive gaussians,    75 cartesian basis functions
    12 alpha electrons       12 beta electrons
       nuclear repulsion energy        70.2168424903 Hartrees.
 NAtoms=    9 NActive=    9 NUniq=    9 SFac= 1.00D+00 NAtFMM=   60 NAOKFM=F Big=F
 Integral buffers will be    131072 words long.
 Raffenetti 2 integral format.
 Two-electron integral symmetry is turned off.
 One-electron integrals computed using PRISM.
 NBasis=    75 RedAO= T EigKep=  4.30D-03  NBF=    75
 NBsUse=    75 1.00D-06 EigRej= -1.00D+00 NBFU=    75
 Initial guess from the checkpoint file:  "/scratch/brown/zhao922/pyGSM/new-benchmarking/R1-3/IRC-folder/Gau-89017.chk"
 B after Tr=    -0.000222    0.001537   -0.000621
         Rot=    1.000000   -0.000217    0.000045    0.000371 Ang=  -0.05 deg.
 ExpMin= 1.61D-01 ExpMax= 3.05D+03 ExpMxC= 4.57D+02 IAcc=3 IRadAn=         5 AccDes= 0.00D+00
 Harris functional with IExCor=  402 and IRadAn=       5 diagonalized for initial guess.
 HarFok:  IExCor=  402 AccDes= 0.00D+00 IRadAn=         5 IDoV= 1 UseB2=F ITyADJ=14
 ICtDFT=  3500011 ScaDFX=  1.000000  1.000000  1.000000  1.000000
 FoFCou: FMM=F IPFlag=           0 FMFlag=      100000 FMFlg1=           0
         NFxFlg=           0 DoJE=T BraDBF=F KetDBF=T FulRan=T
         wScrn=  0.000000 ICntrl=       500 IOpCl=  0 I1Cent=   200000004 NGrid=           0
         NMat0=    1 NMatS0=      1 NMatT0=    0 NMatD0=    1 NMtDS0=    0 NMtDT0=    0
 Symmetry not used in FoFCou.
 Keep R1 ints in memory in canonical form, NReq=25608061.
 Requested convergence on RMS density matrix=1.00D-08 within 128 cycles.
 Requested convergence on MAX density matrix=1.00D-06.
 Requested convergence on             energy=1.00D-06.
 No special actions if energy rises.
 Integral accuracy reduced to 1.0D-05 until final iterations.
 Initial convergence to 1.0D-05 achieved.  Increase integral accuracy.
 SCF Done:  E(RB3LYP) =  -117.753904435     A.U. after   12 cycles
            NFock= 12  Conv=0.54D-08     -V/T= 2.0102
 DoSCS=F DFT=T ScalE2(SS,OS)=  1.000000  1.000000
 Range of M.O.s used for correlation:     1    75
 NBasis=    75 NAE=    12 NBE=    12 NFC=     0 NFV=     0
 NROrb=     75 NOA=    12 NOB=    12 NVA=    63 NVB=    63
 Symmetrizing basis deriv contribution to polar:
 IMax=3 JMax=2 DiffMx= 0.00D+00
 G2DrvN: will do    10 centers at a time, making    1 passes.
 Calling FoFCou, ICntrl=  3107 FMM=F I1Cent=   0 AccDes= 0.00D+00.
 End of G2Drv F.D. properties file   721 does not exist.
 End of G2Drv F.D. properties file   722 does not exist.
 End of G2Drv F.D. properties file   788 does not exist.
          IDoAtm=111111111
          Differentiating once with respect to nuclear coordinates.
 Keep R1 ints in memory in canonical form, NReq=25532406.
          There are    30 degrees of freedom in the 1st order CPHF.  IDoFFX=6 NUNeed=     0.
     24 vectors produced by pass  0 Test12= 2.52D-15 3.33D-09 XBig12= 1.27D-01 2.01D-01.
 AX will form    24 AO Fock derivatives at one time.
     24 vectors produced by pass  1 Test12= 2.52D-15 3.33D-09 XBig12= 3.26D-02 9.30D-02.
     24 vectors produced by pass  2 Test12= 2.52D-15 3.33D-09 XBig12= 2.43D-04 3.74D-03.
     24 vectors produced by pass  3 Test12= 2.52D-15 3.33D-09 XBig12= 4.25D-07 1.68D-04.
     24 vectors produced by pass  4 Test12= 2.52D-15 3.33D-09 XBig12= 3.38D-10 2.95D-06.
     10 vectors produced by pass  5 Test12= 2.52D-15 3.33D-09 XBig12= 1.95D-13 6.68D-08.
 InvSVY:  IOpt=1 It=  1 EMax= 1.55D-15
 Solved reduced A of dimension   130 with    24 vectors.
 End of Minotr F.D. properties file   721 does not exist.
 End of Minotr F.D. properties file   722 does not exist.
 End of Minotr F.D. properties file   788 does not exist.
[...]
  37                   -1.09969  -2.09521   0.80174   1.49380  -0.10547
  38                   -1.09468  -2.07305   0.79168   1.48757  -0.08719
  39                   -1.08965  -2.05085   0.78162   1.48173  -0.06858
  40                   -1.08460  -2.02861   0.77155   1.47628  -0.04973
  41                   -1.07957  -2.00632   0.76146   1.47120  -0.03070
  42                   -1.07457  -1.98399   0.75132   1.46648  -0.01157
  43                   -1.06962  -1.96161   0.74111   1.46211   0.00759
  44                   -1.06476  -1.93918   0.73080   1.45807   0.02674
  45                   -1.06001  -1.91671   0.72036   1.45436   0.04580
  46                   -1.05543  -1.89421   0.70976   1.45095   0.06472
  47                   -1.05107  -1.87170   0.69897   1.44785   0.08345
  48                   -1.04701  -1.84921   0.68793   1.44505   0.10194
  49                   -1.04340  -1.82683   0.67657   1.44254   0.12012
  50                   -1.04049  -1.80473   0.66480   1.44031   0.13794
  51                   -1.03879  -1.78326   0.65239   1.43837   0.15530
  52                   -1.03932  -1.76316   0.63897   1.43671   0.17204
  53                   -1.04351  -1.74566   0.62410   1.43535   0.18787
  54                   -1.05250  -1.73195   0.60756   1.43426   0.20241
  55                   -1.06609  -1.72216   0.58960   1.43341   0.21553
  56                   -1.08312  -1.71530   0.57060   1.43272   0.22750
  57                   -1.10244  -1.71013   0.55071   1.43213   0.23871
  58                   -1.12329  -1.70560   0.52994   1.43162   0.24954
  59                   -1.14516  -1.70093   0.50825   1.43115   0.26021
  60                   -1.16769  -1.69550   0.48557   1.43070   0.27089
  61                   -1.19055  -1.68864   0.46178   1.43026   0.28163
  62                   -1.21354  -1.68089   0.43737   1.42984   0.29244
  63                   -1.23636  -1.67114   0.41199   1.42942   0.30328
  64                   -1.25878  -1.65935   0.38584   1.42899   0.31407
  65                   -1.28060  -1.64541   0.35907   1.42855   0.32473
  66                   -1.30164  -1.62927   0.33183   1.42811   0.33520
  67                   -1.32176  -1.61091   0.30427   1.42766   0.34541
  68                   -1.34086  -1.59036   0.27656   1.42720   0.35530
  69                   -1.35886  -1.56766   0.24883   1.42674   0.36484
  70                   -1.37571  -1.54289   0.22122   1.42628   0.37400
  71                   -1.39138  -1.51616   0.19385   1.42582   0.38277
  72                   -1.40586  -1.48757   0.16684   1.42535   0.39113
  73                   -1.41918  -1.45725   0.14028   1.42489   0.39911
  74                   -1.43137  -1.42532   0.11425   1.42444   0.40671
  75                   -1.44247  -1.39194   0.08880   1.42399   0.41396
  76                   -1.45257  -1.35723   0.06398   1.42354   0.42087
  77                   -1.46174  -1.32137   0.03982   1.42309   0.42749
  78                   -1.47008  -1.28448   0.01631   1.42264   0.43385
  79                   -1.47771  -1.24675  -0.00656   1.42219   0.43998
  80                   -1.48476  -1.20834  -0.02884   1.42174   0.44593
  81                   -1.49137  -1.16944  -0.05060   1.42127   0.45176
  82                   -1.49774  -1.13026  -0.07194   1.42079   0.45751
  83                   -1.50406  -1.09105  -0.09301   1.42029   0.46326
  84                   -1.51064  -1.05217  -0.11404   1.41975   0.46909
  85                   -1.51785  -1.01407  -0.13531   1.41916   0.47511
  86                   -1.52621  -0.97744  -0.15722   1.41850   0.48145
  87                   -1.53641  -0.94328  -0.18022   1.41773   0.48826
  88                   -1.54923  -0.91290  -0.20470   1.41682   0.49570
  89                   -1.56527  -0.88750  -0.23066   1.41571   0.50385
  90                   -1.58456  -0.86736  -0.25747   1.41434   0.51265
  91                   -1.60657  -0.85136  -0.28409   1.41267   0.52198
  92                   -1.63060  -0.83778  -0.30950   1.41059   0.53174
  93                   -1.65607  -0.82520  -0.33290   1.40797   0.54183
  94                   -1.68257  -0.81281  -0.35369   1.40459   0.55213
  95                   -1.70970  -0.80029  -0.37149   1.40011   0.56242
  96                   -1.73685  -0.78758  -0.38610   1.39397   0.57235
  97                   -1.76286  -0.77481  -0.39747   1.38528   0.58134
  98                   -1.78549  -0.76254  -0.40558   1.37299   0.58857
  99                   -1.80217  -0.75188  -0.41034   1.35697   0.59354
 100                   -1.81290  -0.74349  -0.41191   1.33873   0.59707
 101                   -1.82015  -0.73695  -0.41058   1.31992   0.60071
 102                   -1.82625  -0.73166  -0.40626   1.30162   0.60560
 103                   -1.83275  -0.72729  -0.39815   1.28488   0.61230
 104                   -1.84085  -0.72377  -0.38486   1.27127   0.62093
 105                   -1.85112  -0.72102  -0.36568   1.26265   0.63085
 106                   -1.86290  -0.71871  -0.34225   1.25915   0.64098
 107                   -1.87512  -0.71635  -0.31694   1.25872   0.65080
 108                   -1.88725  -0.71351  -0.29102   1.25937   0.66039
                          Z8        X9        Y9        Z9
   1                   -1.08977   2.00034   0.09104   0.66842
   2                   -1.09256   2.00205   0.09151   0.66700
   3                   -1.09569   2.00427   0.09213   0.66494
   4                   -1.09940   2.00721   0.09300   0.66201
   5                   -1.10381   2.01101   0.09419   0.65806
   6                   -1.10892   2.01562   0.09573   0.65308
   7                   -1.11462   2.02093   0.09757   0.64719
   8                   -1.12078   2.02674   0.09967   0.64055
   9                   -1.12726   2.03288   0.10197   0.63333
  10                   -1.13393   2.03921   0.10443   0.62566
  11                   -1.14072   2.04562   0.10700   0.61765
  12                   -1.14756   2.05203   0.10966   0.60939
  13                   -1.15439   2.05836   0.11237   0.60095
  14                   -1.16119   2.06457   0.11510   0.59237
  15                   -1.16794   2.07063   0.11783   0.58371
  16                   -1.17461   2.07651   0.12054   0.57500
  17                   -1.18119   2.08218   0.12317   0.56627
  18                   -1.18769   2.08763   0.12571   0.55757
  19                   -1.19409   2.09284   0.12810   0.54891
  20                   -1.20040   2.09781   0.13030   0.54033
  21                   -1.20661   2.10254   0.13225   0.53187
  22                   -1.21274   2.10701   0.13388   0.52355
  23                   -1.21879   2.11123   0.13513   0.51541
  24                   -1.22475   2.11520   0.13593   0.50748
  25                   -1.23064   2.11894   0.13619   0.49978
  26                   -1.23644   2.12243   0.13584   0.49236
  27                   -1.24216   2.12571   0.13480   0.48523
  28                   -1.24779   2.12879   0.13300   0.47842
  29                   -1.25331   2.13167   0.13038   0.47194
  30                   -1.25870   2.13439   0.12690   0.46580
  31                   -1.26393   2.13695   0.12251   0.45999
  32                   -1.26899   2.13938   0.11720   0.45451
  33                   -1.27384   2.14169   0.11099   0.44935
  34                   -1.27845   2.14389   0.10390   0.44447
  35                   -1.28279   2.14601   0.09596   0.43985
  36                   -1.28683   2.14803   0.08723   0.43546
  37                   -1.29055   2.14998   0.07778   0.43126
  38                   -1.29392   2.15184   0.06767   0.42722
  39                   -1.29693   2.15362   0.05699   0.42332
  40                   -1.29957   2.15531   0.04581   0.41951
  41                   -1.30183   2.15691   0.03420   0.41578
  42                   -1.30370   2.15840   0.02224   0.41211
  43                   -1.30519   2.15980   0.00999   0.40848
  44                   -1.30629   2.16107  -0.00247   0.40487
  45                   -1.30701   2.16223  -0.01509   0.40128
  46                   -1.30736   2.16326  -0.02779   0.39770
  47                   -1.30735   2.16415  -0.04054   0.39414
  48                   -1.30699   2.16491  -0.05325   0.39058
  49                   -1.30630   2.16552  -0.06588   0.38705
  50                   -1.30530   2.16597  -0.07836   0.38354
  51                   -1.30401   2.16628  -0.09060   0.38008
  52                   -1.30245   2.16643  -0.10247   0.37670
  53                   -1.30068   2.16643  -0.11373   0.37344
  54                   -1.29880   2.16631  -0.12411   0.37038
  55                   -1.29689   2.16612  -0.13347   0.36755
  56                   -1.29499   2.16589  -0.14200   0.36489
  57                   -1.29307   2.16564  -0.14998   0.36231
  58                   -1.29112   2.16538  -0.15766   0.35973
  59                   -1.28910   2.16512  -0.16521   0.35708
  60                   -1.28700   2.16486  -0.17273   0.35432
  61                   -1.28480   2.16461  -0.18028   0.35140
  62                   -1.28250   2.16435  -0.18785   0.34838
  63                   -1.28012   2.16411  -0.19541   0.34519
  64                   -1.27765   2.16388  -0.20291   0.34188
  65                   -1.27512   2.16368  -0.21031   0.33846
  66                   -1.27255   2.16349  -0.21756   0.33495
  67                   -1.26994   2.16334  -0.22464   0.33140
  68                   -1.26732   2.16321  -0.23150   0.32781
  69                   -1.26470   2.16311  -0.23812   0.32421
  70                   -1.26210   2.16304  -0.24449   0.32063
  71                   -1.25953   2.16300  -0.25061   0.31709
  72                   -1.25699   2.16300  -0.25647   0.31359
  73                   -1.25450   2.16302  -0.26207   0.31015
  74                   -1.25206   2.16308  -0.26743   0.30676
  75                   -1.24967   2.16317  -0.27255   0.30344
  76                   -1.24733   2.16329  -0.27746   0.30018
  77                   -1.24504   2.16344  -0.28216   0.29698
  78                   -1.24278   2.16362  -0.28669   0.29382
  79                   -1.24057   2.16384  -0.29106   0.29070
  80                   -1.23837   2.16410  -0.29530   0.28759
  81                   -1.23618   2.16439  -0.29943   0.28448
  82                   -1.23399   2.16473  -0.30350   0.28133
  83                   -1.23176   2.16512  -0.30754   0.27811
  84                   -1.22946   2.16556  -0.31159   0.27478
  85                   -1.22707   2.16609  -0.31573   0.27125
  86                   -1.22451   2.16671  -0.32001   0.26745
  87                   -1.22173   2.16747  -0.32451   0.26325
  88                   -1.21866   2.16840  -0.32927   0.25854
  89                   -1.21528   2.16957  -0.33429   0.25321
  90                   -1.21160   2.17100  -0.33942   0.24726
  91                   -1.20771   2.17274  -0.34449   0.24071
  92                   -1.20367   2.17484  -0.34930   0.23355
  93                   -1.19957   2.17736  -0.35361   0.22578
  94                   -1.19551   2.18037  -0.35711   0.21736
  95                   -1.19169   2.18394  -0.35930   0.20830
  96                   -1.18842   2.18813  -0.35945   0.19865
  97                   -1.18615   2.19291  -0.35649   0.18854
  98                   -1.18545   2.19804  -0.34930   0.17838
  99                   -1.18640   2.20280  -0.33799   0.16874
 100                   -1.18808   2.20658  -0.32475   0.15970
 101                   -1.18935   2.20935  -0.31181   0.15078
 102                   -1.18946   2.21133  -0.30030   0.14168
 103                   -1.18799   2.21275  -0.29069   0.13270
 104                   -1.18471   2.21372  -0.28318   0.12493
 105                   -1.17980   2.21432  -0.27787   0.11999
 106                   -1.17395   2.21468  -0.27436   0.11836
 107                   -1.16778   2.21492  -0.27187   0.11883
 108                   -1.16151   2.21511  -0.26972   0.12008
 --------------------------------------------------------------------------
 
 Total number of points:                  107
 Total number of gradient calculations:   108
 Total number of Hessian calculations:    108
 IRC-IRC-IRC-IRC-IRC-IRC-IRC-IRC-IRC-IRC-IRC-IRC-IRC-IRC-IRC-IRC-IRC-IRC
                          Input orientation:                          
 ---------------------------------------------------------------------
 Center     Atomic      Atomic             Coordinates (Angstroms)
 Number     Number       Type             X           Y           Z
 ---------------------------------------------------------------------
      1          6           0       -1.243057    0.357787    0.044439
      2          6           0        0.039937    0.135486   -0.059239
      3          6           0        1.324042   -0.085949   -0.164361
      4          1           0       -0.521176   -2.477871    1.085308
      5          1           0       -1.926007   -0.419736    0.376763
      6          1           0       -1.671122    1.327452   -0.197383
      7          1           0       -1.084171   -2.919080    1.289904
      8          1           0        1.762335   -0.451753   -1.089763
      9          1           0        2.000338    0.091054    0.668419
 ---------------------------------------------------------------------
                    Distance matrix (angstroms):
                    1          2          3          4          5
     1  C    0.000000
     2  C    1.306231   0.000000
     3  C    2.613522   1.307292   0.000000
     4  H    3.105717   2.907657   3.269219   0.000000
     5  H    1.086923   2.088852   3.311653   2.590657   0.000000
     6  H    1.087183   2.089878   3.312069   4.177099   1.856684
     7  H    3.509172   3.523376   3.992619   0.743968   2.790920
     8  H    3.312725   2.091288   1.087327   3.748401   3.969330
     9  H    3.313624   2.091562   1.087304   3.623700   3.970157
                    6          7          8          9
     6  H    0.000000
     7  H    4.537573   0.000000
     8  H    3.968694   4.455683   0.000000
     9  H    3.969623   4.354462   1.855395   0.000000
 Symmetry turned off by external request.
 Stoichiometry    C3H6
 Framework group  C1[X(C3H6)]
 Deg. of freedom    21
 Full point group                 C1      NOp   1
 Rotational constants (GHZ):          22.1914279           8.7729332           6.5711854

 **********************************************************************

            Population analysis using the SCF Density.

 **********************************************************************

 Alpha  occ. eigenvalues --  -10.20727 -10.19284 -10.19114  -0.78813  -0.70175
 Alpha  occ. eigenvalues --   -0.52072  -0.45014  -0.44557  -0.44086  -0.42119
 Alpha  occ. eigenvalues --   -0.26513  -0.26425
 Alpha virt. eigenvalues --    0.01791   0.01909   0.10509   0.13015   0.14052
 Alpha virt. eigenvalues --    0.21202   0.21433   0.30622   0.32913   0.42871
 Alpha virt. eigenvalues --    0.52132   0.53809   0.62054   0.64927   0.65205
 Alpha virt. eigenvalues --    0.67353   0.71237   0.83167   0.83601   0.85795
 Alpha virt. eigenvalues --    0.86101   0.90585   0.92119   1.04249   1.09968
 Alpha virt. eigenvalues --    1.17316   1.18692   1.38476   1.44861   1.57210
 Alpha virt. eigenvalues --    1.57226   1.63556   1.67989   1.69365   1.75918
 Alpha virt. eigenvalues --    1.91427   1.95048   1.95184   2.05776   2.07758
 Alpha virt. eigenvalues --    2.14567   2.14640   2.32227   2.38720   2.41481
 Alpha virt. eigenvalues --    2.42065   2.53869   2.60661   2.61960   2.62398
 Alpha virt. eigenvalues --    2.76625   2.82467   2.82778   2.90260   3.19186
 Alpha virt. eigenvalues --    3.35524   3.36009   3.56814   3.56942   4.14552
 Alpha virt. eigenvalues --    4.17340   4.36595   4.67518
          Condensed to atoms (all electrons):
               1          2          3          4          5          6
     1  C    5.293773   0.608264  -0.209024  -0.000711   0.350504   0.353447
     2  C    0.608264   4.514629   0.600552   0.005123  -0.007160  -0.006817
     3  C   -0.209024   0.600552   5.299331   0.003476   0.002274   0.002454
     4  H   -0.000711   0.005123   0.003476   0.577841  -0.001040   0.000116
     5  H    0.350504  -0.007160   0.002274  -0.001040   0.566279  -0.041199
     6  H    0.353447  -0.006817   0.002454   0.000116  -0.041199   0.565735
     7  H   -0.000412  -0.002543  -0.000971   0.403897   0.002375  -0.000010
     8  H    0.002409  -0.007054   0.353061   0.000026  -0.000036  -0.000033
     9  H    0.002444  -0.007004   0.352917   0.000015  -0.000032  -0.000034
               7          8          9
     1  C   -0.000412   0.002409   0.002444
     2  C   -0.002543  -0.007054  -0.007004
     3  C   -0.000971   0.353061   0.352917
     4  H    0.403897   0.000026   0.000015
     5  H    0.002375  -0.000036  -0.000032
     6  H   -0.000010  -0.000033  -0.000034
     7  H    0.615651  -0.000000   0.000005
     8  H   -0.000000   0.565375  -0.041341
     9  H    0.000005  -0.041341   0.565506
 Mulliken charges:
               1
     1  C   -0.400695
     2  C    0.302009
     3  C   -0.404070
     4  H    0.011257
     5  H    0.128035
     6  H    0.126340
     7  H   -0.017993
     8  H    0.127594
     9  H    0.127523
 Sum of Mulliken charges =  -0.00000
 Mulliken charges with hydrogens summed into heavy atoms:
               1
     1  C   -0.164313
     2  C    0.313266
     3  C   -0.148953
 APT charges:
               1
     1  C   -0.535082
     2  C   -0.631125
     3  C   -0.538052
     4  H   -0.611624
     5  H    0.398991
     6  H    0.446431
     7  H    0.611137
     8  H    0.431255
     9  H    0.428069
 Sum of APT charges =  -0.00000
 APT charges with hydrogens summed into heavy atoms:
               1
     1  C    0.921477
     2  C   -1.242750
     3  C    0.321273
 Electronic spatial extent (au):  <R**2>=            249.0739
 Charge=             -0.0000 electrons
 Dipole moment (field-independent basis, Debye):
    X=              0.0444    Y=              0.1177    Z=             -0.0511  Tot=              0.1358
 Quadrupole moment (field-independent basis, Debye-Ang):
   XX=            -17.4138   YY=            -20.8591   ZZ=            -20.8356
   XY=             -0.4503   XZ=             -0.3106   YZ=              0.0871
 Traceless Quadrupole moment (field-independent basis, Debye-Ang):
   XX=              2.2890   YY=             -1.1563   ZZ=             -1.1328
   XY=             -0.4503   XZ=             -0.3106   YZ=              0.0871
 Octapole moment (field-independent basis, Debye-Ang**2):
  XXX=              2.4212  YYY=              9.7304  ZZZ=             -4.4822  XYY=             -2.6034
  XXY=              1.8724  XXZ=             -0.0782  XZZ=              3.1726  YZZ=              2.1174
  YYZ=             -1.4614  XYZ=              2.1397
 Hexadecapole moment (field-independent basis, Debye-Ang**3):
 XXXX=           -179.3640 YYYY=           -118.6379 ZZZZ=            -46.6594 XXXY=              0.6299
 XXXZ=             11.1329 YYYX=              2.2278 YYYZ=             16.2314 ZZZX=             11.0958
 ZZZY=             19.2390 XXYY=            -47.5041 XXZZ=            -37.0250 YYZZ=            -27.8933
 XXYZ=              5.0737 YYXZ=              2.3566 ZZXY=              0.5548
 N-N= 6.670322469097D+01 E-N=-4.052369819230D+02  KE= 1.166391805186D+02
  Exact polarizability:   0.000   0.000   0.000   0.000   0.000   0.000
 Approx polarizability:  95.894  -7.936  30.092  -7.283  -1.165  24.883

 This type of calculation cannot be archived.


 CHRISTMAS IS ON TOP OF A STEEP HILL.
 THE CLOSER YOU GET, THE STEEPER THE HILL IS.
          -- LINUS, OF PEANUTS
 Job cpu time:       0 days  3 hours 16 minutes 19.8 seconds.
 Elapsed time:       0 days  0 hours  9 minutes 13.6 seconds.
 File lengths (MBytes):  RWF=     10 Int=      0 D2E=      0 Chk=      3 Scr=      1
 Normal termination of Gaussian 16 at Fri Jul 17 19:11:02 2020.
