[Molden Format]
[Geometries] (XYZ)
12

C        1.299066       1.440099      -2.211061
C        0.622214       0.554437      -1.164245
C        1.376532      -0.712670      -0.907888
O        0.605364       2.638277      -2.439768
O        0.664066       3.460964      -1.274314
O        2.398835      -1.039232      -1.440838
H        0.751930       4.349000      -1.645157
H        2.334638       1.642360      -1.910944
H        1.299009       0.957300      -3.191002
H        0.893415      -1.360721      -0.149667
H       -0.394632       0.302656      -1.476876
H        0.538463       1.107230      -0.224039
12

C        1.121172       1.355123      -2.317042
C        0.566563       0.497325      -1.187867
C        1.369941      -0.745072      -0.961703
O        0.441103       2.437060      -2.665616
O        0.778265       3.247185      -1.256016
O        2.417982      -1.004125      -1.482066
H        0.882471       4.145467      -1.582890
H        2.369899       1.716542      -1.763835
H        1.451464       0.788682      -3.195819
H        0.897889      -1.446386      -0.245086
H       -0.477658       0.232276      -1.377697
H        0.588469       1.084394      -0.266728
12

C        0.957953       1.278476      -2.422647
C        0.500702       0.454754      -1.232897
C        1.366588      -0.742518      -0.989465
O        0.274955       2.219299      -2.862529
O        0.946258       3.138736      -1.186235
O        2.433538      -0.943204      -1.498971
H        1.055088       4.031908      -1.509806
H        2.394572       1.911727      -1.616698
H        1.475826       0.699924      -3.210298
H        0.925898      -1.468324      -0.278148
H       -0.540378       0.149838      -1.355143
H        0.549887       1.087930      -0.343371
12

C        0.821761       1.230656      -2.506885
C        0.432629       0.427140      -1.277840
C        1.369833      -0.706700      -0.999715
O        0.114107       2.056152      -3.007864
O        1.150305       2.992060      -1.128444
O        2.456064      -0.844321      -1.492256
H        1.280556       3.879579      -1.453570
H        2.284521       2.142415      -1.486148
H        1.447998       0.651710      -3.226564
H        0.964346      -1.454330      -0.291542
H       -0.590035       0.066546      -1.377680
H        0.461700       1.095728      -0.411213
12

C        0.696264       1.181589      -2.587219
C        0.373140       0.408414      -1.316743
C        1.381923      -0.647102      -0.998120
O       -0.084686       1.920336      -3.129177
O        1.377173       2.872485      -1.060406
O        2.494694      -0.697888      -1.450139
H        1.510037       3.768654      -1.372741
H        2.246039       2.302999      -1.293416
H        1.438293       0.668406      -3.239735
H        1.030796      -1.390777      -0.256019
H       -0.631066      -0.008308      -1.377653
H        0.378480       1.120972      -0.482820
12

C        0.601441       1.102541      -2.682636
C        0.358840       0.440776      -1.339889
C        1.386650      -0.586854      -0.996772
O       -0.245185       1.736807      -3.264277
O        1.502036       2.910273      -0.926367
O        2.496346      -0.635293      -1.453094
H        1.589810       3.815302      -1.243572
H        2.363130       2.451420      -1.053368
H        1.445426       0.687830      -3.261618
H        1.050243      -1.314456      -0.232435
H       -0.651877       0.028907      -1.296961
H        0.424533       1.223450      -0.575952
12

C        0.516087       1.016671      -2.769122
C        0.348762       0.485208      -1.369489
C        1.366505      -0.547656      -1.008945
O       -0.376348       1.548113      -3.384050
O        1.586438       3.029742      -0.779233
O        2.458785      -0.643928      -1.495067
H        1.603208       3.939615      -1.107456
H        2.483035       2.670514      -0.852992
H        1.428284       0.699874      -3.288536
H        1.027502      -1.249134      -0.222612
H       -0.674013       0.117246      -1.221862
H        0.498730       1.329833      -0.689069
12

C        0.443748       0.923502      -2.860858
C        0.360988       0.550345      -1.408176
C        1.366529      -0.490192      -1.023805
O       -0.490548       1.301989      -3.502436
O        1.673404       3.079610      -0.612936
O        2.446261      -0.631260      -1.529250
H        1.599255       3.978265      -0.945038
H        2.623893       2.830930      -0.623323
H        1.406078       0.703474      -3.345016
H        1.033732      -1.144012      -0.194382
H       -0.656678       0.260475      -1.133554
H        0.621700       1.456357      -0.843001
12

C        0.421394       0.771671      -2.961823
C        0.369034       0.584931      -1.471657
C        1.364962      -0.429667      -0.990913
O       -0.531525       0.967626      -3.659577
O        1.680644       3.227128      -0.509691
O        2.456737      -0.600137      -1.454573
H        1.505436       4.098188      -0.872734
H        2.633519       3.133355      -0.438820
H        1.445890       0.708898      -3.370604
H        1.005844      -1.034455      -0.136414
H       -0.643283       0.365361      -1.134067
H        0.680246       1.546799      -1.034929
[GEOCONV]
energy
0.0
39.7701639658
92.8633715729
41.2976249366
-13.9630791579
-23.2724590209
-26.3223328369
-27.7807370928
-29.0047590867
max-force
6.30262008947e-05
0.00934446356375
0.00709685595382
0.0122147704393
0.0094155102161
0.0043922827375
0.00351673804227
0.00348695322741
6.17754605649e-05
max-step
1000.0
1000.0
1000.0
1000.0
1000.0
1000.0
1000.0
1000.0
1000.0
