[Molden Format]
[Geometries] (XYZ)
12

C        1.299066       1.440099      -2.211061
C        0.622214       0.554437      -1.164245
C        1.376532      -0.712670      -0.907888
O        0.605364       2.638277      -2.439768
O        0.664066       3.460964      -1.274314
O        2.398835      -1.039232      -1.440838
H        0.751930       4.349000      -1.645157
H        2.334638       1.642360      -1.910944
H        1.299009       0.957300      -3.191002
H        0.893415      -1.360721      -0.149667
H       -0.394632       0.302656      -1.476876
H        0.538463       1.107230      -0.224039
12

C        1.147611       1.422594      -2.272615
C        0.584178       0.563399      -1.146143
C        1.377013      -0.685678      -0.922876
O        0.466269       2.505078      -2.615597
O        0.790629       3.295091      -1.231692
O        2.423972      -0.951583      -1.442865
H        0.882272       4.200796      -1.540572
H        2.342794       1.808145      -1.753010
H        1.486395       0.847266      -3.141689
H        0.901968      -1.382954      -0.204838
H       -0.462531       0.312163      -1.337952
H        0.613192       1.144468      -0.221287
12

C        0.969089       1.360377      -2.340396
C        0.490956       0.493995      -1.187378
C        1.379081      -0.681599      -0.924809
O        0.301799       2.322732      -2.748658
O        1.020733       3.281435      -1.192805
O        2.460440      -0.854013      -1.415825
H        1.162661       4.189908      -1.467211
H        2.151096       2.102531      -1.729606
H        1.515252       0.778964      -3.114793
H        0.942374      -1.422443      -0.227213
H       -0.536245       0.168821      -1.364029
H        0.479373       1.107652      -0.280695
12

C        0.836850       1.326841      -2.437414
C        0.441077       0.511047      -1.218321
C        1.391583      -0.608685      -0.928400
O        0.127660       2.151389      -2.940395
O        1.180084       3.079700      -1.084843
O        2.488866      -0.725601      -1.402207
H        1.307682       3.978111      -1.395169
H        2.228006       2.277695      -1.456112
H        1.464577       0.750730      -3.157302
H        0.999094      -1.348205      -0.206877
H       -0.574520       0.137073      -1.335116
H        0.444784       1.176241      -0.347420
12

C        0.666851       1.223799      -2.534638
C        0.348607       0.435058      -1.281401
C        1.398456      -0.574872      -0.936151
O       -0.068485       2.029882      -3.031179
O        1.442072       2.994728      -1.035347
O        2.509437      -0.597861      -1.388193
H        1.571588       3.884596      -1.369045
H        2.183756       2.452173      -1.330870
H        1.442496       0.738757      -3.162235
H        1.067795      -1.325491      -0.192573
H       -0.628864      -0.036670      -1.395114
H        0.267425       1.131287      -0.439591
12

C        0.537474       1.093550      -2.644013
C        0.301495       0.388156      -1.330355
C        1.409634      -0.542740      -0.947973
O       -0.247185       1.833271      -3.165039
O        1.596311       2.995317      -0.942863
O        2.524963      -0.503311      -1.388381
H        1.703366       3.880220      -1.297637
H        2.386664       2.514539      -1.144843
H        1.455096       0.769894      -3.168904
H        1.122592      -1.290847      -0.184056
H       -0.663712      -0.121659      -1.355751
H        0.228872       1.155013      -0.550248
12

C        0.467972       0.980306      -2.746244
C        0.311510       0.419759      -1.356417
C        1.409371      -0.520995      -0.967292
O       -0.380908       1.594464      -3.325057
O        1.663891       3.066982      -0.793805
O        2.510446      -0.529189      -1.442114
H        1.719074       3.955667      -1.151523
H        2.526482       2.663262      -0.906179
H        1.438031       0.747647      -3.220060
H        1.128504      -1.228493      -0.163531
H       -0.676515      -0.027497      -1.234185
H        0.360186       1.277421      -0.672742
12

C        0.418084       0.894099      -2.840280
C        0.349382       0.502669      -1.390132
C        1.400257      -0.491173      -0.999624
O       -0.504938       1.330973      -3.465516
O        1.720984       3.123772      -0.636169
O        2.480345      -0.590652      -1.510868
H        1.670649       4.014723      -0.988465
H        2.635857       2.853770      -0.679970
H        1.406216       0.726746      -3.304329
H        1.102521      -1.148929      -0.160558
H       -0.654461       0.173408      -1.121610
H        0.560408       1.423124      -0.825522
12

C        0.421394       0.771671      -2.961823
C        0.369034       0.584931      -1.471657
C        1.364962      -0.429667      -0.990913
O       -0.531525       0.967626      -3.659577
O        1.680644       3.227128      -0.509691
O        2.456737      -0.600137      -1.454573
H        1.505436       4.098188      -0.872734
H        2.633519       3.133355      -0.438820
H        1.445890       0.708898      -3.370604
H        1.005844      -1.034455      -0.136414
H       -0.643283       0.365361      -1.134067
H        0.680246       1.546799      -1.034929
[GEOCONV]
energy
0.0
33.2333290087
75.0078660964
31.6056028737
-21.4031669142
-26.8329286863
-27.8970335993
-28.5994567668
-29.0047590867
max-force
6.30262008947e-05
0.013036621337
0.0049946123769
0.0118313151651
0.000582059178671
0.00192048199743
0.00029006488237
0.00078536687594
6.17754605649e-05
max-step
1000.0
1000.0
1000.0
1000.0
1000.0
1000.0
1000.0
1000.0
1000.0
