 Entering Gaussian System, Link 0=g16
 Initial command:
 /apps/cent7/gaussian/g16-B.01/g16-haswell/g16/l1.exe "/scratch/bell/zhao922/YARP/paper-example/KHP-network/pp_0/TS-folder/Gau-5571.inp" -scrdir="/scratch/bell/zhao922/YARP/paper-example/KHP-network/pp_0/TS-folder/"
 Entering Link 1 = /apps/cent7/gaussian/g16-B.01/g16-haswell/g16/l1.exe PID=      5572.
  
 Copyright (c) 1988-2017, Gaussian, Inc.  All Rights Reserved.
  
 This is part of the Gaussian(R) 16 program.  It is based on
 the Gaussian(R) 09 system (copyright 2009, Gaussian, Inc.),
 the Gaussian(R) 03 system (copyright 2003, Gaussian, Inc.),
 the Gaussian(R) 98 system (copyright 1998, Gaussian, Inc.),
 the Gaussian(R) 94 system (copyright 1995, Gaussian, Inc.),
 the Gaussian 92(TM) system (copyright 1992, Gaussian, Inc.),
 the Gaussian 90(TM) system (copyright 1990, Gaussian, Inc.),
 the Gaussian 88(TM) system (copyright 1988, Gaussian, Inc.),
 the Gaussian 86(TM) system (copyright 1986, Carnegie Mellon
 University), and the Gaussian 82(TM) system (copyright 1983,
 Carnegie Mellon University). Gaussian is a federally registered
 trademark of Gaussian, Inc.
  
 This software contains proprietary and confidential information,
 including trade secrets, belonging to Gaussian, Inc.
  
 This software is provided under written license and may be
 used, copied, transmitted, or stored only in accord with that
 written license.
  
 The following legend is applicable only to US Government
 contracts under FAR:
  
                    RESTRICTED RIGHTS LEGEND
  
 Use, reproduction and disclosure by the US Government is
 subject to restrictions as set forth in subparagraphs (a)
 and (c) of the Commercial Computer Software - Restricted
 Rights clause in FAR 52.227-19.
  
 Gaussian, Inc.
 340 Quinnipiac St., Bldg. 40, Wallingford CT 06492
  
  
 ---------------------------------------------------------------
 Warning -- This program may not be used in any manner that
 competes with the business of Gaussian, Inc. or will provide
 assistance to any competitor of Gaussian, Inc.  The licensee
 of this program is prohibited from giving any competitor of
 Gaussian, Inc. access to this program.  By using this program,
 the user acknowledges that Gaussian, Inc. is engaged in the
 business of creating and licensing software in the field of
 computational chemistry and represents and warrants to the
 licensee that it is not a competitor of Gaussian, Inc. and that
 it will not use this program in any manner prohibited above.
 ---------------------------------------------------------------
  

 Cite this work as:
 Gaussian 16, Revision B.01,
 M. J. Frisch, G. W. Trucks, H. B. Schlegel, G. E. Scuseria, 
 M. A. Robb, J. R. Cheeseman, G. Scalmani, V. Barone, 
 G. A. Petersson, H. Nakatsuji, X. Li, M. Caricato, A. V. Marenich, 
 J. Bloino, B. G. Janesko, R. Gomperts, B. Mennucci, H. P. Hratchian, 
 J. V. Ortiz, A. F. Izmaylov, J. L. Sonnenberg, D. Williams-Young, 
 F. Ding, F. Lipparini, F. Egidi, J. Goings, B. Peng, A. Petrone, 
 T. Henderson, D. Ranasinghe, V. G. Zakrzewski, J. Gao, N. Rega, 
 G. Zheng, W. Liang, M. Hada, M. Ehara, K. Toyota, R. Fukuda, 
 J. Hasegawa, M. Ishida, T. Nakajima, Y. Honda, O. Kitao, H. Nakai, 
 T. Vreven, K. Throssell, J. A. Montgomery, Jr., J. E. Peralta, 
 F. Ogliaro, M. J. Bearpark, J. J. Heyd, E. N. Brothers, K. N. Kudin, 
 V. N. Staroverov, T. A. Keith, R. Kobayashi, J. Normand, 
 K. Raghavachari, A. P. Rendell, J. C. Burant, S. S. Iyengar, 
 J. Tomasi, M. Cossi, J. M. Millam, M. Klene, C. Adamo, R. Cammi, 
 J. W. Ochterski, R. L. Martin, K. Morokuma, O. Farkas, 
 J. B. Foresman, and D. J. Fox, Gaussian, Inc., Wallingford CT, 2016.
 
 ******************************************
 Gaussian 16:  ES64L-G16RevB.01 20-Dec-2017
                23-Dec-2020 
 ******************************************
 %NProcShared=16
 Will use up to   16 processors via shared memory.
 %Mem=6GB
 --------------------------------------------------------------
 # B3LYP/6-31+G* OPT=(TS, CALCALL, NOEIGEN, maxcycles=100) Freq
 --------------------------------------------------------------
 1/5=1,6=100,10=4,11=1,18=20,26=3,38=1/1,3;
 2/9=110,12=2,17=6,18=5,40=1/2;
 3/5=1,6=6,7=11,11=2,25=1,30=1,71=2,74=-5,140=1/1,2,3;
 4//1;
 5/5=2,38=5/2;
 8/6=4,10=90,11=11/1;
 11/6=1,8=1,9=11,15=111,16=1/1,2,10;
 10/6=1/2;
 6/7=2,8=2,9=2,10=2,18=1,28=1/1;
 7/10=1,25=1/1,2,3,16;
 1/5=1,6=100,10=4,11=1,18=20,26=3/3(3);
 2/9=110/2;
 7/8=1,9=1,25=1,44=-1/16;
 99//99;
 2/9=110/2;
 3/5=1,6=6,7=11,11=2,25=1,30=1,71=2,74=-5,140=1/1,2,3;
 4/5=5,16=3,69=1/1;
 5/5=2,38=5/2;
 8/6=4,10=90,11=11/1;
 11/6=1,8=1,9=11,15=111,16=1/1,2,10;
 10/6=1/2;
 7/10=1,25=1/1,2,3,16;
 1/5=1,6=100,10=4,11=1,18=20,26=3/3(-8);
 2/9=110/2;
 6/7=2,8=2,9=2,10=2,18=1,19=2,28=1/1;
 7/8=1,9=1,25=1,44=-1/16;
 99//99;
 ----------
 pp_14_1 TS
 ----------
 Symbolic Z-matrix:
 Charge =  0 Multiplicity = 1
 C                     1.20094   1.5411   -1.48127 
 C                     0.37541   0.41709  -0.92593 
 C                     1.09104  -0.90957  -0.942 
 O                     0.54425   2.68061  -1.74922 
 O                     1.79289   3.33958  -2.9002 
 O                     2.27055  -1.0589   -1.06042 
 H                     1.39112   4.10792  -3.30928 
 H                     2.22226   1.69303  -1.13228 
 H                     1.35964   1.86614  -3.00035 
 H                     0.40302  -1.78053  -0.94875 
 H                    -0.57873   0.33374  -1.4556 
 H                     0.16116   0.65766   0.11931 
 
 Add virtual bond connecting atoms H9         and O5         Dist= 2.91D+00.
 Add virtual bond connecting atoms H9         and C1         Dist= 2.95D+00.
 Add virtual bond connecting atoms H9         and O4         Dist= 3.21D+00.

 GradGradGradGradGradGradGradGradGradGradGradGradGradGradGradGradGradGrad
 Berny optimization.
 Initialization pass.
                           ----------------------------
                           !    Initial Parameters    !
                           ! (Angstroms and Degrees)  !
 --------------------------                            --------------------------
 ! Name  Definition              Value          Derivative Info.                !
 --------------------------------------------------------------------------------
 ! R1    R(1,2)                  1.5011         calculate D2E/DX2 analytically  !
 ! R2    R(1,4)                  1.3422         calculate D2E/DX2 analytically  !
 ! R3    R(1,8)                  1.0899         calculate D2E/DX2 analytically  !
 ! R4    R(1,9)                  1.5616         calculate D2E/DX2 analytically  !
 ! R5    R(2,3)                  1.5075         calculate D2E/DX2 analytically  !
 ! R6    R(2,11)                 1.0945         calculate D2E/DX2 analytically  !
 ! R7    R(2,12)                 1.0938         calculate D2E/DX2 analytically  !
 ! R8    R(3,6)                  1.1948         calculate D2E/DX2 analytically  !
 ! R9    R(3,10)                 1.11           calculate D2E/DX2 analytically  !
 ! R10   R(4,9)                  1.701          calculate D2E/DX2 analytically  !
 ! R11   R(5,7)                  0.9587         calculate D2E/DX2 analytically  !
 ! R12   R(5,9)                  1.5391         calculate D2E/DX2 analytically  !
 ! A1    A(2,1,4)              116.1358         calculate D2E/DX2 analytically  !
 ! A2    A(2,1,8)              120.0823         calculate D2E/DX2 analytically  !
 ! A3    A(2,1,9)              124.8654         calculate D2E/DX2 analytically  !
 ! A4    A(4,1,8)              113.8306         calculate D2E/DX2 analytically  !
 ! A5    A(8,1,9)              100.7917         calculate D2E/DX2 analytically  !
 ! A6    A(1,2,3)              113.2013         calculate D2E/DX2 analytically  !
 ! A7    A(1,2,11)             110.9417         calculate D2E/DX2 analytically  !
 ! A8    A(1,2,12)             107.2521         calculate D2E/DX2 analytically  !
 ! A9    A(3,2,11)             109.9789         calculate D2E/DX2 analytically  !
 ! A10   A(3,2,12)             107.2622         calculate D2E/DX2 analytically  !
 ! A11   A(11,2,12)            107.9673         calculate D2E/DX2 analytically  !
 ! A12   A(2,3,6)              125.4297         calculate D2E/DX2 analytically  !
 ! A13   A(2,3,10)             113.3513         calculate D2E/DX2 analytically  !
 ! A14   A(6,3,10)             120.8808         calculate D2E/DX2 analytically  !
 ! A15   A(7,5,9)              128.4271         calculate D2E/DX2 analytically  !
 ! A16   A(1,9,5)               99.473          calculate D2E/DX2 analytically  !
 ! A17   A(4,9,5)               68.2034         calculate D2E/DX2 analytically  !
 ! D1    D(4,1,2,3)            166.9257         calculate D2E/DX2 analytically  !
 ! D2    D(4,1,2,11)            42.727          calculate D2E/DX2 analytically  !
 ! D3    D(4,1,2,12)           -74.9637         calculate D2E/DX2 analytically  !
 ! D4    D(8,1,2,3)            -49.5283         calculate D2E/DX2 analytically  !
 ! D5    D(8,1,2,11)          -173.727          calculate D2E/DX2 analytically  !
 ! D6    D(8,1,2,12)            68.5823         calculate D2E/DX2 analytically  !
 ! D7    D(9,1,2,3)             82.3312         calculate D2E/DX2 analytically  !
 ! D8    D(9,1,2,11)           -41.8675         calculate D2E/DX2 analytically  !
 ! D9    D(9,1,2,12)          -159.5582         calculate D2E/DX2 analytically  !
 ! D10   D(2,1,9,5)            158.5995         calculate D2E/DX2 analytically  !
 ! D11   D(8,1,9,5)            -62.4013         calculate D2E/DX2 analytically  !
 ! D12   D(1,2,3,6)             17.4734         calculate D2E/DX2 analytically  !
 ! D13   D(1,2,3,10)          -155.8609         calculate D2E/DX2 analytically  !
 ! D14   D(11,2,3,6)           142.1955         calculate D2E/DX2 analytically  !
 ! D15   D(11,2,3,10)          -31.1388         calculate D2E/DX2 analytically  !
 ! D16   D(12,2,3,6)          -100.6313         calculate D2E/DX2 analytically  !
 ! D17   D(12,2,3,10)           86.0344         calculate D2E/DX2 analytically  !
 ! D18   D(7,5,9,1)           -124.4431         calculate D2E/DX2 analytically  !
 ! D19   D(7,5,9,4)            -86.8482         calculate D2E/DX2 analytically  !
 --------------------------------------------------------------------------------
 Trust Radius=3.00D-01 FncErr=1.00D-07 GrdErr=1.00D-06 EigMax=2.50D+02 EigMin=1.00D-04
 Number of steps in this run=    100 maximum allowed number of steps=    100.
 Search for a saddle point of order  1.
 GradGradGradGradGradGradGradGradGradGradGradGradGradGradGradGradGradGrad

                          Input orientation:                          
 ---------------------------------------------------------------------
 Center     Atomic      Atomic             Coordinates (Angstroms)
 Number     Number       Type             X           Y           Z
 ---------------------------------------------------------------------
      1          6           0        1.200936    1.541100   -1.481269
      2          6           0        0.375406    0.417093   -0.925926
      3          6           0        1.091042   -0.909569   -0.941996
      4          8           0        0.544251    2.680613   -1.749224
      5          8           0        1.792887    3.339580   -2.900196
      6          8           0        2.270552   -1.058902   -1.060420
      7          1           0        1.391115    4.107922   -3.309282
      8          1           0        2.222256    1.693030   -1.132275
      9          1           0        1.359638    1.866143   -3.000348
     10          1           0        0.403016   -1.780534   -0.948752
     11          1           0       -0.578731    0.333739   -1.455600
     12          1           0        0.161164    0.657660    0.119311
 ---------------------------------------------------------------------
                    Distance matrix (angstroms):
                    1          2          3          4          5
     1  C    0.000000
     2  C    1.501099   0.000000
     3  C    2.511707   1.507457   0.000000
     4  O    1.342209   2.414508   3.720216   0.000000
     5  O    2.366071   3.801043   4.731004   1.821556   0.000000
     6  O    2.842746   2.405874   1.194809   4.175948   4.791616
     7  H    3.156957   4.509354   5.556015   2.277756   0.958708
     8  H    1.089942   2.254207   2.844182   2.042461   2.453779
     9  H    1.561551   2.715085   3.466055   1.701038   1.539075
    10  H    3.457384   2.197919   1.109957   4.534593   5.652915
    11  H    2.150719   1.094477   2.144235   2.618229   4.092250
    12  H    2.103200   1.093752   2.108851   2.780381   4.355759
                    6          7          8          9         10
     6  O    0.000000
     7  H    5.703232   0.000000
     8  H    2.753294   3.355869   0.000000
     9  H    3.626151   2.263185   2.064891   0.000000
    10  H    2.005221   6.420464   3.925425   4.292135   0.000000
    11  H    3.195940   4.643370   3.130134   2.914066   2.385555
    12  H    2.964434   5.017204   2.624225   3.553737   2.672834
                   11         12
    11  H    0.000000
    12  H    1.769947   0.000000
 Stoichiometry    C3H6O3
 Framework group  C1[X(C3H6O3)]
 Deg. of freedom    30
 Full point group                 C1      NOp   1
 Largest Abelian subgroup         C1      NOp   1
 Largest concise Abelian subgroup C1      NOp   1
                         Standard orientation:                         
 ---------------------------------------------------------------------
 Center     Atomic      Atomic             Coordinates (Angstroms)
 Number     Number       Type             X           Y           Z
 ---------------------------------------------------------------------
      1          6           0       -0.375868    0.093732   -0.227644
      2          6           0        0.855409    0.917862    0.013319
      3          6           0        2.099364    0.086839    0.198796
      4          8           0       -1.548241    0.739968   -0.130456
      5          8           0       -2.555465   -0.755707    0.127464
      6          8           0        2.220279   -1.059092   -0.117099
      7          1           0       -3.428585   -0.443616    0.371149
      8          1           0       -0.367804   -0.692811   -0.982136
      9          1           0       -1.230259   -0.582715    0.890782
     10          1           0        2.892635    0.605211    0.776738
     11          1           0        0.718920    1.583413    0.871394
     12          1           0        1.009069    1.538577   -0.874034
 ---------------------------------------------------------------------
 Rotational constants (GHZ):           8.6970723           1.6066058           1.4003254
 Standard basis: 6-31+G(d) (6D, 7F)
 There are   126 symmetry adapted cartesian basis functions of A   symmetry.
 There are   126 symmetry adapted basis functions of A   symmetry.
   126 basis functions,   216 primitive gaussians,   126 cartesian basis functions
    24 alpha electrons       24 beta electrons
       nuclear repulsion energy       228.4110233215 Hartrees.
 NAtoms=   12 NActive=   12 NUniq=   12 SFac= 1.00D+00 NAtFMM=   60 NAOKFM=F Big=F
 Integral buffers will be    131072 words long.
 Raffenetti 2 integral format.
 Two-electron integral symmetry is turned on.
 One-electron integrals computed using PRISM.
 NBasis=   126 RedAO= T EigKep=  7.51D-05  NBF=   126
 NBsUse=   126 1.00D-06 EigRej= -1.00D+00 NBFU=   126
 ExpMin= 4.38D-02 ExpMax= 5.48D+03 ExpMxC= 8.25D+02 IAcc=3 IRadAn=         5 AccDes= 0.00D+00
 Harris functional with IExCor=  402 and IRadAn=       5 diagonalized for initial guess.
 HarFok:  IExCor=  402 AccDes= 0.00D+00 IRadAn=         5 IDoV= 1 UseB2=F ITyADJ=14
 ICtDFT=  3500011 ScaDFX=  1.000000  1.000000  1.000000  1.000000
 FoFCou: FMM=F IPFlag=           0 FMFlag=      100000 FMFlg1=           0
         NFxFlg=           0 DoJE=T BraDBF=F KetDBF=T FulRan=T
         wScrn=  0.000000 ICntrl=       500 IOpCl=  0 I1Cent=   200000004 NGrid=           0
         NMat0=    1 NMatS0=      1 NMatT0=    0 NMatD0=    1 NMtDS0=    0 NMtDT0=    0
 Petite list used in FoFCou.
 Keep R1 ints in memory in canonical form, NReq=47237537.
 Requested convergence on RMS density matrix=1.00D-08 within 128 cycles.
 Requested convergence on MAX density matrix=1.00D-06.
 Requested convergence on             energy=1.00D-06.
 No special actions if energy rises.
 EnCoef did     3 forward-backward iterations
 EnCoef did     2 forward-backward iterations
 SCF Done:  E(RB3LYP) =  -343.351481364     A.U. after   17 cycles
            NFock= 17  Conv=0.25D-08     -V/T= 2.0089
 DoSCS=F DFT=T ScalE2(SS,OS)=  1.000000  1.000000
 Range of M.O.s used for correlation:     1   126
 NBasis=   126 NAE=    24 NBE=    24 NFC=     0 NFV=     0
 NROrb=    126 NOA=    24 NOB=    24 NVA=   102 NVB=   102

 **** Warning!!: The largest alpha MO coefficient is  0.44075898D+02


 **** Warning!!: The smallest alpha delta epsilon is  0.84333063D-01

 Symmetrizing basis deriv contribution to polar:
 IMax=3 JMax=2 DiffMx= 0.00D+00
 G2DrvN: will do    13 centers at a time, making    1 passes.
 Calling FoFCou, ICntrl=  3107 FMM=F I1Cent=   0 AccDes= 0.00D+00.
 End of G2Drv F.D. properties file   721 does not exist.
 End of G2Drv F.D. properties file   722 does not exist.
 End of G2Drv F.D. properties file   788 does not exist.
          IDoAtm=111111111111
          Differentiating once with respect to electric field.
                with respect to dipole field.
          Differentiating once with respect to nuclear coordinates.
 Keep R1 ints in memory in canonical form, NReq=47193559.
          There are    39 degrees of freedom in the 1st order CPHF.  IDoFFX=6 NUNeed=     3.
     36 vectors produced by pass  0 Test12= 6.28D-15 2.56D-09 XBig12= 1.69D+02 8.61D+00.
 AX will form    36 AO Fock derivatives at one time.
     36 vectors produced by pass  1 Test12= 6.28D-15 2.56D-09 XBig12= 5.84D+01 1.43D+00.
     36 vectors produced by pass  2 Test12= 6.28D-15 2.56D-09 XBig12= 6.16D-01 1.50D-01.
     36 vectors produced by pass  3 Test12= 6.28D-15 2.56D-09 XBig12= 2.25D-03 7.01D-03.
     36 vectors produced by pass  4 Test12= 6.28D-15 2.56D-09 XBig12= 3.51D-06 2.70D-04.
     28 vectors produced by pass  5 Test12= 6.28D-15 2.56D-09 XBig12= 3.30D-09 6.76D-06.
      4 vectors produced by pass  6 Test12= 6.28D-15 2.56D-09 XBig12= 2.64D-12 2.02D-07.
      3 vectors produced by pass  7 Test12= 6.28D-15 2.56D-09 XBig12= 2.02D-15 8.12D-09.
 InvSVY:  IOpt=1 It=  1 EMax= 4.57D-15
 Solved reduced A of dimension   215 with    39 vectors.
 Isotropic polarizability for W=    0.000000       62.75 Bohr**3.
 End of Minotr F.D. properties file   721 does not exist.
 End of Minotr F.D. properties file   722 does not exist.
 End of Minotr F.D. properties file   788 does not exist.

 **********************************************************************

            Population analysis using the SCF Density.

 **********************************************************************

 Orbital symmetries:
       Occupied  (A) (A) (A) (A) (A) (A) (A) (A) (A) (A) (A) (A)
                 (A) (A) (A) (A) (A) (A) (A) (A) (A) (A) (A) (A)
       Virtual   (A) (A) (A) (A) (A) (A) (A) (A) (A) (A) (A) (A)
                 (A) (A) (A) (A) (A) (A) (A) (A) (A) (A) (A) (A)
                 (A) (A) (A) (A) (A) (A) (A) (A) (A) (A) (A) (A)
                 (A) (A) (A) (A) (A) (A) (A) (A) (A) (A) (A) (A)
                 (A) (A) (A) (A) (A) (A) (A) (A) (A) (A) (A) (A)
                 (A) (A) (A) (A) (A) (A) (A) (A) (A) (A) (A) (A)
                 (A) (A) (A) (A) (A) (A) (A) (A) (A) (A) (A) (A)
                 (A) (A) (A) (A) (A) (A) (A) (A) (A) (A) (A) (A)
                 (A) (A) (A) (A) (A) (A)
 The electronic state is 1-A.
 Alpha  occ. eigenvalues --  -19.23448 -19.19185 -19.18158 -10.30438 -10.27256
 Alpha  occ. eigenvalues --  -10.23390  -1.08525  -1.07393  -0.97062  -0.80267
 Alpha  occ. eigenvalues --   -0.64976  -0.58729  -0.52890  -0.51912  -0.49725
 Alpha  occ. eigenvalues --   -0.46914  -0.45126  -0.43320  -0.41315  -0.39471
 Alpha  occ. eigenvalues --   -0.35816  -0.31432  -0.28432  -0.22813
 Alpha virt. eigenvalues --   -0.14379  -0.05074  -0.01263   0.00220   0.02621
 Alpha virt. eigenvalues --    0.03377   0.05166   0.06116   0.07109   0.07602
 Alpha virt. eigenvalues --    0.08601   0.08744   0.11237   0.12374   0.14584
 Alpha virt. eigenvalues --    0.15881   0.17475   0.19288   0.20697   0.21592
 Alpha virt. eigenvalues --    0.22122   0.22495   0.23858   0.24780   0.24835
 Alpha virt. eigenvalues --    0.26883   0.27672   0.28879   0.30189   0.30882
 Alpha virt. eigenvalues --    0.31627   0.34515   0.36305   0.36883   0.39353
 Alpha virt. eigenvalues --    0.46257   0.62556   0.65329   0.66593   0.67657
 Alpha virt. eigenvalues --    0.68868   0.72787   0.78251   0.82371   0.86776
 Alpha virt. eigenvalues --    0.91211   0.94071   0.95948   0.99427   1.03842
 Alpha virt. eigenvalues --    1.06374   1.07638   1.09112   1.17974   1.18889
 Alpha virt. eigenvalues --    1.19676   1.21389   1.23599   1.24735   1.27404
 Alpha virt. eigenvalues --    1.29918   1.34639   1.38026   1.42400   1.47177
 Alpha virt. eigenvalues --    1.51893   1.55632   1.61063   1.61832   1.64878
 Alpha virt. eigenvalues --    1.68248   1.72546   1.75557   1.76416   1.78840
 Alpha virt. eigenvalues --    1.81341   1.85128   1.87072   1.94658   2.00528
 Alpha virt. eigenvalues --    2.05444   2.05854   2.17683   2.21189   2.26947
 Alpha virt. eigenvalues --    2.36678   2.42494   2.47945   2.49144   2.54836
 Alpha virt. eigenvalues --    2.60150   2.70784   2.83620   2.93466   2.95914
 Alpha virt. eigenvalues --    3.08134   3.98841   4.12466   4.17613   4.21296
 Alpha virt. eigenvalues --    4.32850   4.50720
          Condensed to atoms (all electrons):
               1          2          3          4          5          6
     1  C    5.808869  -0.176697  -0.039633   0.162478  -0.315038   0.066137
     2  C   -0.176697   6.703357  -0.213109  -0.121420   0.033230  -0.213822
     3  C   -0.039633  -0.213109   5.146556   0.048129   0.012518   0.500525
     4  O    0.162478  -0.121420   0.048129   8.239180  -0.069922   0.000954
     5  O   -0.315038   0.033230   0.012518  -0.069922   8.888175  -0.000043
     6  O    0.066137  -0.213822   0.500525   0.000954  -0.000043   8.043983
     7  H    0.027400  -0.002703  -0.000629   0.013460   0.135288  -0.000005
     8  H    0.328113  -0.048932   0.012665  -0.052362   0.031687  -0.000506
     9  H    0.390425  -0.017937  -0.019426  -0.047326  -0.126518  -0.000082
    10  H    0.047672  -0.204216   0.430632  -0.000814  -0.000062  -0.063001
    11  H   -0.059635   0.384879  -0.023894   0.008439   0.002020   0.003968
    12  H   -0.012525   0.359571  -0.045448  -0.007738  -0.002997  -0.001996
               7          8          9         10         11         12
     1  C    0.027400   0.328113   0.390425   0.047672  -0.059635  -0.012525
     2  C   -0.002703  -0.048932  -0.017937  -0.204216   0.384879   0.359571
     3  C   -0.000629   0.012665  -0.019426   0.430632  -0.023894  -0.045448
     4  O    0.013460  -0.052362  -0.047326  -0.000814   0.008439  -0.007738
     5  O    0.135288   0.031687  -0.126518  -0.000062   0.002020  -0.002997
     6  O   -0.000005  -0.000506  -0.000082  -0.063001   0.003968  -0.001996
     7  H    0.354726  -0.000476   0.009849   0.000000  -0.000010   0.000016
     8  H   -0.000476   0.536032  -0.030315  -0.000226   0.003525  -0.004209
     9  H    0.009849  -0.030315   0.562868   0.000129  -0.002662   0.001769
    10  H    0.000000  -0.000226   0.000129   0.625275   0.000407   0.003095
    11  H   -0.000010   0.003525  -0.002662   0.000407   0.472500  -0.027299
    12  H    0.000016  -0.004209   0.001769   0.003095  -0.027299   0.487774
 Mulliken charges:
               1
     1  C   -0.227566
     2  C   -0.482202
     3  C    0.191114
     4  O   -0.173058
     5  O   -0.588339
     6  O   -0.336112
     7  H    0.463082
     8  H    0.225002
     9  H    0.279223
    10  H    0.161109
    11  H    0.237760
    12  H    0.249986
 Sum of Mulliken charges =  -0.00000
 Mulliken charges with hydrogens summed into heavy atoms:
               1
     1  C   -0.002564
     2  C    0.005544
     3  C    0.352224
     4  O   -0.173058
     5  O    0.153966
     6  O   -0.336112
 APT charges:
               1
     1  C    0.161886
     2  C   -0.013663
     3  C    0.811430
     4  O    0.244510
     5  O   -0.684668
     6  O   -0.627093
     7  H    0.264837
     8  H   -0.035841
     9  H   -0.015106
    10  H   -0.094815
    11  H    0.019853
    12  H   -0.031330
 Sum of APT charges =  -0.00000
 APT charges with hydrogens summed into heavy atoms:
               1
     1  C    0.126045
     2  C   -0.025140
     3  C    0.716614
     4  O    0.244510
     5  O   -0.434936
     6  O   -0.627093
 Electronic spatial extent (au):  <R**2>=            796.4261
 Charge=             -0.0000 electrons
 Dipole moment (field-independent basis, Debye):
    X=              0.3404    Y=              2.9453    Z=              1.0448  Tot=              3.1436
 Quadrupole moment (field-independent basis, Debye-Ang):
   XX=            -34.8022   YY=            -40.0440   ZZ=            -35.1336
   XY=              5.3942   XZ=             -1.4610   YZ=             -0.4573
 Traceless Quadrupole moment (field-independent basis, Debye-Ang):
   XX=              1.8577   YY=             -3.3840   ZZ=              1.5263
   XY=              5.3942   XZ=             -1.4610   YZ=             -0.4573
 Octapole moment (field-independent basis, Debye-Ang**2):
  XXX=            -36.9660  YYY=              3.6503  ZZZ=             -0.9406  XYY=             -1.2131
  XXY=             13.1584  XXZ=             11.3401  XZZ=             -0.5827  YZZ=              0.3921
  YYZ=             -0.3873  XYZ=              0.3275
 Hexadecapole moment (field-independent basis, Debye-Ang**3):
 XXXX=           -632.0167 YYYY=           -172.9868 ZZZZ=            -58.7734 XXXY=             21.8541
 XXXZ=            -22.0922 YYYX=             -2.0124 YYYZ=             -0.3423 ZZZX=             -1.6650
 ZZZY=              0.6932 XXYY=           -179.2221 XXZZ=           -133.3494 YYZZ=            -36.1107
 XXYZ=             -4.3076 YYXZ=             -0.6501 ZZXY=             -0.4644
 N-N= 2.284110233215D+02 E-N=-1.261304005528D+03  KE= 3.403213358435D+02
  Exact polarizability:  88.498  10.974  57.030  -1.164  -0.167  42.713
 Approx polarizability: 137.479  24.653  98.730  -1.768  -2.150  63.336
 Calling FoFJK, ICntrl=    100127 FMM=F ISym2X=0 I1Cent= 0 IOpClX= 0 NMat=1 NMatS=1 NMatT=0.
 ***** Axes restored to original set *****
 -------------------------------------------------------------------
 Center     Atomic                   Forces (Hartrees/Bohr)
 Number     Number              X              Y              Z
 -------------------------------------------------------------------
      1        6           0.001590215    0.020944530   -0.047735370
      2        6           0.002552416    0.002345319   -0.013231733
      3        6          -0.027081830   -0.002705291   -0.012781388
      4        8          -0.002805633    0.013671164    0.041060144
      5        8          -0.004764465   -0.021699959   -0.000768597
      6        8           0.027614877   -0.003329876    0.001877085
      7        1          -0.007243597    0.016321790   -0.017812104
      8        1          -0.000207974   -0.003268380    0.010334556
      9        1           0.017837583   -0.018195251    0.024898982
     10        1           0.000219527   -0.003839544    0.006585557
     11        1          -0.002472302   -0.001118605    0.001638904
     12        1          -0.005238817    0.000874102    0.005933964
 -------------------------------------------------------------------
 Cartesian Forces:  Max     0.047735370 RMS     0.015914403
 FormGI is forming the generalized inverse of G from B-inverse, IUseBI=4.

 GradGradGradGradGradGradGradGradGradGradGradGradGradGradGradGradGradGrad
 Berny optimization.
 Internal  Forces:  Max     0.045077570 RMS     0.014982782
 Search for a saddle point.
 Step number   1 out of a maximum of  100
 All quantities printed in internal units (Hartrees-Bohrs-Radians)
 Swapping is turned off.
 Second derivative matrix not updated -- analytic derivatives used.
 ITU=  0
     Eigenvalues ---   -0.68247  -0.01833  -0.00082   0.00180   0.00917
     Eigenvalues ---    0.02026   0.02325   0.02837   0.03242   0.04208
     Eigenvalues ---    0.04806   0.05373   0.06590   0.08451   0.08933
     Eigenvalues ---    0.11576   0.13635   0.14469   0.18458   0.22222
     Eigenvalues ---    0.22859   0.29219   0.30612   0.31573   0.33867
     Eigenvalues ---    0.34300   0.34879   0.38601   0.55932   0.97310
 Eigenvectors required to have negative eigenvalues:
                          A17       A16       R4        R2        D10
   1                    0.63386   0.42355   0.38985  -0.31900   0.19972
                          D11       R12       A4        D19       A1
   1                    0.18383  -0.14419   0.12053  -0.11018  -0.09473
 RFO step:  Lambda0=1.172953824D-04 Lambda=-6.66521974D-02.
 Linear search not attempted -- option 19 set.
 Maximum step size (   0.300) exceeded in Quadratic search.
    -- Step size scaled by   0.387
 Iteration  1 RMS(Cart)=  0.14348715 RMS(Int)=  0.01171934
 Iteration  2 RMS(Cart)=  0.01829608 RMS(Int)=  0.00236747
 Iteration  3 RMS(Cart)=  0.00009636 RMS(Int)=  0.00236597
 Iteration  4 RMS(Cart)=  0.00000086 RMS(Int)=  0.00236597
 Variable       Old X    -DE/DX   Delta X   Delta X   Delta X     New X
                                 (Linear)    (Quad)   (Total)
    R1        2.83667   0.00455   0.00000   0.01202   0.01202   2.84869
    R2        2.53641  -0.00336   0.00000  -0.01514  -0.01188   2.52453
    R3        2.05969   0.00266   0.00000   0.00447   0.00447   2.06416
    R4        2.95090  -0.03750   0.00000  -0.03704  -0.03840   2.91251
    R5        2.84868   0.00909   0.00000   0.00260   0.00260   2.85128
    R6        2.06826   0.00145   0.00000   0.00200   0.00200   2.07026
    R7        2.06689   0.00689   0.00000   0.00640   0.00640   2.07329
    R8        2.25786   0.02749   0.00000   0.01099   0.01099   2.26885
    R9        2.09752   0.00284   0.00000   0.00235   0.00235   2.09986
   R10        3.21450   0.03124   0.00000   0.15343   0.15216   3.36665
   R11        1.81170   0.02372   0.00000   0.01711   0.01711   1.82880
   R12        2.90843  -0.00974   0.00000  -0.19704  -0.19704   2.71139
    A1        2.02695   0.00434   0.00000  -0.00238  -0.00016   2.02679
    A2        2.09583   0.00445   0.00000  -0.00607  -0.00669   2.08914
    A3        2.17931  -0.04491   0.00000  -0.07035  -0.07072   2.10859
    A4        1.98672  -0.01225   0.00000  -0.01477  -0.01675   1.96997
    A5        1.75915   0.02636   0.00000   0.03948   0.03881   1.79796
    A6        1.97573   0.00211   0.00000   0.00320   0.00319   1.97893
    A7        1.93630   0.00137   0.00000   0.00383   0.00384   1.94014
    A8        1.87190   0.00019   0.00000   0.01845   0.01843   1.89034
    A9        1.91949  -0.00200   0.00000  -0.00929  -0.00931   1.91019
   A10        1.87208  -0.00006   0.00000  -0.00685  -0.00695   1.86513
   A11        1.88439  -0.00180   0.00000  -0.00965  -0.00976   1.87462
   A12        2.18916  -0.00134   0.00000   0.00192   0.00184   2.19100
   A13        1.97835   0.00366   0.00000   0.00369   0.00362   1.98197
   A14        2.10977  -0.00158   0.00000  -0.00328  -0.00336   2.10640
   A15        2.24148  -0.00535   0.00000  -0.09006  -0.09006   2.15141
   A16        1.73613   0.04508   0.00000   0.08851   0.07841   1.81454
   A17        1.19037   0.01434   0.00000  -0.03085  -0.01997   1.17041
    D1        2.91340   0.00867   0.00000   0.03469   0.03441   2.94781
    D2        0.74573   0.00865   0.00000   0.04158   0.04134   0.78706
    D3       -1.30836   0.00995   0.00000   0.04012   0.03987  -1.26849
    D4       -0.86443  -0.00134   0.00000  -0.00825  -0.00851  -0.87295
    D5       -3.03211  -0.00135   0.00000  -0.00136  -0.00158  -3.03369
    D6        1.19699  -0.00006   0.00000  -0.00282  -0.00305   1.19394
    D7        1.43695  -0.00886   0.00000  -0.04238  -0.04190   1.39505
    D8       -0.73073  -0.00887   0.00000  -0.03548  -0.03497  -0.76570
    D9       -2.78482  -0.00758   0.00000  -0.03695  -0.03644  -2.82125
   D10        2.76808  -0.01118   0.00000  -0.13837  -0.13970   2.62838
   D11       -1.08911  -0.01916   0.00000  -0.17455  -0.17664  -1.26575
   D12        0.30497   0.00276   0.00000  -0.05865  -0.05866   0.24631
   D13       -2.72029  -0.00444   0.00000  -0.08125  -0.08127  -2.80155
   D14        2.48178   0.00458   0.00000  -0.05842  -0.05846   2.42332
   D15       -0.54347  -0.00262   0.00000  -0.08103  -0.08107  -0.62454
   D16       -1.75635   0.00133   0.00000  -0.07879  -0.07874  -1.83508
   D17        1.50158  -0.00587   0.00000  -0.10140  -0.10134   1.40024
   D18       -2.17194   0.00987   0.00000   0.01297   0.01589  -2.15606
   D19       -1.51579  -0.02131   0.00000  -0.12653  -0.12944  -1.64523
         Item               Value     Threshold  Converged?
 Maximum Force            0.045078     0.000450     NO 
 RMS     Force            0.014983     0.000300     NO 
 Maximum Displacement     0.395518     0.001800     NO 
 RMS     Displacement     0.143507     0.001200     NO 
 Predicted change in Energy=-2.622659D-02
 GradGradGradGradGradGradGradGradGradGradGradGradGradGradGradGradGradGrad

                          Input orientation:                          
 ---------------------------------------------------------------------
 Center     Atomic      Atomic             Coordinates (Angstroms)
 Number     Number       Type             X           Y           Z
 ---------------------------------------------------------------------
      1          6           0        1.268150    1.589445   -1.393397
      2          6           0        0.387770    0.450670   -0.945553
      3          6           0        1.071139   -0.893275   -1.003798
      4          8           0        0.659789    2.763361   -1.584472
      5          8           0        1.716200    3.292923   -2.942221
      6          8           0        2.251893   -1.070856   -1.129427
      7          1           0        1.186728    3.898623   -3.480131
      8          1           0        2.271712    1.694487   -0.975111
      9          1           0        1.484725    1.877807   -2.891842
     10          1           0        0.364502   -1.750794   -1.013277
     11          1           0       -0.538918    0.414207   -1.528745
     12          1           0        0.109841    0.621278    0.101996
 ---------------------------------------------------------------------
                    Distance matrix (angstroms):
                    1          2          3          4          5
     1  C    0.000000
     2  C    1.507462   0.000000
     3  C    2.520813   1.508832   0.000000
     4  O    1.335923   2.414694   3.725235   0.000000
     5  O    2.345515   3.718845   4.658093   1.799978   0.000000
     6  O    2.848620   2.413257   1.200624   4.176492   4.755603
     7  H    3.113421   4.353251   5.395171   2.271565   0.967760
     8  H    1.092307   2.257696   2.852842   2.027833   2.594824
     9  H    1.541232   2.651052   3.378559   1.781556   1.434807
    10  H    3.481130   2.202629   1.111200   4.559721   5.566596
    11  H    2.159860   1.095533   2.139477   2.637902   3.920520
    12  H    2.124906   1.097137   2.107308   2.781210   4.357215
                    6          7          8          9         10
     6  O    0.000000
     7  H    5.599652   0.000000
     8  H    2.769716   3.508637   0.000000
     9  H    3.519840   2.125695   2.080100   0.000000
    10  H    2.009490   6.219110   3.938129   4.236821   0.000000
    11  H    3.186455   4.350508   3.137717   2.845223   2.401896
    12  H    2.994680   4.973158   2.643032   3.525938   2.633517
                   11         12
    11  H    0.000000
    12  H    1.767224   0.000000
 Stoichiometry    C3H6O3
 Framework group  C1[X(C3H6O3)]
 Deg. of freedom    30
 Full point group                 C1      NOp   1
 Largest Abelian subgroup         C1      NOp   1
 Largest concise Abelian subgroup C1      NOp   1
                         Standard orientation:                         
 ---------------------------------------------------------------------
 Center     Atomic      Atomic             Coordinates (Angstroms)
 Number     Number       Type             X           Y           Z
 ---------------------------------------------------------------------
      1          6           0       -0.384155    0.099859   -0.315835
      2          6           0        0.815844    0.911574    0.100773
      3          6           0        2.073641    0.090632    0.244210
      4          8           0       -1.566987    0.715890   -0.237713
      5          8           0       -2.506561   -0.756371    0.197683
      6          8           0        2.227445   -1.027680   -0.164716
      7          1           0       -3.274773   -0.451281    0.701003
      8          1           0       -0.311444   -0.572375   -1.173710
      9          1           0       -1.168276   -0.736002    0.714644
     10          1           0        2.855942    0.580983    0.862535
     11          1           0        0.623679    1.450689    1.034915
     12          1           0        1.011721    1.660886   -0.676319
 ---------------------------------------------------------------------
 Rotational constants (GHZ):           8.5372763           1.6237723           1.4311208
 Standard basis: 6-31+G(d) (6D, 7F)
 There are   126 symmetry adapted cartesian basis functions of A   symmetry.
 There are   126 symmetry adapted basis functions of A   symmetry.
   126 basis functions,   216 primitive gaussians,   126 cartesian basis functions
    24 alpha electrons       24 beta electrons
       nuclear repulsion energy       228.9873908448 Hartrees.
 NAtoms=   12 NActive=   12 NUniq=   12 SFac= 1.00D+00 NAtFMM=   60 NAOKFM=F Big=F
 Integral buffers will be    131072 words long.
 Raffenetti 2 integral format.
 Two-electron integral symmetry is turned on.
 One-electron integrals computed using PRISM.
 NBasis=   126 RedAO= T EigKep=  8.12D-05  NBF=   126
 NBsUse=   126 1.00D-06 EigRej= -1.00D+00 NBFU=   126
 Initial guess from the checkpoint file:  "/scratch/bell/zhao922/YARP/paper-example/KHP-network/pp_0/TS-folder/Gau-5572.chk"
 B after Tr=     0.000000   -0.000000    0.000000
         Rot=    0.999878   -0.014694    0.000016   -0.005226 Ang=  -1.79 deg.
 ExpMin= 4.38D-02 ExpMax= 5.48D+03 ExpMxC= 8.25D+02 IAcc=3 IRadAn=         5 AccDes= 0.00D+00
 Harris functional with IExCor=  402 and IRadAn=       5 diagonalized for initial guess.
 HarFok:  IExCor=  402 AccDes= 0.00D+00 IRadAn=         5 IDoV= 1 UseB2=F ITyADJ=14
 ICtDFT=  3500011 ScaDFX=  1.000000  1.000000  1.000000  1.000000
 FoFCou: FMM=F IPFlag=           0 FMFlag=      100000 FMFlg1=           0
         NFxFlg=           0 DoJE=T BraDBF=F KetDBF=T FulRan=T
         wScrn=  0.000000 ICntrl=       500 IOpCl=  0 I1Cent=   200000004 NGrid=           0
         NMat0=    1 NMatS0=      1 NMatT0=    0 NMatD0=    1 NMtDS0=    0 NMtDT0=    0
 Petite list used in FoFCou.
 Keep R1 ints in memory in canonical form, NReq=47237537.
 Requested convergence on RMS density matrix=1.00D-08 within 128 cycles.
 Requested convergence on MAX density matrix=1.00D-06.
 Requested convergence on             energy=1.00D-06.
 No special actions if energy rises.
 SCF Done:  E(RB3LYP) =  -343.377333994     A.U. after   14 cycles
            NFock= 14  Conv=0.96D-08     -V/T= 2.0090
 DoSCS=F DFT=T ScalE2(SS,OS)=  1.000000  1.000000
 Range of M.O.s used for correlation:     1   126
 NBasis=   126 NAE=    24 NBE=    24 NFC=     0 NFV=     0
 NROrb=    126 NOA=    24 NOB=    24 NVA=   102 NVB=   102

 **** Warning!!: The largest alpha MO coefficient is  0.44157184D+02

 Symmetrizing basis deriv contribution to polar:
 IMax=3 JMax=2 DiffMx= 0.00D+00
 G2DrvN: will do    13 centers at a time, making    1 passes.
 Calling FoFCou, ICntrl=  3107 FMM=F I1Cent=   0 AccDes= 0.00D+00.
 End of G2Drv F.D. properties file   721 does not exist.
 End of G2Drv F.D. properties file   722 does not exist.
 End of G2Drv F.D. properties file   788 does not exist.
          IDoAtm=111111111111
          Differentiating once with respect to electric field.
                with respect to dipole field.
          Differentiating once with respect to nuclear coordinates.
 Keep R1 ints in memory in canonical form, NReq=47193559.
          There are    39 degrees of freedom in the 1st order CPHF.  IDoFFX=6 NUNeed=     3.
     36 vectors produced by pass  0 Test12= 6.28D-15 2.56D-09 XBig12= 1.31D+02 6.62D+00.
 AX will form    36 AO Fock derivatives at one time.
     36 vectors produced by pass  1 Test12= 6.28D-15 2.56D-09 XBig12= 3.73D+01 1.02D+00.
     36 vectors produced by pass  2 Test12= 6.28D-15 2.56D-09 XBig12= 3.36D-01 1.02D-01.
     36 vectors produced by pass  3 Test12= 6.28D-15 2.56D-09 XBig12= 1.50D-03 5.50D-03.
     36 vectors produced by pass  4 Test12= 6.28D-15 2.56D-09 XBig12= 2.48D-06 1.84D-04.
     27 vectors produced by pass  5 Test12= 6.28D-15 2.56D-09 XBig12= 2.28D-09 6.22D-06.
      3 vectors produced by pass  6 Test12= 6.28D-15 2.56D-09 XBig12= 1.75D-12 1.38D-07.
      3 vectors produced by pass  7 Test12= 6.28D-15 2.56D-09 XBig12= 1.26D-15 6.73D-09.
 InvSVY:  IOpt=1 It=  1 EMax= 7.11D-15
 Solved reduced A of dimension   213 with    39 vectors.
 Isotropic polarizability for W=    0.000000       60.94 Bohr**3.
 End of Minotr F.D. properties file   721 does not exist.
 End of Minotr F.D. properties file   722 does not exist.
 End of Minotr F.D. properties file   788 does not exist.
 Calling FoFJK, ICntrl=    100127 FMM=F ISym2X=0 I1Cent= 0 IOpClX= 0 NMat=1 NMatS=1 NMatT=0.
 ***** Axes restored to original set *****
 -------------------------------------------------------------------
 Center     Atomic                   Forces (Hartrees/Bohr)
 Number     Number              X              Y              Z
 -------------------------------------------------------------------
      1        6          -0.004316401    0.024413692   -0.025514539
      2        6           0.004072637    0.001050025   -0.009321123
      3        6          -0.019144590   -0.001483618   -0.011019926
      4        8          -0.000341536   -0.002839896    0.036248479
      5        8          -0.002147940   -0.018575737   -0.007319759
      6        8           0.018188271   -0.002560513    0.001502946
      7        1          -0.004964429    0.005495587   -0.016421777
      8        1           0.000390173   -0.006153919    0.005782794
      9        1           0.014121116    0.003990489    0.015775596
     10        1           0.000487494   -0.002916678    0.005613679
     11        1          -0.001989938   -0.000623829    0.001133467
     12        1          -0.004354855    0.000204398    0.003540165
 -------------------------------------------------------------------
 Cartesian Forces:  Max     0.036248479 RMS     0.011622544
 FormGI is forming the generalized inverse of G from B-inverse, IUseBI=4.

 GradGradGradGradGradGradGradGradGradGradGradGradGradGradGradGradGradGrad
 Berny optimization.
 Internal  Forces:  Max     0.042919588 RMS     0.012572963
 Search for a saddle point.
 Step number   2 out of a maximum of  100
 All quantities printed in internal units (Hartrees-Bohrs-Radians)
 Swapping is turned off.
 Second derivative matrix not updated -- analytic derivatives used.
 ITU=  0  0
     Eigenvalues ---   -0.62188  -0.00254  -0.00010   0.00150   0.01389
     Eigenvalues ---    0.01821   0.03133   0.03244   0.04186   0.04339
     Eigenvalues ---    0.05044   0.05685   0.07007   0.08443   0.10539
     Eigenvalues ---    0.11625   0.13807   0.14183   0.18393   0.21726
     Eigenvalues ---    0.22402   0.28804   0.30320   0.31110   0.33327
     Eigenvalues ---    0.33940   0.34431   0.39537   0.52513   0.93759
 Eigenvectors required to have negative eigenvalues:
                          A17       A16       R4        R2        R12
   1                   -0.59878  -0.41747  -0.40826   0.33124   0.28141
                          R10       D10       D11       A15       D19
   1                   -0.16297  -0.14791  -0.11409   0.10955   0.10533
 RFO step:  Lambda0=2.638338161D-03 Lambda=-4.56576869D-02.
 Linear search not attempted -- option 19 set.
 Maximum step size (   0.300) exceeded in Quadratic search.
    -- Step size scaled by   0.321
 Iteration  1 RMS(Cart)=  0.08364450 RMS(Int)=  0.00705718
 Iteration  2 RMS(Cart)=  0.01143289 RMS(Int)=  0.00065810
 Iteration  3 RMS(Cart)=  0.00006163 RMS(Int)=  0.00065737
 Iteration  4 RMS(Cart)=  0.00000003 RMS(Int)=  0.00065737
 Variable       Old X    -DE/DX   Delta X   Delta X   Delta X     New X
                                 (Linear)    (Quad)   (Total)
    R1        2.84869   0.00384   0.00000   0.01007   0.01007   2.85876
    R2        2.52453  -0.01198   0.00000  -0.02189  -0.02251   2.50202
    R3        2.06416   0.00198   0.00000   0.00343   0.00343   2.06759
    R4        2.91251  -0.01931   0.00000  -0.22952  -0.23032   2.68219
    R5        2.85128   0.00614   0.00000   0.00182   0.00182   2.85310
    R6        2.07026   0.00110   0.00000   0.00151   0.00151   2.07177
    R7        2.07329   0.00451   0.00000   0.00251   0.00251   2.07579
    R8        2.26885   0.01811   0.00000   0.00626   0.00626   2.27511
    R9        2.09986   0.00189   0.00000   0.00041   0.00041   2.10027
   R10        3.36665   0.02612   0.00000  -0.06819  -0.06707   3.29959
   R11        1.82880   0.01528   0.00000   0.00684   0.00684   1.83564
   R12        2.71139  -0.01321   0.00000   0.06490   0.06490   2.77629
    A1        2.02679   0.00234   0.00000   0.02132   0.02267   2.04946
    A2        2.08914   0.00269   0.00000  -0.00139  -0.00300   2.08615
    A3        2.10859  -0.03285   0.00000  -0.09685  -0.09742   2.01117
    A4        1.96997  -0.00685   0.00000   0.00679   0.00619   1.97616
    A5        1.79796   0.01760   0.00000   0.03116   0.02902   1.82698
    A6        1.97893   0.00213   0.00000   0.00542   0.00541   1.98434
    A7        1.94014   0.00087   0.00000   0.00131   0.00131   1.94145
    A8        1.89034   0.00002   0.00000  -0.00187  -0.00189   1.88845
    A9        1.91019  -0.00170   0.00000  -0.00262  -0.00263   1.90756
   A10        1.86513  -0.00010   0.00000   0.00407   0.00406   1.86919
   A11        1.87462  -0.00143   0.00000  -0.00689  -0.00689   1.86773
   A12        2.19100  -0.00137   0.00000  -0.00228  -0.00231   2.18869
   A13        1.98197   0.00304   0.00000   0.00398   0.00395   1.98592
   A14        2.10640  -0.00119   0.00000  -0.00053  -0.00056   2.10585
   A15        2.15141  -0.00697   0.00000   0.03589   0.03589   2.18731
   A16        1.81454   0.04292   0.00000   0.10533   0.10459   1.91914
   A17        1.17041   0.03169   0.00000   0.06328   0.06428   1.23468
    D1        2.94781   0.00546   0.00000  -0.01739  -0.01801   2.92980
    D2        0.78706   0.00543   0.00000  -0.01903  -0.01966   0.76740
    D3       -1.26849   0.00666   0.00000  -0.01026  -0.01088  -1.27938
    D4       -0.87295   0.00011   0.00000   0.02564   0.02520  -0.84775
    D5       -3.03369   0.00008   0.00000   0.02399   0.02355  -3.01014
    D6        1.19394   0.00131   0.00000   0.03277   0.03233   1.22627
    D7        1.39505  -0.00739   0.00000  -0.04345  -0.04238   1.35267
    D8       -0.76570  -0.00741   0.00000  -0.04509  -0.04403  -0.80973
    D9       -2.82125  -0.00619   0.00000  -0.03632  -0.03525  -2.85650
   D10        2.62838  -0.00912   0.00000   0.03210   0.03147   2.65985
   D11       -1.26575  -0.01738   0.00000  -0.02957  -0.02994  -1.29569
   D12        0.24631   0.00208   0.00000  -0.06011  -0.06010   0.18621
   D13       -2.80155  -0.00375   0.00000  -0.07447  -0.07446  -2.87601
   D14        2.42332   0.00347   0.00000  -0.05645  -0.05645   2.36687
   D15       -0.62454  -0.00237   0.00000  -0.07081  -0.07081  -0.69535
   D16       -1.83508   0.00086   0.00000  -0.06370  -0.06370  -1.89879
   D17        1.40024  -0.00497   0.00000  -0.07805  -0.07806   1.32217
   D18       -2.15606   0.00773   0.00000  -0.02637  -0.02725  -2.18330
   D19       -1.64523  -0.02110   0.00000  -0.04302  -0.04214  -1.68737
         Item               Value     Threshold  Converged?
 Maximum Force            0.042920     0.000450     NO 
 RMS     Force            0.012573     0.000300     NO 
 Maximum Displacement     0.324024     0.001800     NO 
 RMS     Displacement     0.089842     0.001200     NO 
 Predicted change in Energy=-1.334140D-02
 GradGradGradGradGradGradGradGradGradGradGradGradGradGradGradGradGradGrad

                          Input orientation:                          
 ---------------------------------------------------------------------
 Center     Atomic      Atomic             Coordinates (Angstroms)
 Number     Number       Type             X           Y           Z
 ---------------------------------------------------------------------
      1          6           0        1.266127    1.635164   -1.326131
      2          6           0        0.387185    0.463543   -0.947574
      3          6           0        1.078006   -0.874264   -1.059484
      4          8           0        0.678068    2.809472   -1.494054
      5          8           0        1.708135    3.250201   -2.997295
      6          8           0        2.258049   -1.037470   -1.233634
      7          1           0        1.203780    3.804700   -3.615144
      8          1           0        2.272393    1.713013   -0.903676
      9          1           0        1.445224    1.831540   -2.720376
     10          1           0        0.382001   -1.740657   -1.045985
     11          1           0       -0.532181    0.447581   -1.544617
     12          1           0        0.086746    0.585052    0.101993
 ---------------------------------------------------------------------
                    Distance matrix (angstroms):
                    1          2          3          4          5
     1  C    0.000000
     2  C    1.512793   0.000000
     3  C    2.530557   1.509796   0.000000
     4  O    1.324013   2.426239   3.730779   0.000000
     5  O    2.365694   3.702936   4.600368   1.874837   0.000000
     6  O    2.852269   2.415575   1.203937   4.166908   4.668729
     7  H    3.154418   4.352710   5.332908   2.401223   0.971380
     8  H    1.094120   2.262104   2.853916   2.023027   2.657927
     9  H    1.419352   2.476629   3.196058   1.746065   1.469152
    10  H    3.500905   2.206402   1.111415   4.581713   5.520409
    11  H    2.166103   1.096334   2.139003   2.654390   3.870913
    12  H    2.129134   1.098463   2.112162   2.800905   4.397444
                    6          7          8          9         10
     6  O    0.000000
     7  H    5.498152   0.000000
     8  H    2.770241   3.587358   0.000000
     9  H    3.332012   2.179969   1.999664   0.000000
    10  H    2.012272   6.166594   3.939755   4.085905   0.000000
    11  H    3.176078   4.309395   3.142890   2.684750   2.423376
    12  H    3.021760   5.042916   2.657201   3.371196   2.610355
                   11         12
    11  H    0.000000
    12  H    1.764453   0.000000
 Stoichiometry    C3H6O3
 Framework group  C1[X(C3H6O3)]
 Deg. of freedom    30
 Full point group                 C1      NOp   1
 Largest Abelian subgroup         C1      NOp   1
 Largest concise Abelian subgroup C1      NOp   1
                         Standard orientation:                         
 ---------------------------------------------------------------------
 Center     Atomic      Atomic             Coordinates (Angstroms)
 Number     Number       Type             X           Y           Z
 ---------------------------------------------------------------------
      1          6           0       -0.393649    0.170799   -0.369127
      2          6           0        0.812795    0.914029    0.160631
      3          6           0        2.054908    0.061576    0.260441
      4          8           0       -1.572239    0.763847   -0.258529
      5          8           0       -2.460977   -0.815213    0.222856
      6          8           0        2.182688   -1.041881   -0.203802
      7          1           0       -3.203298   -0.628989    0.821069
      8          1           0       -0.298746   -0.434861   -1.275365
      9          1           0       -1.038896   -0.679887    0.566046
     10          1           0        2.856929    0.509571    0.885985
     11          1           0        0.603699    1.365365    1.137628
     12          1           0        1.040218    1.736353   -0.531238
 ---------------------------------------------------------------------
 Rotational constants (GHZ):           7.8934183           1.6584117           1.4512832
 Standard basis: 6-31+G(d) (6D, 7F)
 There are   126 symmetry adapted cartesian basis functions of A   symmetry.
 There are   126 symmetry adapted basis functions of A   symmetry.
   126 basis functions,   216 primitive gaussians,   126 cartesian basis functions
    24 alpha electrons       24 beta electrons
       nuclear repulsion energy       228.5263208315 Hartrees.
 NAtoms=   12 NActive=   12 NUniq=   12 SFac= 1.00D+00 NAtFMM=   60 NAOKFM=F Big=F
 Integral buffers will be    131072 words long.
 Raffenetti 2 integral format.
 Two-electron integral symmetry is turned on.
 One-electron integrals computed using PRISM.
 NBasis=   126 RedAO= T EigKep=  8.41D-05  NBF=   126
 NBsUse=   126 1.00D-06 EigRej= -1.00D+00 NBFU=   126
 Initial guess from the checkpoint file:  "/scratch/bell/zhao922/YARP/paper-example/KHP-network/pp_0/TS-folder/Gau-5572.chk"
 B after Tr=    -0.000000   -0.000000    0.000000
         Rot=    0.999738   -0.022851   -0.001352   -0.000507 Ang=  -2.62 deg.
 ExpMin= 4.38D-02 ExpMax= 5.48D+03 ExpMxC= 8.25D+02 IAcc=3 IRadAn=         5 AccDes= 0.00D+00
 Harris functional with IExCor=  402 and IRadAn=       5 diagonalized for initial guess.
 HarFok:  IExCor=  402 AccDes= 0.00D+00 IRadAn=         5 IDoV= 1 UseB2=F ITyADJ=14
 ICtDFT=  3500011 ScaDFX=  1.000000  1.000000  1.000000  1.000000
 FoFCou: FMM=F IPFlag=           0 FMFlag=      100000 FMFlg1=           0
         NFxFlg=           0 DoJE=T BraDBF=F KetDBF=T FulRan=T
         wScrn=  0.000000 ICntrl=       500 IOpCl=  0 I1Cent=   200000004 NGrid=           0
         NMat0=    1 NMatS0=      1 NMatT0=    0 NMatD0=    1 NMtDS0=    0 NMtDT0=    0
 Petite list used in FoFCou.
 Keep R1 ints in memory in canonical form, NReq=47237537.
 Requested convergence on RMS density matrix=1.00D-08 within 128 cycles.
 Requested convergence on MAX density matrix=1.00D-06.
 Requested convergence on             energy=1.00D-06.
 No special actions if energy rises.
 SCF Done:  E(RB3LYP) =  -343.390374788     A.U. after   14 cycles
            NFock= 14  Conv=0.59D-08     -V/T= 2.0091
 DoSCS=F DFT=T ScalE2(SS,OS)=  1.000000  1.000000
 Range of M.O.s used for correlation:     1   126
 NBasis=   126 NAE=    24 NBE=    24 NFC=     0 NFV=     0
 NROrb=    126 NOA=    24 NOB=    24 NVA=   102 NVB=   102

 **** Warning!!: The largest alpha MO coefficient is  0.39159062D+02

 Symmetrizing basis deriv contribution to polar:
 IMax=3 JMax=2 DiffMx= 0.00D+00
 G2DrvN: will do    13 centers at a time, making    1 passes.
 Calling FoFCou, ICntrl=  3107 FMM=F I1Cent=   0 AccDes= 0.00D+00.
 End of G2Drv F.D. properties file   721 does not exist.
 End of G2Drv F.D. properties file   722 does not exist.
 End of G2Drv F.D. properties file   788 does not exist.
          IDoAtm=111111111111
          Differentiating once with respect to electric field.
                with respect to dipole field.
          Differentiating once with respect to nuclear coordinates.
 Keep R1 ints in memory in canonical form, NReq=47193559.
          There are    39 degrees of freedom in the 1st order CPHF.  IDoFFX=6 NUNeed=     3.
     36 vectors produced by pass  0 Test12= 6.28D-15 2.56D-09 XBig12= 1.25D+02 6.00D+00.
 AX will form    36 AO Fock derivatives at one time.
     36 vectors produced by pass  1 Test12= 6.28D-15 2.56D-09 XBig12= 3.38D+01 1.02D+00.
     36 vectors produced by pass  2 Test12= 6.28D-15 2.56D-09 XBig12= 3.47D-01 1.09D-01.
     36 vectors produced by pass  3 Test12= 6.28D-15 2.56D-09 XBig12= 1.44D-03 5.25D-03.
     36 vectors produced by pass  4 Test12= 6.28D-15 2.56D-09 XBig12= 2.23D-06 1.83D-04.
     26 vectors produced by pass  5 Test12= 6.28D-15 2.56D-09 XBig12= 2.04D-09 4.78D-06.
      3 vectors produced by pass  6 Test12= 6.28D-15 2.56D-09 XBig12= 1.67D-12 2.41D-07.
      3 vectors produced by pass  7 Test12= 6.28D-15 2.56D-09 XBig12= 1.43D-15 6.59D-09.
 InvSVY:  IOpt=1 It=  1 EMax= 6.22D-15
 Solved reduced A of dimension   212 with    39 vectors.
 Isotropic polarizability for W=    0.000000       60.21 Bohr**3.
 End of Minotr F.D. properties file   721 does not exist.
 End of Minotr F.D. properties file   722 does not exist.
 End of Minotr F.D. properties file   788 does not exist.
 Calling FoFJK, ICntrl=    100127 FMM=F ISym2X=0 I1Cent= 0 IOpClX= 0 NMat=1 NMatS=1 NMatT=0.
 ***** Axes restored to original set *****
 -------------------------------------------------------------------
 Center     Atomic                   Forces (Hartrees/Bohr)
 Number     Number              X              Y              Z
 -------------------------------------------------------------------
      1        6          -0.003498294    0.018775173   -0.021768191
      2        6           0.003068450    0.001265009   -0.005806904
      3        6          -0.014050490   -0.001029803   -0.008978863
      4        8           0.000021561    0.000924630    0.026270150
      5        8          -0.006759755   -0.013140346   -0.001660542
      6        8           0.012749190   -0.001641142    0.000774929
      7        1          -0.002439415    0.002207137   -0.013039683
      8        1           0.000392078   -0.006556618    0.004189187
      9        1           0.015057966    0.002055486    0.011931797
     10        1           0.000728262   -0.002176416    0.004747860
     11        1          -0.001543852   -0.000347574    0.000884593
     12        1          -0.003725701   -0.000335538    0.002455668
 -------------------------------------------------------------------
 Cartesian Forces:  Max     0.026270150 RMS     0.008985122
 FormGI is forming the generalized inverse of G from B-inverse, IUseBI=4.

 GradGradGradGradGradGradGradGradGradGradGradGradGradGradGradGradGradGrad
 Berny optimization.
 Internal  Forces:  Max     0.030709692 RMS     0.009362195
 Search for a saddle point.
 Step number   3 out of a maximum of  100
 All quantities printed in internal units (Hartrees-Bohrs-Radians)
 Swapping is turned off.
 Second derivative matrix not updated -- analytic derivatives used.
 ITU=  0  0  0
     Eigenvalues ---   -0.46728   0.00027   0.00137   0.00392   0.01390
     Eigenvalues ---    0.02043   0.03160   0.03470   0.04165   0.04478
     Eigenvalues ---    0.04988   0.05616   0.07159   0.08626   0.11230
     Eigenvalues ---    0.11754   0.13950   0.14171   0.18180   0.20588
     Eigenvalues ---    0.22395   0.28463   0.30007   0.30751   0.33123
     Eigenvalues ---    0.33652   0.34209   0.40044   0.51275   0.91816
 Eigenvectors required to have negative eigenvalues:
                          A17       R4        A16       R2        R12
   1                    0.58291   0.43962   0.39993  -0.31766  -0.30322
                          R10       D10       A15       D19       D11
   1                    0.15753   0.14378  -0.12502  -0.11501   0.10258
 RFO step:  Lambda0=1.426154759D-03 Lambda=-3.10806084D-02.
 Linear search not attempted -- option 19 set.
 Maximum step size (   0.300) exceeded in Quadratic search.
    -- Step size scaled by   0.834
 Iteration  1 RMS(Cart)=  0.15116084 RMS(Int)=  0.01705918
 Iteration  2 RMS(Cart)=  0.03300705 RMS(Int)=  0.00400609
 Iteration  3 RMS(Cart)=  0.00068340 RMS(Int)=  0.00398619
 Iteration  4 RMS(Cart)=  0.00000545 RMS(Int)=  0.00398619
 Iteration  5 RMS(Cart)=  0.00000005 RMS(Int)=  0.00398619
 Variable       Old X    -DE/DX   Delta X   Delta X   Delta X     New X
                                 (Linear)    (Quad)   (Total)
    R1        2.85876   0.00343   0.00000   0.02322   0.02322   2.88198
    R2        2.50202  -0.00702   0.00000  -0.01354  -0.00666   2.49536
    R3        2.06759   0.00151   0.00000   0.00514   0.00514   2.07272
    R4        2.68219  -0.01688   0.00000  -0.21664  -0.21751   2.46467
    R5        2.85310   0.00429   0.00000   0.00427   0.00427   2.85737
    R6        2.07177   0.00082   0.00000   0.00256   0.00256   2.07433
    R7        2.07579   0.00333   0.00000   0.00676   0.00676   2.08255
    R8        2.27511   0.01261   0.00000   0.01251   0.01251   2.28762
    R9        2.10027   0.00130   0.00000   0.00127   0.00127   2.10154
   R10        3.29959   0.01895   0.00000   0.08820   0.08376   3.38334
   R11        1.83564   0.01082   0.00000   0.01792   0.01792   1.85356
   R12        2.77629  -0.00943   0.00000  -0.05117  -0.05117   2.72512
    A1        2.04946   0.00253   0.00000   0.00369   0.00611   2.05557
    A2        2.08615   0.00108   0.00000  -0.01825  -0.01989   2.06625
    A3        2.01117  -0.02415   0.00000  -0.10614  -0.10790   1.90327
    A4        1.97616  -0.00492   0.00000   0.00501   0.00380   1.97995
    A5        1.82698   0.01205   0.00000   0.03210   0.02826   1.85524
    A6        1.98434   0.00127   0.00000   0.00334   0.00331   1.98765
    A7        1.94145   0.00068   0.00000   0.00151   0.00153   1.94298
    A8        1.88845   0.00040   0.00000   0.01457   0.01454   1.90299
    A9        1.90756  -0.00115   0.00000  -0.00428  -0.00429   1.90327
   A10        1.86919  -0.00007   0.00000  -0.00129  -0.00138   1.86781
   A11        1.86773  -0.00129   0.00000  -0.01491  -0.01492   1.85281
   A12        2.18869  -0.00108   0.00000  -0.00459  -0.00490   2.18379
   A13        1.98592   0.00230   0.00000   0.01180   0.01149   1.99741
   A14        2.10585  -0.00088   0.00000  -0.00403  -0.00434   2.10151
   A15        2.18731  -0.00473   0.00000  -0.01341  -0.01341   2.17390
   A16        1.91914   0.03071   0.00000   0.12701   0.10935   2.02849
   A17        1.23468   0.02291   0.00000   0.00097   0.01922   1.25390
    D1        2.92980   0.00394   0.00000   0.02448   0.02429   2.95409
    D2        0.76740   0.00398   0.00000   0.02644   0.02627   0.79368
    D3       -1.27938   0.00491   0.00000   0.03485   0.03472  -1.24466
    D4       -0.84775   0.00006   0.00000   0.01069   0.00966  -0.83808
    D5       -3.01014   0.00009   0.00000   0.01266   0.01164  -2.99850
    D6        1.22627   0.00103   0.00000   0.02107   0.02008   1.24635
    D7        1.35267  -0.00575   0.00000  -0.06949  -0.06834   1.28433
    D8       -0.80973  -0.00572   0.00000  -0.06753  -0.06636  -0.87609
    D9       -2.85650  -0.00478   0.00000  -0.05912  -0.05792  -2.91442
   D10        2.65985  -0.00947   0.00000  -0.20960  -0.21121   2.44864
   D11       -1.29569  -0.01664   0.00000  -0.29130  -0.29294  -1.58863
   D12        0.18621   0.00174   0.00000   0.01087   0.01087   0.19709
   D13       -2.87601  -0.00305   0.00000  -0.03530  -0.03530  -2.91132
   D14        2.36687   0.00267   0.00000   0.01197   0.01196   2.37883
   D15       -0.69535  -0.00213   0.00000  -0.03420  -0.03422  -0.72957
   D16       -1.89879   0.00053   0.00000  -0.00842  -0.00839  -1.90718
   D17        1.32217  -0.00427   0.00000  -0.05459  -0.05457   1.26760
   D18       -2.18330   0.00488   0.00000   0.04686   0.04899  -2.13431
   D19       -1.68737  -0.01620   0.00000  -0.14721  -0.14934  -1.83671
         Item               Value     Threshold  Converged?
 Maximum Force            0.030710     0.000450     NO 
 RMS     Force            0.009362     0.000300     NO 
 Maximum Displacement     0.608014     0.001800     NO 
 RMS     Displacement     0.176367     0.001200     NO 
 Predicted change in Energy=-1.839203D-02
 GradGradGradGradGradGradGradGradGradGradGradGradGradGradGradGradGradGrad

                          Input orientation:                          
 ---------------------------------------------------------------------
 Center     Atomic      Atomic             Coordinates (Angstroms)
 Number     Number       Type             X           Y           Z
 ---------------------------------------------------------------------
      1          6           0        1.335061    1.702521   -1.230968
      2          6           0        0.403870    0.520928   -0.980793
      3          6           0        1.065627   -0.827507   -1.154318
      4          8           0        0.795001    2.904593   -1.314924
      5          8           0        1.589554    3.150557   -3.042390
      6          8           0        2.256869   -1.008916   -1.270424
      7          1           0        1.006004    3.482952   -3.757282
      8          1           0        2.321421    1.699827   -0.751239
      9          1           0        1.551699    1.809859   -2.512612
     10          1           0        0.358348   -1.684287   -1.203505
     11          1           0       -0.484344    0.569532   -1.623937
     12          1           0        0.034422    0.567816    0.056416
 ---------------------------------------------------------------------
                    Distance matrix (angstroms):
                    1          2          3          4          5
     1  C    0.000000
     2  C    1.525079   0.000000
     3  C    2.545489   1.512055   0.000000
     4  O    1.320489   2.438542   3.745345   0.000000
     5  O    2.332986   3.545557   4.434446   1.917277   0.000000
     6  O    2.864119   2.420313   1.210557   4.177870   4.570163
     7  H    3.108130   4.104271   5.035776   2.518756   0.980860
     8  H    1.096838   2.262631   2.850773   2.024639   2.808848
     9  H    1.304248   2.307666   3.006149   1.790389   1.442071
    10  H    3.524938   2.216901   1.112086   4.610955   5.317244
    11  H    2.179064   1.097689   2.138848   2.680434   3.602048
    12  H    2.153271   1.102040   2.115699   2.814175   4.323377
                    6          7          8          9         10
     6  O    0.000000
     7  H    5.284506   0.000000
     8  H    2.758806   3.734455   0.000000
     9  H    3.160030   2.155511   1.925361   0.000000
    10  H    2.016181   5.800138   3.938328   3.917513   0.000000
    11  H    3.182879   3.906445   3.148251   2.544332   2.442661
    12  H    3.030818   4.897579   2.676587   3.231827   2.600826
                   11         12
    11  H    0.000000
    12  H    1.758609   0.000000
 Stoichiometry    C3H6O3
 Framework group  C1[X(C3H6O3)]
 Deg. of freedom    30
 Full point group                 C1      NOp   1
 Largest Abelian subgroup         C1      NOp   1
 Largest concise Abelian subgroup C1      NOp   1
                         Standard orientation:                         
 ---------------------------------------------------------------------
 Center     Atomic      Atomic             Coordinates (Angstroms)
 Number     Number       Type             X           Y           Z
 ---------------------------------------------------------------------
      1          6           0       -0.418400    0.220362   -0.451977
      2          6           0        0.740014    0.880886    0.288058
      3          6           0        1.997969    0.042899    0.328524
      4          8           0       -1.610948    0.778405   -0.351442
      5          8           0       -2.340286   -0.874884    0.289381
      6          8           0        2.187960   -0.959997   -0.322284
      7          1           0       -2.902095   -0.831819    1.092252
      8          1           0       -0.224266   -0.219736   -1.437716
      9          1           0       -0.904749   -0.737780    0.287273
     10          1           0        2.765619    0.399768    1.049699
     11          1           0        0.456392    1.151094    1.313469
     12          1           0        0.997792    1.825402   -0.217838
 ---------------------------------------------------------------------
 Rotational constants (GHZ):           7.3817608           1.7036178           1.5164158
 Standard basis: 6-31+G(d) (6D, 7F)
 There are   126 symmetry adapted cartesian basis functions of A   symmetry.
 There are   126 symmetry adapted basis functions of A   symmetry.
   126 basis functions,   216 primitive gaussians,   126 cartesian basis functions
    24 alpha electrons       24 beta electrons
       nuclear repulsion energy       228.9711388800 Hartrees.
 NAtoms=   12 NActive=   12 NUniq=   12 SFac= 1.00D+00 NAtFMM=   60 NAOKFM=F Big=F
 Integral buffers will be    131072 words long.
 Raffenetti 2 integral format.
 Two-electron integral symmetry is turned on.
 One-electron integrals computed using PRISM.
 NBasis=   126 RedAO= T EigKep=  9.30D-05  NBF=   126
 NBsUse=   126 1.00D-06 EigRej= -1.00D+00 NBFU=   126
 Initial guess from the checkpoint file:  "/scratch/bell/zhao922/YARP/paper-example/KHP-network/pp_0/TS-folder/Gau-5572.chk"
 B after Tr=     0.000000    0.000000   -0.000000
         Rot=    0.999234   -0.037273   -0.001152   -0.011893 Ang=  -4.49 deg.
 ExpMin= 4.38D-02 ExpMax= 5.48D+03 ExpMxC= 8.25D+02 IAcc=3 IRadAn=         5 AccDes= 0.00D+00
 Harris functional with IExCor=  402 and IRadAn=       5 diagonalized for initial guess.
 HarFok:  IExCor=  402 AccDes= 0.00D+00 IRadAn=         5 IDoV= 1 UseB2=F ITyADJ=14
 ICtDFT=  3500011 ScaDFX=  1.000000  1.000000  1.000000  1.000000
 FoFCou: FMM=F IPFlag=           0 FMFlag=      100000 FMFlg1=           0
         NFxFlg=           0 DoJE=T BraDBF=F KetDBF=T FulRan=T
         wScrn=  0.000000 ICntrl=       500 IOpCl=  0 I1Cent=   200000004 NGrid=           0
         NMat0=    1 NMatS0=      1 NMatT0=    0 NMatD0=    1 NMtDS0=    0 NMtDT0=    0
 Petite list used in FoFCou.
 Keep R1 ints in memory in canonical form, NReq=47237537.
 Requested convergence on RMS density matrix=1.00D-08 within 128 cycles.
 Requested convergence on MAX density matrix=1.00D-06.
 Requested convergence on             energy=1.00D-06.
 No special actions if energy rises.
 SCF Done:  E(RB3LYP) =  -343.407955596     A.U. after   14 cycles
            NFock= 14  Conv=0.62D-08     -V/T= 2.0092
 DoSCS=F DFT=T ScalE2(SS,OS)=  1.000000  1.000000
 Range of M.O.s used for correlation:     1   126
 NBasis=   126 NAE=    24 NBE=    24 NFC=     0 NFV=     0
 NROrb=    126 NOA=    24 NOB=    24 NVA=   102 NVB=   102

 **** Warning!!: The largest alpha MO coefficient is  0.37638607D+02

 Symmetrizing basis deriv contribution to polar:
 IMax=3 JMax=2 DiffMx= 0.00D+00
 G2DrvN: will do    13 centers at a time, making    1 passes.
 Calling FoFCou, ICntrl=  3107 FMM=F I1Cent=   0 AccDes= 0.00D+00.
 End of G2Drv F.D. properties file   721 does not exist.
 End of G2Drv F.D. properties file   722 does not exist.
 End of G2Drv F.D. properties file   788 does not exist.
          IDoAtm=111111111111
          Differentiating once with respect to electric field.
                with respect to dipole field.
          Differentiating once with respect to nuclear coordinates.
 Keep R1 ints in memory in canonical form, NReq=47193559.
          There are    39 degrees of freedom in the 1st order CPHF.  IDoFFX=6 NUNeed=     3.
     36 vectors produced by pass  0 Test12= 6.28D-15 2.56D-09 XBig12= 1.00D+02 5.76D+00.
 AX will form    36 AO Fock derivatives at one time.
     36 vectors produced by pass  1 Test12= 6.28D-15 2.56D-09 XBig12= 4.07D+01 1.01D+00.
     36 vectors produced by pass  2 Test12= 6.28D-15 2.56D-09 XBig12= 3.76D-01 1.14D-01.
     36 vectors produced by pass  3 Test12= 6.28D-15 2.56D-09 XBig12= 1.31D-03 5.14D-03.
     36 vectors produced by pass  4 Test12= 6.28D-15 2.56D-09 XBig12= 2.00D-06 2.10D-04.
     26 vectors produced by pass  5 Test12= 6.28D-15 2.56D-09 XBig12= 1.83D-09 5.42D-06.
      4 vectors produced by pass  6 Test12= 6.28D-15 2.56D-09 XBig12= 1.61D-12 2.62D-07.
      2 vectors produced by pass  7 Test12= 6.28D-15 2.56D-09 XBig12= 1.58D-15 7.82D-09.
 InvSVY:  IOpt=1 It=  1 EMax= 2.66D-15
 Solved reduced A of dimension   212 with    39 vectors.
 Isotropic polarizability for W=    0.000000       58.99 Bohr**3.
 End of Minotr F.D. properties file   721 does not exist.
 End of Minotr F.D. properties file   722 does not exist.
 End of Minotr F.D. properties file   788 does not exist.
 Calling FoFJK, ICntrl=    100127 FMM=F ISym2X=0 I1Cent= 0 IOpClX= 0 NMat=1 NMatS=1 NMatT=0.
 ***** Axes restored to original set *****
 -------------------------------------------------------------------
 Center     Atomic                   Forces (Hartrees/Bohr)
 Number     Number              X              Y              Z
 -------------------------------------------------------------------
      1        6          -0.006588397    0.013122238    0.002162922
      2        6           0.001356443    0.000281775   -0.001304708
      3        6          -0.003816822   -0.000228847   -0.004979377
      4        8           0.002450498   -0.007116587    0.011861556
      5        8          -0.006622701   -0.004883850   -0.005063661
      6        8           0.002798208   -0.000317227    0.000469525
      7        1           0.001518737   -0.000902308   -0.004965903
      8        1           0.000576268   -0.005419318   -0.000042651
      9        1           0.010225565    0.006124266   -0.001455793
     10        1           0.000450297   -0.000840486    0.002739221
     11        1          -0.000555835    0.000408209    0.000325162
     12        1          -0.001792262   -0.000227865    0.000253707
 -------------------------------------------------------------------
 Cartesian Forces:  Max     0.013122238 RMS     0.004643275
 FormGI is forming the generalized inverse of G from B-inverse, IUseBI=4.

 GradGradGradGradGradGradGradGradGradGradGradGradGradGradGradGradGradGrad
 Berny optimization.
 Internal  Forces:  Max     0.017786711 RMS     0.004666256
 Search for a saddle point.
 Step number   4 out of a maximum of  100
 All quantities printed in internal units (Hartrees-Bohrs-Radians)
 Swapping is turned off.
 Second derivative matrix not updated -- analytic derivatives used.
 ITU=  0  0  0  0
     Eigenvalues ---   -0.38570   0.00021   0.00119   0.00553   0.01796
     Eigenvalues ---    0.02721   0.03123   0.03720   0.04131   0.04946
     Eigenvalues ---    0.06286   0.06388   0.07228   0.08698   0.10895
     Eigenvalues ---    0.12012   0.13691   0.16982   0.18467   0.20519
     Eigenvalues ---    0.22303   0.27574   0.28952   0.30462   0.32496
     Eigenvalues ---    0.33179   0.33836   0.39234   0.47993   0.88049
 Eigenvectors required to have negative eigenvalues:
                          A17       R4        A16       R12       R2
   1                    0.57484   0.39705   0.39147  -0.37235  -0.30284
                          R10       A15       D19       A3        D10
   1                    0.21052  -0.15202  -0.12128  -0.10788   0.08270
 RFO step:  Lambda0=1.452720379D-03 Lambda=-9.13814219D-03.
 Linear search not attempted -- option 19 set.
 Iteration  1 RMS(Cart)=  0.07533528 RMS(Int)=  0.01912926
 Iteration  2 RMS(Cart)=  0.03500926 RMS(Int)=  0.00280786
 Iteration  3 RMS(Cart)=  0.00103153 RMS(Int)=  0.00270941
 Iteration  4 RMS(Cart)=  0.00000311 RMS(Int)=  0.00270941
 Iteration  5 RMS(Cart)=  0.00000002 RMS(Int)=  0.00270941
 Variable       Old X    -DE/DX   Delta X   Delta X   Delta X     New X
                                 (Linear)    (Quad)   (Total)
    R1        2.88198   0.00126   0.00000   0.01179   0.01179   2.89377
    R2        2.49536  -0.00927   0.00000  -0.01505  -0.01030   2.48506
    R3        2.07272   0.00051   0.00000   0.00484   0.00484   2.07757
    R4        2.46467   0.00264   0.00000  -0.08516  -0.08556   2.37911
    R5        2.85737   0.00119   0.00000  -0.00128  -0.00128   2.85609
    R6        2.07433   0.00028   0.00000   0.00201   0.00201   2.07634
    R7        2.08255   0.00083   0.00000   0.00169   0.00169   2.08424
    R8        2.28762   0.00276   0.00000   0.00447   0.00447   2.29209
    R9        2.10154   0.00024   0.00000  -0.00007  -0.00007   2.10147
   R10        3.38334   0.00770   0.00000   0.08145   0.07831   3.46166
   R11        1.85356   0.00241   0.00000   0.00712   0.00712   1.86068
   R12        2.72512  -0.00183   0.00000   0.06684   0.06684   2.79196
    A1        2.05557   0.00019   0.00000  -0.01284  -0.01185   2.04372
    A2        2.06625   0.00004   0.00000  -0.01568  -0.01690   2.04936
    A3        1.90327  -0.00755   0.00000  -0.03420  -0.03467   1.86860
    A4        1.97995  -0.00050   0.00000   0.02674   0.02683   2.00679
    A5        1.85524   0.00225   0.00000  -0.03009  -0.03165   1.82359
    A6        1.98765   0.00066   0.00000   0.00687   0.00683   1.99448
    A7        1.94298   0.00001   0.00000  -0.00751  -0.00750   1.93548
    A8        1.90299   0.00007   0.00000   0.00821   0.00814   1.91114
    A9        1.90327  -0.00032   0.00000  -0.00059  -0.00057   1.90270
   A10        1.86781   0.00009   0.00000   0.00466   0.00456   1.87238
   A11        1.85281  -0.00060   0.00000  -0.01250  -0.01248   1.84033
   A12        2.18379  -0.00064   0.00000  -0.00432  -0.00448   2.17930
   A13        1.99741   0.00097   0.00000   0.00723   0.00706   2.00447
   A14        2.10151  -0.00027   0.00000  -0.00194  -0.00210   2.09941
   A15        2.17390  -0.00077   0.00000   0.12339   0.12339   2.29729
   A16        2.02849   0.01511   0.00000   0.01912   0.00668   2.03517
   A17        1.25390   0.01779   0.00000  -0.02682  -0.01435   1.23955
    D1        2.95409   0.00112   0.00000  -0.00420  -0.00447   2.94962
    D2        0.79368   0.00102   0.00000  -0.00270  -0.00295   0.79073
    D3       -1.24466   0.00170   0.00000   0.01193   0.01171  -1.23295
    D4       -0.83808   0.00050   0.00000   0.00272   0.00236  -0.83573
    D5       -2.99850   0.00040   0.00000   0.00421   0.00388  -2.99462
    D6        1.24635   0.00109   0.00000   0.01884   0.01853   1.26488
    D7        1.28433  -0.00282   0.00000  -0.07860  -0.07804   1.20629
    D8       -0.87609  -0.00291   0.00000  -0.07710  -0.07652  -0.95261
    D9       -2.91442  -0.00223   0.00000  -0.06247  -0.06186  -2.97629
   D10        2.44864  -0.00678   0.00000  -0.25353  -0.25471   2.19393
   D11       -1.58863  -0.01012   0.00000  -0.31562  -0.31501  -1.90365
   D12        0.19709   0.00056   0.00000  -0.03919  -0.03918   0.15791
   D13       -2.91132  -0.00171   0.00000  -0.07286  -0.07284  -2.98416
   D14        2.37883   0.00081   0.00000  -0.04451  -0.04451   2.33432
   D15       -0.72957  -0.00145   0.00000  -0.07818  -0.07817  -0.80775
   D16       -1.90718   0.00000   0.00000  -0.05698  -0.05699  -1.96417
   D17        1.26760  -0.00226   0.00000  -0.09064  -0.09066   1.17694
   D18       -2.13431   0.00139   0.00000   0.04938   0.05000  -2.08431
   D19       -1.83671  -0.00852   0.00000  -0.15439  -0.15501  -1.99172
         Item               Value     Threshold  Converged?
 Maximum Force            0.017787     0.000450     NO 
 RMS     Force            0.004666     0.000300     NO 
 Maximum Displacement     0.278958     0.001800     NO 
 RMS     Displacement     0.105476     0.001200     NO 
 Predicted change in Energy=-5.058510D-03
 GradGradGradGradGradGradGradGradGradGradGradGradGradGradGradGradGradGrad

                          Input orientation:                          
 ---------------------------------------------------------------------
[...]
    D7        0.90958   0.00000   0.00000   0.00003   0.00003   0.90961
    D8       -1.19976   0.00000   0.00000   0.00003   0.00003  -1.19973
    D9        3.05642   0.00000   0.00000   0.00003   0.00003   3.05645
   D10        2.01314  -0.00000   0.00000  -0.00009  -0.00009   2.01305
   D11       -2.13277   0.00000   0.00000  -0.00008  -0.00008  -2.13285
   D12       -0.17768   0.00000   0.00000   0.00003   0.00003  -0.17765
   D13        2.97747   0.00000   0.00000   0.00003   0.00003   2.97750
   D14        1.94364   0.00000   0.00000   0.00003   0.00003   1.94367
   D15       -1.18439   0.00000   0.00000   0.00003   0.00003  -1.18437
   D16       -2.34011  -0.00000   0.00000   0.00003   0.00003  -2.34008
   D17        0.81504  -0.00000   0.00000   0.00003   0.00003   0.81506
   D18        2.98971   0.00000   0.00000  -0.00060  -0.00060   2.98911
   D19        2.91871  -0.00000   0.00000  -0.00067  -0.00067   2.91804
         Item               Value     Threshold  Converged?
 Maximum Force            0.000011     0.000450     YES
 RMS     Force            0.000003     0.000300     YES
 Maximum Displacement     0.000233     0.001800     YES
 RMS     Displacement     0.000052     0.001200     YES
 Predicted change in Energy=-7.158981D-10
 Optimization completed.
    -- Stationary point found.
                           ----------------------------
                           !   Optimized Parameters   !
                           ! (Angstroms and Degrees)  !
 --------------------------                            --------------------------
 ! Name  Definition              Value          Derivative Info.                !
 --------------------------------------------------------------------------------
 ! R1    R(1,2)                  1.5303         -DE/DX =    0.0                 !
 ! R2    R(1,4)                  1.3082         -DE/DX =    0.0                 !
 ! R3    R(1,8)                  1.1044         -DE/DX =    0.0                 !
 ! R4    R(1,9)                  1.2377         -DE/DX =    0.0                 !
 ! R5    R(2,3)                  1.5101         -DE/DX =    0.0                 !
 ! R6    R(2,11)                 1.1002         -DE/DX =    0.0                 !
 ! R7    R(2,12)                 1.1008         -DE/DX =    0.0                 !
 ! R8    R(3,6)                  1.2136         -DE/DX =    0.0                 !
 ! R9    R(3,10)                 1.1111         -DE/DX =    0.0                 !
 ! R10   R(4,9)                  1.89           -DE/DX =    0.0                 !
 ! R11   R(5,7)                  0.9885         -DE/DX =    0.0                 !
 ! R12   R(5,9)                  1.5299         -DE/DX =    0.0                 !
 ! A1    A(2,1,4)              117.3212         -DE/DX =    0.0                 !
 ! A2    A(2,1,8)              116.8181         -DE/DX =    0.0                 !
 ! A3    A(2,1,9)              106.8213         -DE/DX =    0.0                 !
 ! A4    A(4,1,8)              114.8538         -DE/DX =    0.0                 !
 ! A5    A(8,1,9)              100.6823         -DE/DX =    0.0                 !
 ! A6    A(1,2,3)              113.5454         -DE/DX =    0.0                 !
 ! A7    A(1,2,11)             109.3567         -DE/DX =    0.0                 !
 ! A8    A(1,2,12)             110.6719         -DE/DX =    0.0                 !
 ! A9    A(3,2,11)             108.1316         -DE/DX =    0.0                 !
 ! A10   A(3,2,12)             109.0377         -DE/DX =    0.0                 !
 ! A11   A(11,2,12)            105.7761         -DE/DX =    0.0                 !
 ! A12   A(2,3,6)              124.1885         -DE/DX =    0.0                 !
 ! A13   A(2,3,10)             115.5486         -DE/DX =    0.0                 !
 ! A14   A(6,3,10)             120.2584         -DE/DX =    0.0                 !
 ! A15   A(7,5,9)              152.9658         -DE/DX =    0.0                 !
 ! A16   A(1,9,5)              112.0245         -DE/DX =    0.0                 !
 ! A17   A(4,9,5)               68.6863         -DE/DX =    0.0                 !
 ! D1    D(4,1,2,3)            158.1075         -DE/DX =    0.0                 !
 ! D2    D(4,1,2,11)            37.2513         -DE/DX =    0.0                 !
 ! D3    D(4,1,2,12)           -78.8875         -DE/DX =    0.0                 !
 ! D4    D(8,1,2,3)            -59.5897         -DE/DX =    0.0                 !
 ! D5    D(8,1,2,11)           179.5542         -DE/DX =    0.0                 !
 ! D6    D(8,1,2,12)            63.4153         -DE/DX =    0.0                 !
 ! D7    D(9,1,2,3)             52.1149         -DE/DX =    0.0                 !
 ! D8    D(9,1,2,11)           -68.7412         -DE/DX =    0.0                 !
 ! D9    D(9,1,2,12)           175.1199         -DE/DX =    0.0                 !
 ! D10   D(2,1,9,5)            115.3443         -DE/DX =    0.0                 !
 ! D11   D(8,1,9,5)           -122.1987         -DE/DX =    0.0                 !
 ! D12   D(1,2,3,6)            -10.1802         -DE/DX =    0.0                 !
 ! D13   D(1,2,3,10)           170.5965         -DE/DX =    0.0                 !
 ! D14   D(11,2,3,6)           111.3625         -DE/DX =    0.0                 !
 ! D15   D(11,2,3,10)          -67.8608         -DE/DX =    0.0                 !
 ! D16   D(12,2,3,6)          -134.0784         -DE/DX =    0.0                 !
 ! D17   D(12,2,3,10)           46.6983         -DE/DX =    0.0                 !
 ! D18   D(7,5,9,1)            171.2977         -DE/DX =    0.0                 !
 ! D19   D(7,5,9,4)            167.2295         -DE/DX =    0.0                 !
 --------------------------------------------------------------------------------
 GradGradGradGradGradGradGradGradGradGradGradGradGradGradGradGradGradGrad


 ----------------------------------------------------------------------

 Electric dipole moment (input orientation):
 (Debye = 10**-18 statcoulomb cm , SI units = C m)
                  (au)            (Debye)         (10**-30 SI)
   Tot        0.842143D+00      0.214051D+01      0.713999D+01
   x         -0.621168D+00     -0.157885D+01     -0.526648D+01
   y         -0.405405D+00     -0.103044D+01     -0.343716D+01
   z          0.398752D+00      0.101353D+01      0.338076D+01

 Dipole polarizability, Alpha (input orientation).
 (esu units = cm**3 , SI units = C**2 m**2 J**-1)
 Alpha(0;0):
               (au)            (10**-24 esu)      (10**-40 SI)
   iso        0.593239D+02      0.879090D+01      0.978120D+01
   aniso      0.312841D+02      0.463582D+01      0.515805D+01
   xx         0.485711D+02      0.719750D+01      0.800830D+01
   yx        -0.421645D+00     -0.624813D-01     -0.695199D-01
   yy         0.661766D+02      0.980635D+01      0.109110D+02
   zx        -0.673940D+01     -0.998676D+00     -0.111118D+01
   zy        -0.138469D+02     -0.205190D+01     -0.228305D+01
   zz         0.632241D+02      0.936885D+01      0.104242D+02

 ----------------------------------------------------------------------

 Dipole orientation:
     6         -0.79419760          1.20041073         -4.42685931
     6         -1.07770392         -0.14884308         -1.88489232
     6         -0.19157962         -2.86110550         -1.92884799
     8         -2.21306788          3.18583988         -4.82204682
     8         -4.13232327          1.13264425         -7.21138060
     8          0.35273788         -4.00824718         -3.83874822
     1         -5.51308747          1.24842560         -8.46418524
     1          1.13418779          1.32958049         -5.21436579
     1         -1.82762716         -0.15284793         -6.03043152
     1         -0.07864520         -3.80725753         -0.05790941
     1         -3.07685873         -0.13048219         -1.31415848
     1         -0.05377279          0.87543255         -0.39158104

 Electric dipole moment (dipole orientation):
 (Debye = 10**-18 statcoulomb cm , SI units = C m)
                  (au)            (Debye)         (10**-30 SI)
   Tot        0.842143D+00      0.214051D+01      0.713999D+01
   x          0.000000D+00      0.000000D+00      0.000000D+00
   y          0.000000D+00      0.000000D+00      0.000000D+00
   z          0.842143D+00      0.214051D+01      0.713999D+01

 Dipole polarizability, Alpha (dipole orientation).
 (esu units = cm**3 , SI units = C**2 m**2 J**-1)
 Alpha(0;0):
               (au)            (10**-24 esu)      (10**-40 SI)
   iso        0.593239D+02      0.879090D+01      0.978120D+01
   aniso      0.312841D+02      0.463582D+01      0.515805D+01
   xx         0.563451D+02      0.834948D+01      0.929005D+01
   yx        -0.647033D+01     -0.958805D+00     -0.106681D+01
   yy         0.549699D+02      0.814570D+01      0.906331D+01
   zx         0.153635D+02      0.227664D+01      0.253311D+01
   zy        -0.274348D+01     -0.406541D+00     -0.452338D+00
   zz         0.666568D+02      0.987752D+01      0.109902D+02

 ----------------------------------------------------------------------
 1\1\GINC-BELL-A103\Freq\RB3LYP\6-31+G(d)\C3H6O3\ZHAO922\23-Dec-2020\0\
 \#N Geom=AllCheck Guess=TCheck SCRF=Check GenChk RB3LYP/6-31+G(d) Freq
 \\pp_14_1 TS\\0,1\C,1.3097343683,1.7643166752,-1.113404643\C,0.3949715
 529,0.5512168922,-0.9308543592\C,1.05377452,-0.760121521,-1.2869258432
 \O,0.7372000375,2.9313275414,-1.26046574\O,1.2910089051,2.8691136431,-
 3.131313871\O,2.1272231735,-0.854566749,-1.8452445208\H,1.304358997,3.
 4159658709,-3.9546701792\H,2.2443184908,1.7766251162,-0.5251264335\H,1
 .7632654722,1.7011122239,-2.2633068247\H,0.4818536113,-1.6730711198,-1
 .0150829416\H,-0.4974363717,0.6689459942,-1.5634882239\H,0.0232592433,
 0.4970104326,0.1039065801\\Version=ES64L-G16RevB.01\State=1-A\HF=-343.
 4165604\RMSD=3.792e-09\RMSF=3.687e-06\ZeroPoint=0.0849748\Thermal=0.09
 20791\Dipole=-0.621168,-0.4054048,0.3987515\DipoleDeriv=0.2010473,0.35
 71303,-0.164161,0.084751,0.1524082,0.0814093,0.1328024,-0.490093,0.483
 3473,-0.1173768,0.1628692,-0.0020503,0.1451798,-0.1980991,-0.1019331,0
 .0330878,0.1022321,0.0495829,0.8972487,-0.1829911,-0.3398137,-0.143943
 7,0.9658245,0.0409138,-0.3691794,0.0882581,0.3058484,-0.2439611,0.0014
 752,0.1400032,0.0106384,-0.0455524,-0.3454991,0.08928,-0.4557899,0.052
 7569,-0.5325585,-0.1101155,-0.0318426,-0.0941619,-0.554961,0.0516088,-
 0.0316632,0.1985775,-0.6338338,-0.8397443,0.1975942,0.2405583,0.086432
 9,-0.6384542,-0.0029505,0.2634401,-0.0592936,-0.4292974,0.3833559,-0.0
 697955,0.0770054,0.0075885,0.3920024,0.0232532,0.0058616,0.2083541,0.1
 104799,-0.0252964,-0.081241,-0.0144433,-0.0172615,-0.0163698,0.0643374
 ,-0.1341182,0.1079739,-0.0449567,0.213892,-0.0613966,0.0242373,0.04358
 56,0.1934386,0.0643577,-0.0512338,0.2679989,0.0682317,-0.0482888,-0.11
 74685,0.0614039,-0.124062,-0.2330414,0.0768686,0.0613161,0.040002,0.03
 76825,0.0302929,-0.0397307,-0.0463086,0.015475,0.0564194,-0.0229691,-0
 .0738973,-0.0120733,0.0524497,0.0813892,-0.05633,0.0554114,-0.0142222,
 -0.073615,0.070603,0.0743038,0.0038533,-0.0522914\Polar=48.5711199,-0.
 4216449,66.1765593,-6.739397,-13.8469362,63.224123\Quadrupole=-1.21081
 96,-2.5783345,3.7891541,4.5363965,0.205952,-4.225901\PG=C01 [X(C3H6O3)
 ]\NImag=1\\0.46341716,0.00153815,0.51220296,0.15817431,-0.12265503,0.3
 1841818,-0.12702184,-0.05167651,-0.00336846,0.52034621,-0.05108250,-0.
 10532433,0.01219467,-0.00372663,0.46046905,-0.00269258,0.03034611,-0.0
 6425714,0.00046056,-0.01687006,0.52963552,0.01348593,-0.00830055,-0.00
 339319,-0.09110301,0.01910553,0.00294967,0.81066845,0.00424238,-0.0325
 7583,0.00199715,0.02220604,-0.18445288,-0.01855199,0.01270194,0.548832
 24,-0.00414071,-0.00128682,-0.00054457,0.00471470,-0.01290248,-0.09006
 559,-0.31305831,0.00136340,0.36864415,-0.12032214,0.12068248,-0.042739
 14,0.01668046,-0.00987047,0.00376011,-0.00226495,-0.00093649,0.0013560
 5,0.15589376,0.08216361,-0.28555448,0.09119012,0.01474756,-0.05926266,
 -0.01284009,-0.00992386,-0.00462614,0.00551029,-0.17127161,0.38052198,
 0.01515985,-0.00516087,-0.09778295,-0.00131401,0.01600729,0.01184439,0
 .00285233,0.00025904,-0.00079083,-0.01107388,0.01779977,0.06313939,-0.
 00084278,0.00206565,-0.01952441,0.00067557,0.00026423,0.00258034,-0.00
 147979,0.00041243,0.00059694,-0.01910070,0.01755457,0.03464837,0.05565
 397,-0.00650643,-0.02152060,0.05151121,0.00254893,0.00189007,0.0026708
 4,-0.00119866,0.00040469,0.00031304,0.02199745,-0.02437194,-0.04533534
 ,-0.05930752,0.24730015,-0.00238291,0.01979903,-0.03703218,-0.00131410
 ,-0.00337669,-0.00126998,0.00130795,-0.00057085,-0.00050683,0.01803654
 ,-0.01510318,-0.03971377,-0.03625857,-0.18747714,0.38610187,-0.0017546
 4,-0.00490111,-0.00102742,-0.02938381,0.02183447,0.02718487,-0.6109365
 5,0.03964589,0.28555667,0.00108965,0.00106503,-0.00042307,0.00119418,0
 .00095963,-0.00113401,0.67380869,0.00232071,0.00062024,-0.00289948,0.0
 3730290,0.00740169,-0.01948931,0.03626227,-0.11048596,-0.01991775,0.00
 036303,0.00345181,-0.00224004,-0.00011729,-0.00088007,0.00136091,-0.05
 331499,0.08962773,-0.00102756,0.00478255,-0.00139403,0.02604848,-0.011
 54834,0.01184182,0.28645388,-0.02226572,-0.21133042,0.00016603,-0.0018
 6612,0.00110710,-0.00044766,0.00032099,0.00054724,-0.33944702,0.030031
 07,0.19828883,0.01797793,-0.01756252,-0.01260071,-0.00026969,0.0017205
 2,0.00263835,0.00073869,0.00034617,-0.00034931,0.00013593,0.00973692,-
 0.02417301,-0.02475243,0.02463761,0.01998544,-0.00036538,-0.00055554,0
 .00024625,0.00824180,-0.02055192,0.02627444,0.01912864,0.00071058,-0.0
 0227601,-0.00389419,-0.00090812,-0.00047770,0.00053187,-0.00053651,-0.
 01700626,0.03609020,0.02457790,-0.17646004,0.17991254,0.00027450,0.000
 77045,-0.00047547,-0.00287986,0.15009381,-0.01178915,0.01755596,0.0046
 1381,0.00086490,-0.00179978,-0.00292692,-0.00044203,-0.00073714,0.0003
 7102,-0.00299554,-0.00318839,0.01573888,0.02125902,0.18046228,-0.31187
 250,0.00014847,0.00040783,-0.00005186,-0.00918052,-0.20292006,0.317366
 56,-0.20202059,-0.03049130,-0.11264693,-0.01185100,-0.00127936,-0.0109
 4604,-0.00167644,0.00137621,0.00066465,-0.01962919,0.02770904,-0.01826
 209,0.00114452,0.00005109,0.00340453,0.00110804,0.00013570,-0.00013724
 ,-0.00196387,0.00239014,0.00142340,0.23563147,-0.02109169,-0.04962150,
 -0.00183285,-0.01629440,0.00195570,-0.01465857,-0.00260047,0.00158621,
 0.00093150,0.03575411,-0.01188028,0.02166514,0.00186166,0.00020393,-0.
 00019489,0.00154051,0.00017138,-0.00098494,0.00064940,-0.00020252,-0.0
 0078858,0.00614774,0.06093550,-0.13010980,0.00137626,-0.10534533,0.008
 57206,0.00148316,0.00351399,-0.00234686,-0.00115380,0.00098195,0.00461
 820,-0.00218564,0.01097749,-0.00201585,-0.00033672,-0.00127059,0.00135
 924,0.00088596,0.00005723,0.00247401,-0.00310212,-0.00232701,0.1291761
 5,-0.00078286,0.11613789,-0.01841176,-0.00876247,0.03216909,-0.0114270
 4,-0.00362152,0.01160413,0.00327582,0.00083504,-0.00093571,-0.01430436
 ,0.02119413,0.00464456,-0.01316095,0.01770526,-0.00264498,-0.00154499,
 -0.00062141,0.00040319,0.00091313,-0.00388304,-0.00020895,0.00029151,-
 0.00368256,-0.01277533,0.05657924,0.03311855,-0.03833595,-0.05289920,-
 0.01207337,-0.00170440,0.01704356,-0.00045411,0.00079480,0.00129734,0.
 00443122,0.01367465,-0.03493401,0.01289212,-0.02490080,0.00344339,-0.0
 0011210,0.00044108,-0.00141897,-0.01519759,0.01804295,0.00960052,-0.00
 322739,0.00067128,0.00321986,-0.01793298,0.03320214,-0.02892592,0.0577
 3959,-0.01966708,0.00594206,-0.00202610,-0.01446237,-0.00253876,-0.001
 84300,0.00177884,0.02992025,-0.07941794,0.03564914,-0.00061729,-0.0021
 5615,0.00470182,0.00030409,0.00100848,-0.00170794,0.02123245,-0.025435
 97,-0.02101489,0.00661469,-0.00474490,-0.02315016,-0.03361160,0.054755
 75,0.03594832,-0.00069122,0.00096081,0.00090943,0.01309720,0.01072234,
 0.00341236,-0.09648365,-0.08277561,0.01641365,-0.00002653,0.00170965,-
 0.00046444,0.00007600,-0.00009539,0.00004760,-0.03394079,-0.02815213,0
 .02709014,-0.00009509,0.00016605,0.00001789,0.00024098,0.00036986,0.00
 016541,-0.00064771,0.00036269,0.00062100,0.11784273,0.00496643,-0.0000
 4177,-0.00162511,-0.01588546,-0.01905695,0.00586085,-0.07791950,-0.226
 88998,0.03599931,-0.00070327,-0.00291532,0.00038513,-0.00012235,-0.000
 34713,0.00040017,-0.01101623,0.01736004,0.00575102,-0.00001965,-0.0000
 3789,-0.00000640,-0.00034190,-0.00021529,-0.00008742,0.00039634,0.0005
 5181,-0.00024718,0.09985644,0.23150821,0.00165857,-0.00145780,0.002429
 40,0.00262517,-0.00554888,0.01490208,0.01665514,0.03886768,-0.06789070
 ,-0.00057610,-0.00044618,-0.00018373,-0.00017815,-0.00016855,-0.000007
 88,0.02740986,0.01408895,0.00543979,0.00001261,0.00002115,-0.00005820,
 -0.00014213,0.00027051,-0.00037106,0.00041209,0.00002136,0.00010860,-0
 .04751258,-0.04600452,0.04532190,-0.01817167,0.00122322,-0.01161603,-0
 .21118287,0.02066706,-0.12470959,-0.01538842,0.00257552,-0.00683993,0.
 00223172,0.00218486,0.00026559,0.00057675,0.00009194,0.00048883,0.0016
 2862,0.00227054,0.00120999,-0.00004653,0.00002116,0.00013327,-0.001409
 13,-0.00292876,0.00107649,-0.00043109,0.00010937,-0.00066862,0.0006717
 2,0.00068880,0.00115056,0.23254785,-0.02245373,0.00172317,-0.01662457,
 0.02777455,-0.05061915,0.02197518,0.02551377,0.00092903,0.01853902,0.0
 0121462,0.00273885,-0.00044837,0.00045918,0.00020917,0.00012700,-0.000
 76672,-0.00312156,-0.00394478,-0.00013891,0.00013087,0.00031004,-0.002
 81249,-0.00438288,0.00141167,-0.00027148,0.00012273,0.00006082,-0.0028
 9752,-0.00005222,-0.00248587,-0.02525015,0.05179228,0.00493667,-0.0009
 0169,0.00189847,-0.12235011,0.01625919,-0.12709715,0.00956406,-0.00027
 463,0.00580915,0.00004910,-0.00029641,-0.00018040,-0.00001792,-0.00023
 162,-0.00005611,0.00035550,-0.00152221,-0.00278396,-0.00017501,0.00015
 391,0.00015641,0.00054694,0.00072307,0.00065305,0.00037481,-0.00009446
 ,0.00079090,-0.00086421,0.00052848,-0.00050418,0.13324507,-0.01890720,
 0.14030203,-0.00564437,-0.00477586,0.01566344,-0.06856018,-0.00473366,
 0.08375782,-0.00883609,-0.00062951,0.01602132,-0.00038365,0.00313009,-
 0.00186022,0.00001566,-0.00088390,0.00046366,-0.00090304,0.00410621,-0
 .00055849,-0.00051449,0.00061912,0.00076924,0.00013371,0.00027459,-0.0
 0019374,-0.00113181,-0.00191641,0.00172763,-0.00004363,0.00010034,-0.0
 0151504,0.00897307,-0.00037112,-0.02566491,0.07689482,-0.00666355,-0.0
 0784635,0.02251444,-0.00563420,-0.04902013,0.00840765,0.00772175,0.006
 96154,-0.03037872,-0.00112456,0.00522980,-0.00408793,-0.00054058,-0.00
 152743,0.00167972,0.00479112,-0.00535683,0.00161870,-0.00073656,0.0011
 4789,0.00110372,0.00034251,0.00077846,-0.00072836,-0.00135531,-0.00256
 029,0.00230659,-0.00022717,0.00013649,0.00284216,-0.00165355,0.0005297
 0,0.00456357,0.00508010,0.05152715,0.00113921,-0.00013730,-0.00133658,
 0.07911875,0.00812802,-0.27165864,0.00199611,0.00290986,-0.00645617,-0
 .00052163,0.00084377,0.00019530,-0.00002483,0.00042716,0.00037892,-0.0
 0028719,-0.00171442,-0.00001379,-0.00011056,-0.00001051,0.00000471,0.0
 0030406,0.00039737,0.00014255,0.00056870,-0.00003515,0.00102482,0.0001
 6374,-0.00095433,0.00081399,0.00626436,-0.00001293,-0.01898820,-0.0886
 1072,-0.00984154,0.29589309\\-0.00000525,0.00000847,0.00000204,0.00000
 034,-0.00000064,-0.00000102,-0.00000029,-0.00000013,0.00000062,-0.0000
 0137,-0.00000337,0.00000936,0.00000931,-0.00001000,-0.00000229,-0.0000
 0007,0.00000009,0.00000023,-0.00000280,0.00000123,-0.00000071,0.000000
 89,0.00000013,-0.00000141,-0.00000111,0.00000298,-0.00000816,-0.000000
 09,0.00000014,0.00000074,0.00000001,0.00000019,0.00000032,0.00000044,0
 .00000091,0.00000027\\\@


 KNOWLEDGE IS CHIMERA - FOR BEYOND IT LIES OTHER KNOWLEDGE,
 AND THE INCOMPLETENESS OF WHAT IS KNOWN RENDERS THE KNOWING FALSE.
     -- THE THOMAS COVENANT CHRONICLES
 Job cpu time:       0 days  0 hours  3 minutes 52.4 seconds.
 Elapsed time:       0 days  0 hours  0 minutes 14.8 seconds.
 File lengths (MBytes):  RWF=     27 Int=      0 D2E=      0 Chk=      3 Scr=      1
 Normal termination of Gaussian 16 at Wed Dec 23 22:05:08 2020.
