 Entering Gaussian System, Link 0=g16
 Initial command:
 /apps/cent7/gaussian/g16-B.01/g16-haswell/g16/l1.exe "/scratch/bell/zhao922/YARP/paper-example/KHP-network/pp_0/TS-folder/Gau-106089.inp" -scrdir="/scratch/bell/zhao922/YARP/paper-example/KHP-network/pp_0/TS-folder/"
 Entering Link 1 = /apps/cent7/gaussian/g16-B.01/g16-haswell/g16/l1.exe PID=    106091.
  
 Copyright (c) 1988-2017, Gaussian, Inc.  All Rights Reserved.
  
 This is part of the Gaussian(R) 16 program.  It is based on
 the Gaussian(R) 09 system (copyright 2009, Gaussian, Inc.),
 the Gaussian(R) 03 system (copyright 2003, Gaussian, Inc.),
 the Gaussian(R) 98 system (copyright 1998, Gaussian, Inc.),
 the Gaussian(R) 94 system (copyright 1995, Gaussian, Inc.),
 the Gaussian 92(TM) system (copyright 1992, Gaussian, Inc.),
 the Gaussian 90(TM) system (copyright 1990, Gaussian, Inc.),
 the Gaussian 88(TM) system (copyright 1988, Gaussian, Inc.),
 the Gaussian 86(TM) system (copyright 1986, Carnegie Mellon
 University), and the Gaussian 82(TM) system (copyright 1983,
 Carnegie Mellon University). Gaussian is a federally registered
 trademark of Gaussian, Inc.
  
 This software contains proprietary and confidential information,
 including trade secrets, belonging to Gaussian, Inc.
  
 This software is provided under written license and may be
 used, copied, transmitted, or stored only in accord with that
 written license.
  
 The following legend is applicable only to US Government
 contracts under FAR:
  
                    RESTRICTED RIGHTS LEGEND
  
 Use, reproduction and disclosure by the US Government is
 subject to restrictions as set forth in subparagraphs (a)
 and (c) of the Commercial Computer Software - Restricted
 Rights clause in FAR 52.227-19.
  
 Gaussian, Inc.
 340 Quinnipiac St., Bldg. 40, Wallingford CT 06492
  
  
 ---------------------------------------------------------------
 Warning -- This program may not be used in any manner that
 competes with the business of Gaussian, Inc. or will provide
 assistance to any competitor of Gaussian, Inc.  The licensee
 of this program is prohibited from giving any competitor of
 Gaussian, Inc. access to this program.  By using this program,
 the user acknowledges that Gaussian, Inc. is engaged in the
 business of creating and licensing software in the field of
 computational chemistry and represents and warrants to the
 licensee that it is not a competitor of Gaussian, Inc. and that
 it will not use this program in any manner prohibited above.
 ---------------------------------------------------------------
  

 Cite this work as:
 Gaussian 16, Revision B.01,
 M. J. Frisch, G. W. Trucks, H. B. Schlegel, G. E. Scuseria, 
 M. A. Robb, J. R. Cheeseman, G. Scalmani, V. Barone, 
 G. A. Petersson, H. Nakatsuji, X. Li, M. Caricato, A. V. Marenich, 
 J. Bloino, B. G. Janesko, R. Gomperts, B. Mennucci, H. P. Hratchian, 
 J. V. Ortiz, A. F. Izmaylov, J. L. Sonnenberg, D. Williams-Young, 
 F. Ding, F. Lipparini, F. Egidi, J. Goings, B. Peng, A. Petrone, 
 T. Henderson, D. Ranasinghe, V. G. Zakrzewski, J. Gao, N. Rega, 
 G. Zheng, W. Liang, M. Hada, M. Ehara, K. Toyota, R. Fukuda, 
 J. Hasegawa, M. Ishida, T. Nakajima, Y. Honda, O. Kitao, H. Nakai, 
 T. Vreven, K. Throssell, J. A. Montgomery, Jr., J. E. Peralta, 
 F. Ogliaro, M. J. Bearpark, J. J. Heyd, E. N. Brothers, K. N. Kudin, 
 V. N. Staroverov, T. A. Keith, R. Kobayashi, J. Normand, 
 K. Raghavachari, A. P. Rendell, J. C. Burant, S. S. Iyengar, 
 J. Tomasi, M. Cossi, J. M. Millam, M. Klene, C. Adamo, R. Cammi, 
 J. W. Ochterski, R. L. Martin, K. Morokuma, O. Farkas, 
 J. B. Foresman, and D. J. Fox, Gaussian, Inc., Wallingford CT, 2016.
 
 ******************************************
 Gaussian 16:  ES64L-G16RevB.01 20-Dec-2017
                23-Dec-2020 
 ******************************************
 %NProcShared=16
 Will use up to   16 processors via shared memory.
 %Mem=6GB
 --------------------------------------------------------------
 # B3LYP/6-31+G* OPT=(TS, CALCALL, NOEIGEN, maxcycles=100) Freq
 --------------------------------------------------------------
 1/5=1,6=100,10=4,11=1,18=20,26=3,38=1/1,3;
 2/9=110,12=2,17=6,18=5,40=1/2;
 3/5=1,6=6,7=11,11=2,25=1,30=1,71=2,74=-5,140=1/1,2,3;
 4//1;
 5/5=2,38=5/2;
 8/6=4,10=90,11=11/1;
 11/6=1,8=1,9=11,15=111,16=1/1,2,10;
 10/6=1/2;
 6/7=2,8=2,9=2,10=2,18=1,28=1/1;
 7/10=1,25=1/1,2,3,16;
 1/5=1,6=100,10=4,11=1,18=20,26=3/3(3);
 2/9=110/2;
 7/8=1,9=1,25=1,44=-1/16;
 99//99;
 2/9=110/2;
 3/5=1,6=6,7=11,11=2,25=1,30=1,71=2,74=-5,140=1/1,2,3;
 4/5=5,16=3,69=1/1;
 5/5=2,38=5/2;
 8/6=4,10=90,11=11/1;
 11/6=1,8=1,9=11,15=111,16=1/1,2,10;
 10/6=1/2;
 7/10=1,25=1/1,2,3,16;
 1/5=1,6=100,10=4,11=1,18=20,26=3/3(-8);
 2/9=110/2;
 6/7=2,8=2,9=2,10=2,18=1,19=2,28=1/1;
 7/8=1,9=1,25=1,44=-1/16;
 99//99;
 ----------
 pp_12_1 TS
 ----------
 Symbolic Z-matrix:
 Charge =  0 Multiplicity = 1
 C                     1.00428   1.66056  -1.21083 
 C                     0.18326   0.64409  -0.72222 
 C                     1.47483  -0.51117  -1.45127 
 O                     0.54223   2.51223  -2.12808 
 O                     1.57544   3.33333  -2.66053 
 O                     2.06963  -0.99043  -0.52861 
 H                     1.09279   3.97551  -3.19907 
 H                     1.88776   1.97323  -0.66735 
 H                     1.87747   0.61269  -2.36881 
 H                     0.87813  -0.93766  -2.24661 
 H                    -0.75442   0.40149  -1.19492 
 H                     0.25655   0.42925   0.32868 
 
 Add virtual bond connecting atoms H9         and C3         Dist= 2.85D+00.
 Add virtual bond connecting atoms C3         and C2         Dist= 3.55D+00.
 Add virtual bond connecting atoms H9         and C1         Dist= 3.38D+00.

 GradGradGradGradGradGradGradGradGradGradGradGradGradGradGradGradGradGrad
 Berny optimization.
 Initialization pass.
                           ----------------------------
                           !    Initial Parameters    !
                           ! (Angstroms and Degrees)  !
 --------------------------                            --------------------------
 ! Name  Definition              Value          Derivative Info.                !
 --------------------------------------------------------------------------------
 ! R1    R(1,2)                  1.395          calculate D2E/DX2 analytically  !
 ! R2    R(1,4)                  1.3342         calculate D2E/DX2 analytically  !
 ! R3    R(1,8)                  1.0834         calculate D2E/DX2 analytically  !
 ! R4    R(1,9)                  1.7893         calculate D2E/DX2 analytically  !
 ! R5    R(2,3)                  1.88           calculate D2E/DX2 analytically  !
 ! R6    R(2,11)                 1.0777         calculate D2E/DX2 analytically  !
 ! R7    R(2,12)                 1.0751         calculate D2E/DX2 analytically  !
 ! R8    R(3,6)                  1.1978         calculate D2E/DX2 analytically  !
 ! R9    R(3,9)                  1.5057         calculate D2E/DX2 analytically  !
 ! R10   R(3,10)                 1.0819         calculate D2E/DX2 analytically  !
 ! R11   R(4,5)                  1.4231         calculate D2E/DX2 analytically  !
 ! R12   R(5,7)                  0.9671         calculate D2E/DX2 analytically  !
 ! A1    A(2,1,4)              120.1382         calculate D2E/DX2 analytically  !
 ! A2    A(2,1,8)              120.9673         calculate D2E/DX2 analytically  !
 ! A3    A(2,1,9)               95.0005         calculate D2E/DX2 analytically  !
 ! A4    A(4,1,8)              116.2995         calculate D2E/DX2 analytically  !
 ! A5    A(4,1,9)               95.619          calculate D2E/DX2 analytically  !
 ! A6    A(8,1,9)               95.4926         calculate D2E/DX2 analytically  !
 ! A7    A(1,2,3)               84.6981         calculate D2E/DX2 analytically  !
 ! A8    A(1,2,11)             121.4971         calculate D2E/DX2 analytically  !
 ! A9    A(1,2,12)             116.6052         calculate D2E/DX2 analytically  !
 ! A10   A(3,2,11)             106.817          calculate D2E/DX2 analytically  !
 ! A11   A(3,2,12)             102.0884         calculate D2E/DX2 analytically  !
 ! A12   A(11,2,12)            116.2982         calculate D2E/DX2 analytically  !
 ! A13   A(2,3,6)              106.7568         calculate D2E/DX2 analytically  !
 ! A14   A(2,3,9)               87.7853         calculate D2E/DX2 analytically  !
 ! A15   A(2,3,10)              98.535          calculate D2E/DX2 analytically  !
 ! A16   A(6,3,9)              129.4391         calculate D2E/DX2 analytically  !
 ! A17   A(6,3,10)             133.032          calculate D2E/DX2 analytically  !
 ! A18   A(9,3,10)              89.6416         calculate D2E/DX2 analytically  !
 ! A19   A(1,4,5)              111.9677         calculate D2E/DX2 analytically  !
 ! A20   A(4,5,7)              103.246          calculate D2E/DX2 analytically  !
 ! A21   A(1,9,3)               84.9658         calculate D2E/DX2 analytically  !
 ! D1    D(4,1,2,3)            118.4302         calculate D2E/DX2 analytically  !
 ! D2    D(4,1,2,11)            11.9369         calculate D2E/DX2 analytically  !
 ! D3    D(4,1,2,12)          -140.6902         calculate D2E/DX2 analytically  !
 ! D4    D(8,1,2,3)            -80.5068         calculate D2E/DX2 analytically  !
 ! D5    D(8,1,2,11)           173.0            calculate D2E/DX2 analytically  !
 ! D6    D(8,1,2,12)            20.3728         calculate D2E/DX2 analytically  !
 ! D7    D(9,1,2,3)             18.965          calculate D2E/DX2 analytically  !
 ! D8    D(9,1,2,11)           -87.5283         calculate D2E/DX2 analytically  !
 ! D9    D(9,1,2,12)           119.8446         calculate D2E/DX2 analytically  !
 ! D10   D(2,1,4,5)           -170.4618         calculate D2E/DX2 analytically  !
 ! D11   D(8,1,4,5)             27.6215         calculate D2E/DX2 analytically  !
 ! D12   D(9,1,4,5)            -71.348          calculate D2E/DX2 analytically  !
 ! D13   D(2,1,9,3)            -23.9293         calculate D2E/DX2 analytically  !
 ! D14   D(4,1,9,3)           -144.9299         calculate D2E/DX2 analytically  !
 ! D15   D(8,1,9,3)             97.8946         calculate D2E/DX2 analytically  !
 ! D16   D(1,2,3,6)            108.069          calculate D2E/DX2 analytically  !
 ! D17   D(1,2,3,9)            -22.6448         calculate D2E/DX2 analytically  !
 ! D18   D(1,2,3,10)          -111.9495         calculate D2E/DX2 analytically  !
 ! D19   D(11,2,3,6)          -130.5925         calculate D2E/DX2 analytically  !
 ! D20   D(11,2,3,9)            98.6937         calculate D2E/DX2 analytically  !
 ! D21   D(11,2,3,10)            9.389          calculate D2E/DX2 analytically  !
 ! D22   D(12,2,3,6)            -8.0406         calculate D2E/DX2 analytically  !
 ! D23   D(12,2,3,9)          -138.7543         calculate D2E/DX2 analytically  !
 ! D24   D(12,2,3,10)          131.9409         calculate D2E/DX2 analytically  !
 ! D25   D(2,3,9,1)             17.4609         calculate D2E/DX2 analytically  !
 ! D26   D(6,3,9,1)            -92.5246         calculate D2E/DX2 analytically  !
 ! D27   D(10,3,9,1)           116.0166         calculate D2E/DX2 analytically  !
 ! D28   D(1,4,5,7)           -171.9192         calculate D2E/DX2 analytically  !
 --------------------------------------------------------------------------------
 Trust Radius=3.00D-01 FncErr=1.00D-07 GrdErr=1.00D-06 EigMax=2.50D+02 EigMin=1.00D-04
 Number of steps in this run=    100 maximum allowed number of steps=    100.
 Search for a saddle point of order  1.
 GradGradGradGradGradGradGradGradGradGradGradGradGradGradGradGradGradGrad

                          Input orientation:                          
 ---------------------------------------------------------------------
 Center     Atomic      Atomic             Coordinates (Angstroms)
 Number     Number       Type             X           Y           Z
 ---------------------------------------------------------------------
      1          6           0        1.004284    1.660564   -1.210830
      2          6           0        0.183258    0.644091   -0.722223
      3          6           0        1.474831   -0.511173   -1.451268
      4          8           0        0.542231    2.512233   -2.128082
      5          8           0        1.575438    3.333331   -2.660527
      6          8           0        2.069631   -0.990430   -0.528611
      7          1           0        1.092793    3.975513   -3.199068
      8          1           0        1.887756    1.973233   -0.667354
      9          1           0        1.877469    0.612685   -2.368809
     10          1           0        0.878133   -0.937662   -2.246607
     11          1           0       -0.754415    0.401492   -1.194919
     12          1           0        0.256554    0.429248    0.328679
 ---------------------------------------------------------------------
                    Distance matrix (angstroms):
                    1          2          3          4          5
     1  C    0.000000
     2  C    1.395005   0.000000
     3  C    2.235099   1.879974   0.000000
     4  O    1.334235   2.365429   3.235553   0.000000
     5  O    2.286042   3.595441   4.031456   1.423101   0.000000
     6  O    2.937372   2.503507   1.197819   4.142452   4.846050
     7  H    3.052853   4.249751   4.830229   1.895077   0.967145
     8  H    1.083352   2.162162   2.637670   2.057835   2.433135
     9  H    1.789251   2.362749   1.505674   2.334329   2.752860
    10  H    2.799915   2.304027   1.081899   3.468235   4.347292
    11  H    2.162993   1.077741   2.422439   2.647133   4.021430
    12  H    2.108394   1.075139   2.353041   3.233591   4.371328
                    6          7          8          9         10
     6  O    0.000000
     7  H    5.722425   0.000000
     8  H    2.972478   3.324254   0.000000
     9  H    2.448108   3.551571   2.178565   0.000000
    10  H    2.091402   5.009246   3.462180   1.848562   0.000000
    11  H    3.218175   4.494710   3.119257   2.889539   2.358939
    12  H    2.457169   5.071518   2.456988   3.152373   2.981091
                   11         12
    11  H    0.000000
    12  H    1.828710   0.000000
 Stoichiometry    C3H6O3
 Framework group  C1[X(C3H6O3)]
 Deg. of freedom    30
 Full point group                 C1      NOp   1
 Largest Abelian subgroup         C1      NOp   1
 Largest concise Abelian subgroup C1      NOp   1
                         Standard orientation:                         
 ---------------------------------------------------------------------
 Center     Atomic      Atomic             Coordinates (Angstroms)
 Number     Number       Type             X           Y           Z
 ---------------------------------------------------------------------
      1          6           0       -0.345177    0.285329   -0.382789
      2          6           0        0.699037    1.144637   -0.040381
      3          6           0        1.584018   -0.425640    0.493792
      4          8           0       -1.531787    0.401089    0.216161
      5          8           0       -2.395214   -0.685508   -0.098510
      6          8           0        2.445736   -0.627974   -0.313223
      7          1           0       -3.241567   -0.413520    0.282383
      8          1           0       -0.329668   -0.267196   -1.314522
      9          1           0        0.231012   -1.071908    0.630786
     10          1           0        1.598958   -0.246534    1.560659
     11          1           0        0.642741    1.781386    0.827322
     12          1           0        1.321380    1.490961   -0.845783
 ---------------------------------------------------------------------
 Rotational constants (GHZ):           9.1336042           1.7356242           1.5790483
 Standard basis: 6-31+G(d) (6D, 7F)
 There are   126 symmetry adapted cartesian basis functions of A   symmetry.
 There are   126 symmetry adapted basis functions of A   symmetry.
   126 basis functions,   216 primitive gaussians,   126 cartesian basis functions
    24 alpha electrons       24 beta electrons
       nuclear repulsion energy       236.2157568870 Hartrees.
 NAtoms=   12 NActive=   12 NUniq=   12 SFac= 1.00D+00 NAtFMM=   60 NAOKFM=F Big=F
 Integral buffers will be    131072 words long.
 Raffenetti 2 integral format.
 Two-electron integral symmetry is turned on.
 One-electron integrals computed using PRISM.
 NBasis=   126 RedAO= T EigKep=  7.58D-05  NBF=   126
 NBsUse=   126 1.00D-06 EigRej= -1.00D+00 NBFU=   126
 ExpMin= 4.38D-02 ExpMax= 5.48D+03 ExpMxC= 8.25D+02 IAcc=3 IRadAn=         5 AccDes= 0.00D+00
 Harris functional with IExCor=  402 and IRadAn=       5 diagonalized for initial guess.
 HarFok:  IExCor=  402 AccDes= 0.00D+00 IRadAn=         5 IDoV= 1 UseB2=F ITyADJ=14
 ICtDFT=  3500011 ScaDFX=  1.000000  1.000000  1.000000  1.000000
 FoFCou: FMM=F IPFlag=           0 FMFlag=      100000 FMFlg1=           0
         NFxFlg=           0 DoJE=T BraDBF=F KetDBF=T FulRan=T
         wScrn=  0.000000 ICntrl=       500 IOpCl=  0 I1Cent=   200000004 NGrid=           0
         NMat0=    1 NMatS0=      1 NMatT0=    0 NMatD0=    1 NMtDS0=    0 NMtDT0=    0
 Petite list used in FoFCou.
 Keep R1 ints in memory in canonical form, NReq=47237537.
 Requested convergence on RMS density matrix=1.00D-08 within 128 cycles.
 Requested convergence on MAX density matrix=1.00D-06.
 Requested convergence on             energy=1.00D-06.
 No special actions if energy rises.
 SCF Done:  E(RB3LYP) =  -343.360251516     A.U. after   15 cycles
            NFock= 15  Conv=0.18D-08     -V/T= 2.0088
 DoSCS=F DFT=T ScalE2(SS,OS)=  1.000000  1.000000
 Range of M.O.s used for correlation:     1   126
 NBasis=   126 NAE=    24 NBE=    24 NFC=     0 NFV=     0
 NROrb=    126 NOA=    24 NOB=    24 NVA=   102 NVB=   102

 **** Warning!!: The largest alpha MO coefficient is  0.31037539D+02

 Symmetrizing basis deriv contribution to polar:
 IMax=3 JMax=2 DiffMx= 0.00D+00
 G2DrvN: will do    13 centers at a time, making    1 passes.
 Calling FoFCou, ICntrl=  3107 FMM=F I1Cent=   0 AccDes= 0.00D+00.
 End of G2Drv F.D. properties file   721 does not exist.
 End of G2Drv F.D. properties file   722 does not exist.
 End of G2Drv F.D. properties file   788 does not exist.
          IDoAtm=111111111111
          Differentiating once with respect to electric field.
                with respect to dipole field.
          Differentiating once with respect to nuclear coordinates.
 Keep R1 ints in memory in canonical form, NReq=47193545.
          There are    39 degrees of freedom in the 1st order CPHF.  IDoFFX=6 NUNeed=     3.
     36 vectors produced by pass  0 Test12= 6.28D-15 2.56D-09 XBig12= 1.50D+02 9.08D+00.
 AX will form    36 AO Fock derivatives at one time.
     36 vectors produced by pass  1 Test12= 6.28D-15 2.56D-09 XBig12= 6.02D+01 1.45D+00.
     36 vectors produced by pass  2 Test12= 6.28D-15 2.56D-09 XBig12= 6.82D-01 1.45D-01.
     36 vectors produced by pass  3 Test12= 6.28D-15 2.56D-09 XBig12= 3.68D-03 9.98D-03.
     36 vectors produced by pass  4 Test12= 6.28D-15 2.56D-09 XBig12= 6.46D-06 2.89D-04.
     27 vectors produced by pass  5 Test12= 6.28D-15 2.56D-09 XBig12= 7.30D-09 1.22D-05.
      4 vectors produced by pass  6 Test12= 6.28D-15 2.56D-09 XBig12= 7.74D-12 3.47D-07.
      2 vectors produced by pass  7 Test12= 6.28D-15 2.56D-09 XBig12= 7.76D-15 1.15D-08.
 InvSVY:  IOpt=1 It=  1 EMax= 3.11D-15
 Solved reduced A of dimension   213 with    39 vectors.
 Isotropic polarizability for W=    0.000000       64.28 Bohr**3.
 End of Minotr F.D. properties file   721 does not exist.
 End of Minotr F.D. properties file   722 does not exist.
 End of Minotr F.D. properties file   788 does not exist.

 **********************************************************************

            Population analysis using the SCF Density.

 **********************************************************************

 Orbital symmetries:
       Occupied  (A) (A) (A) (A) (A) (A) (A) (A) (A) (A) (A) (A)
                 (A) (A) (A) (A) (A) (A) (A) (A) (A) (A) (A) (A)
       Virtual   (A) (A) (A) (A) (A) (A) (A) (A) (A) (A) (A) (A)
                 (A) (A) (A) (A) (A) (A) (A) (A) (A) (A) (A) (A)
                 (A) (A) (A) (A) (A) (A) (A) (A) (A) (A) (A) (A)
                 (A) (A) (A) (A) (A) (A) (A) (A) (A) (A) (A) (A)
                 (A) (A) (A) (A) (A) (A) (A) (A) (A) (A) (A) (A)
                 (A) (A) (A) (A) (A) (A) (A) (A) (A) (A) (A) (A)
                 (A) (A) (A) (A) (A) (A) (A) (A) (A) (A) (A) (A)
                 (A) (A) (A) (A) (A) (A) (A) (A) (A) (A) (A) (A)
                 (A) (A) (A) (A) (A) (A)
 The electronic state is 1-A.
 Alpha  occ. eigenvalues --  -19.28611 -19.25860 -19.13565 -10.31591 -10.29750
 Alpha  occ. eigenvalues --  -10.20364  -1.20153  -1.04604  -0.99437  -0.79691
 Alpha  occ. eigenvalues --   -0.64204  -0.61772  -0.60536  -0.53824  -0.51088
 Alpha  occ. eigenvalues --   -0.45534  -0.44890  -0.43058  -0.41840  -0.40285
 Alpha  occ. eigenvalues --   -0.39301  -0.33062  -0.25561  -0.22257
 Alpha virt. eigenvalues --   -0.05452  -0.03160  -0.00161   0.01582   0.02268
 Alpha virt. eigenvalues --    0.03031   0.04966   0.06839   0.06951   0.07523
 Alpha virt. eigenvalues --    0.08647   0.09434   0.09792   0.13266   0.13824
 Alpha virt. eigenvalues --    0.14047   0.16048   0.17737   0.19353   0.20656
 Alpha virt. eigenvalues --    0.21684   0.23290   0.24133   0.24985   0.25942
 Alpha virt. eigenvalues --    0.27225   0.27691   0.28789   0.30922   0.31231
 Alpha virt. eigenvalues --    0.32397   0.33862   0.34860   0.36577   0.39171
 Alpha virt. eigenvalues --    0.44729   0.61403   0.65022   0.68549   0.70551
 Alpha virt. eigenvalues --    0.73780   0.76688   0.78974   0.83618   0.87893
 Alpha virt. eigenvalues --    0.91800   0.94464   0.97531   0.98945   1.03168
 Alpha virt. eigenvalues --    1.04649   1.07526   1.09450   1.13154   1.15945
 Alpha virt. eigenvalues --    1.18220   1.23795   1.25009   1.26131   1.27602
 Alpha virt. eigenvalues --    1.31019   1.33553   1.36260   1.42233   1.44441
 Alpha virt. eigenvalues --    1.51004   1.53500   1.59238   1.62347   1.67738
 Alpha virt. eigenvalues --    1.69818   1.72759   1.75125   1.76056   1.81947
 Alpha virt. eigenvalues --    1.85911   1.92003   1.93279   2.00687   2.02408
 Alpha virt. eigenvalues --    2.08484   2.16467   2.23143   2.30200   2.34784
 Alpha virt. eigenvalues --    2.41319   2.43432   2.45390   2.48929   2.63193
 Alpha virt. eigenvalues --    2.64680   2.74378   2.87950   2.92271   3.09141
 Alpha virt. eigenvalues --    3.09624   3.96212   4.19374   4.24873   4.28952
 Alpha virt. eigenvalues --    4.31387   4.47292
          Condensed to atoms (all electrons):
               1          2          3          4          5          6
     1  C    6.184071  -0.863946   0.112642  -0.003383   0.105809   0.015186
     2  C   -0.863946   7.228656  -0.214786   0.141116  -0.089233  -0.184719
     3  C    0.112642  -0.214786   5.219286  -0.059778   0.016582   0.396125
     4  O   -0.003383   0.141116  -0.059778   8.127188  -0.068944   0.000656
     5  O    0.105809  -0.089233   0.016582  -0.068944   8.347014   0.000544
     6  O    0.015186  -0.184719   0.396125   0.000656   0.000544   8.223056
     7  H    0.005754   0.000616  -0.000642  -0.014753   0.184118  -0.000004
     8  H    0.371766  -0.030514  -0.014941  -0.038008   0.001270   0.003394
     9  H    0.380298  -0.399288   0.311672  -0.095566   0.032236  -0.026233
    10  H   -0.065301   0.027281   0.335443   0.007949  -0.000529  -0.047006
    11  H   -0.015053   0.335861   0.001390  -0.007660   0.001837   0.004637
    12  H   -0.018719   0.384118  -0.022543   0.002864  -0.000466  -0.007662
               7          8          9         10         11         12
     1  C    0.005754   0.371766   0.380298  -0.065301  -0.015053  -0.018719
     2  C    0.000616  -0.030514  -0.399288   0.027281   0.335861   0.384118
     3  C   -0.000642  -0.014941   0.311672   0.335443   0.001390  -0.022543
     4  O   -0.014753  -0.038008  -0.095566   0.007949  -0.007660   0.002864
     5  O    0.184118   0.001270   0.032236  -0.000529   0.001837  -0.000466
     6  O   -0.000004   0.003394  -0.026233  -0.047006   0.004637  -0.007662
     7  H    0.334477   0.000012  -0.000162  -0.000004  -0.000000   0.000004
     8  H    0.000012   0.460048  -0.012063   0.001305   0.002890  -0.002980
     9  H   -0.000162  -0.012063   0.823791  -0.065230   0.004603   0.002236
    10  H   -0.000004   0.001305  -0.065230   0.557400  -0.001720  -0.000547
    11  H   -0.000000   0.002890   0.004603  -0.001720   0.467690  -0.021813
    12  H    0.000004  -0.002980   0.002236  -0.000547  -0.021813   0.431293
 Mulliken charges:
               1
     1  C   -0.209124
     2  C   -0.335163
     3  C   -0.080449
     4  O    0.008319
     5  O   -0.530237
     6  O   -0.377971
     7  H    0.490584
     8  H    0.257821
     9  H    0.043707
    10  H    0.250959
    11  H    0.227341
    12  H    0.254214
 Sum of Mulliken charges =  -0.00000
 Mulliken charges with hydrogens summed into heavy atoms:
               1
     1  C    0.048697
     2  C    0.146392
     3  C    0.214216
     4  O    0.008319
     5  O   -0.039653
     6  O   -0.377971
 APT charges:
               1
     1  C    0.852133
     2  C   -0.412163
     3  C    1.210609
     4  O   -0.415185
     5  O   -0.357910
     6  O   -0.914931
     7  H    0.318875
     8  H    0.023242
     9  H   -0.363317
    10  H   -0.056082
    11  H    0.062279
    12  H    0.052451
 Sum of APT charges =  -0.00000
 APT charges with hydrogens summed into heavy atoms:
               1
     1  C    0.875374
     2  C   -0.297433
     3  C    0.791210
     4  O   -0.415185
     5  O   -0.039035
     6  O   -0.914931
 Electronic spatial extent (au):  <R**2>=            727.3505
 Charge=             -0.0000 electrons
 Dipole moment (field-independent basis, Debye):
    X=             -4.0644    Y=              1.9761    Z=              1.2186  Tot=              4.6808
 Quadrupole moment (field-independent basis, Debye-Ang):
   XX=            -36.5365   YY=            -39.4144   ZZ=            -34.3106
   XY=              3.9162   XZ=              1.8694   YZ=             -0.3927
 Traceless Quadrupole moment (field-independent basis, Debye-Ang):
   XX=              0.2173   YY=             -2.6605   ZZ=              2.4432
   XY=              3.9162   XZ=              1.8694   YZ=             -0.3927
 Octapole moment (field-independent basis, Debye-Ang**2):
  XXX=            -80.0353  YYY=              1.9081  ZZZ=              0.2105  XYY=             -2.0550
  XXY=              5.7094  XXZ=             15.0316  XZZ=             -0.6707  YZZ=              0.4660
  YYZ=              0.3935  XYZ=             -1.4325
 Hexadecapole moment (field-independent basis, Debye-Ang**3):
 XXXX=           -561.8695 YYYY=           -163.1045 ZZZZ=            -73.7042 XXXY=             36.4984
 XXXZ=            -12.3642 YYYX=              5.7042 YYYZ=              5.8839 ZZZX=              1.2942
 ZZZY=              2.8658 XXYY=           -142.9785 XXZZ=           -119.6158 YYZZ=            -38.7953
 XXYZ=             -8.8741 YYXZ=             -0.1038 ZZXY=              1.4561
 N-N= 2.362157568870D+02 E-N=-1.276310113653D+03  KE= 3.403808907860D+02
  Exact polarizability:  91.688  -0.378  56.144   1.594  -3.877  45.002
 Approx polarizability: 160.404  -5.073  85.124   0.678  -6.839  65.142
 Calling FoFJK, ICntrl=    100127 FMM=F ISym2X=0 I1Cent= 0 IOpClX= 0 NMat=1 NMatS=1 NMatT=0.
 ***** Axes restored to original set *****
 -------------------------------------------------------------------
 Center     Atomic                   Forces (Hartrees/Bohr)
 Number     Number              X              Y              Z
 -------------------------------------------------------------------
      1        6           0.003908081    0.005072267   -0.004535021
      2        6          -0.003441836   -0.005361808   -0.007733366
      3        6          -0.029447327    0.050226574   -0.020792097
      4        8          -0.031130952   -0.003633620   -0.001193104
      5        8           0.032262553    0.001419385    0.001746391
      6        8           0.038278890   -0.018138763    0.009132266
      7        1          -0.011317763    0.000824963   -0.001526084
      8        1           0.004153549    0.000076902   -0.000373370
      9        1           0.010712993   -0.024928863    0.025710416
     10        1          -0.005964183   -0.008212384   -0.003405899
     11        1          -0.007603920    0.005694857   -0.003007245
     12        1          -0.000410086   -0.003039510    0.005977113
 -------------------------------------------------------------------
 Cartesian Forces:  Max     0.050226574 RMS     0.016411633
 FormGI is forming the generalized inverse of G from B-inverse, IUseBI=4.

 GradGradGradGradGradGradGradGradGradGradGradGradGradGradGradGradGradGrad
 Berny optimization.
 Internal  Forces:  Max     0.033300335 RMS     0.008779656
 Search for a saddle point.
 Step number   1 out of a maximum of  100
 All quantities printed in internal units (Hartrees-Bohrs-Radians)
 Swapping is turned off.
 Second derivative matrix not updated -- analytic derivatives used.
 ITU=  0
     Eigenvalues ---   -0.09660  -0.00229   0.00290   0.00508   0.01319
     Eigenvalues ---    0.01518   0.01984   0.02784   0.03115   0.03418
     Eigenvalues ---    0.04320   0.04839   0.05923   0.06607   0.07109
     Eigenvalues ---    0.08677   0.09394   0.12313   0.15773   0.19562
     Eigenvalues ---    0.25388   0.35551   0.36164   0.37578   0.38138
     Eigenvalues ---    0.38718   0.40463   0.48208   0.52305   0.89383
 Eigenvectors required to have negative eigenvalues:
                          R5        R9        R4        D27       D3
   1                    0.50270  -0.48179   0.41735  -0.20791  -0.18053
                          D18       A15       D1        A13       D24
   1                   -0.16316  -0.16058  -0.15757  -0.15202  -0.14043
 RFO step:  Lambda0=6.861175457D-04 Lambda=-3.71145376D-02.
 Linear search not attempted -- option 19 set.
 Maximum step size (   0.300) exceeded in Quadratic search.
    -- Step size scaled by   0.461
 Iteration  1 RMS(Cart)=  0.04966655 RMS(Int)=  0.01917800
 Iteration  2 RMS(Cart)=  0.02700058 RMS(Int)=  0.00254447
 Iteration  3 RMS(Cart)=  0.00199926 RMS(Int)=  0.00135109
 Iteration  4 RMS(Cart)=  0.00000548 RMS(Int)=  0.00135109
 Iteration  5 RMS(Cart)=  0.00000000 RMS(Int)=  0.00135109
 Variable       Old X    -DE/DX   Delta X   Delta X   Delta X     New X
                                 (Linear)    (Quad)   (Total)
    R1        2.63618   0.00505   0.00000   0.02368   0.02252   2.65870
    R2        2.52134   0.00331   0.00000   0.00303   0.00303   2.52437
    R3        2.04724   0.00322   0.00000   0.00316   0.00316   2.05040
    R4        3.38119  -0.00199   0.00000  -0.08167  -0.08171   3.29948
    R5        3.55264   0.00349   0.00000  -0.12675  -0.12623   3.42641
    R6        2.03664   0.00665   0.00000   0.00739   0.00739   2.04402
    R7        2.03172   0.00642   0.00000   0.00877   0.00877   2.04048
    R8        2.26355   0.03330   0.00000   0.03179   0.03179   2.29533
    R9        2.84531  -0.02750   0.00000  -0.19682  -0.19628   2.64903
   R10        2.04449   0.00903   0.00000   0.01685   0.01685   2.06135
   R11        2.68927   0.01642   0.00000   0.03172   0.03172   2.72099
   R12        1.82764   0.00705   0.00000   0.00731   0.00731   1.83495
    A1        2.09681  -0.00235   0.00000  -0.01044  -0.00990   2.08691
    A2        2.11128   0.00171   0.00000   0.00355   0.00317   2.11444
    A3        1.65807  -0.00183   0.00000  -0.02712  -0.02821   1.62986
    A4        2.02981   0.00092   0.00000   0.00651   0.00643   2.03624
    A5        1.66887   0.00414   0.00000   0.04532   0.04570   1.71457
    A6        1.66666  -0.00309   0.00000  -0.01555  -0.01512   1.65154
    A7        1.47826  -0.00666   0.00000  -0.02554  -0.02628   1.45198
    A8        2.12052   0.00120   0.00000  -0.01331  -0.01348   2.10705
    A9        2.03515  -0.00075   0.00000  -0.00058   0.00021   2.03535
   A10        1.86431   0.00447   0.00000   0.03083   0.03097   1.89528
   A11        1.78178   0.00255   0.00000   0.02670   0.02666   1.80844
   A12        2.02979  -0.00073   0.00000  -0.00203  -0.00313   2.02666
   A13        1.86326   0.01918   0.00000   0.07710   0.07948   1.94274
   A14        1.53214   0.00533   0.00000   0.04980   0.05151   1.58365
   A15        1.71976  -0.00038   0.00000   0.01203   0.01005   1.72981
   A16        2.25914  -0.01331   0.00000  -0.08071  -0.08591   2.17323
   A17        2.32185  -0.00471   0.00000  -0.02645  -0.03110   2.29075
   A18        1.56454   0.00194   0.00000   0.02281   0.02095   1.58549
   A19        1.95421  -0.01880   0.00000  -0.02757  -0.02757   1.92663
   A20        1.80198  -0.01649   0.00000  -0.03093  -0.03093   1.77105
   A21        1.48293   0.00390   0.00000   0.01612   0.01603   1.49896
    D1        2.06700  -0.00009   0.00000   0.00593   0.00600   2.07299
    D2        0.20834  -0.00137   0.00000  -0.01358  -0.01352   0.19482
    D3       -2.45551  -0.00052   0.00000   0.02322   0.02295  -2.43256
    D4       -1.40511   0.00107   0.00000   0.00574   0.00609  -1.39901
    D5        3.01942  -0.00021   0.00000  -0.01377  -0.01342   3.00600
    D6        0.35557   0.00064   0.00000   0.02303   0.02305   0.37862
    D7        0.33100  -0.00340   0.00000  -0.02885  -0.02871   0.30230
    D8       -1.52766  -0.00468   0.00000  -0.04836  -0.04822  -1.57588
    D9        2.09168  -0.00383   0.00000  -0.01156  -0.01175   2.07993
   D10       -2.97512   0.00133   0.00000   0.03717   0.03768  -2.93744
   D11        0.48209   0.00004   0.00000   0.03771   0.03802   0.52010
   D12       -1.24526   0.00123   0.00000   0.03074   0.02992  -1.21534
   D13       -0.41765   0.00009   0.00000   0.02407   0.02422  -0.39342
   D14       -2.52950   0.00212   0.00000   0.03193   0.03233  -2.49717
   D15        1.70858   0.00102   0.00000   0.02061   0.02108   1.72967
   D16        1.88616  -0.00788   0.00000  -0.03571  -0.03435   1.85181
   D17       -0.39523   0.00036   0.00000   0.01606   0.01600  -0.37922
   D18       -1.95389  -0.00243   0.00000  -0.01404  -0.01307  -1.96696
   D19       -2.27927  -0.00827   0.00000  -0.05493  -0.05457  -2.33384
   D20        1.72253  -0.00003   0.00000  -0.00316  -0.00422   1.71831
   D21        0.16387  -0.00281   0.00000  -0.03325  -0.03329   0.13058
   D22       -0.14033  -0.00584   0.00000  -0.03024  -0.02907  -0.16940
   D23       -2.42172   0.00240   0.00000   0.02154   0.02129  -2.40043
   D24        2.30280  -0.00038   0.00000  -0.00856  -0.00779   2.29502
   D25        0.30475   0.00022   0.00000  -0.00288  -0.00324   0.30151
   D26       -1.61486  -0.02626   0.00000  -0.12673  -0.12113  -1.73599
   D27        2.02487  -0.00031   0.00000   0.00765   0.00667   2.03154
   D28       -3.00056   0.00025   0.00000   0.33903   0.33903  -2.66153
         Item               Value     Threshold  Converged?
 Maximum Force            0.033300     0.000450     NO 
 RMS     Force            0.008780     0.000300     NO 
 Maximum Displacement     0.319169     0.001800     NO 
 RMS     Displacement     0.069712     0.001200     NO 
 Predicted change in Energy=-1.540437D-02
 GradGradGradGradGradGradGradGradGradGradGradGradGradGradGradGradGradGrad

                          Input orientation:                          
 ---------------------------------------------------------------------
 Center     Atomic      Atomic             Coordinates (Angstroms)
 Number     Number       Type             X           Y           Z
 ---------------------------------------------------------------------
      1          6           0        1.000918    1.646217   -1.248114
      2          6           0        0.176039    0.628757   -0.734515
      3          6           0        1.450771   -0.457894   -1.428673
      4          8           0        0.522268    2.475787   -2.179339
      5          8           0        1.589460    3.250785   -2.757050
      6          8           0        2.144843   -0.938221   -0.555234
      7          1           0        1.118376    4.054747   -3.030171
      8          1           0        1.887946    1.972242   -0.715041
      9          1           0        1.863980    0.555991   -2.304090
     10          1           0        0.865693   -0.926052   -2.221388
     11          1           0       -0.769841    0.394463   -1.203964
     12          1           0        0.237510    0.446301    0.327960
 ---------------------------------------------------------------------
                    Distance matrix (angstroms):
                    1          2          3          4          5
     1  C    0.000000
     2  C    1.406924   0.000000
     3  C    2.159225   1.813176   0.000000
     4  O    1.335841   2.370424   3.167349   0.000000
     5  O    2.279891   3.600477   3.941842   1.439886   0.000000
     6  O    2.909978   2.522648   1.214639   4.114113   4.764894
     7  H    2.998423   4.230301   4.799918   1.890073   0.971016
     8  H    1.085024   2.176225   2.570205   2.064655   2.427666
     9  H    1.746010   2.306080   1.401805   2.345500   2.746351
    10  H    2.753564   2.259169   1.090818   3.419389   4.272791
    11  H    2.168969   1.081649   2.389168   2.636818   4.017082
    12  H    2.122875   1.079778   2.318476   3.238278   4.382942
                    6          7          8          9         10
     6  O    0.000000
     7  H    5.666453   0.000000
     8  H    2.926146   3.207630   0.000000
     9  H    2.317337   3.650262   2.128712   0.000000
    10  H    2.100581   5.052360   3.422600   1.788818   0.000000
    11  H    3.269906   4.505339   3.129259   2.858912   2.335355
    12  H    2.516914   5.007380   2.477960   3.095984   2.962624
                   11         12
    11  H    0.000000
    12  H    1.834184   0.000000
 Stoichiometry    C3H6O3
 Framework group  C1[X(C3H6O3)]
 Deg. of freedom    30
 Full point group                 C1      NOp   1
 Largest Abelian subgroup         C1      NOp   1
 Largest concise Abelian subgroup C1      NOp   1
                         Standard orientation:                         
 ---------------------------------------------------------------------
 Center     Atomic      Atomic             Coordinates (Angstroms)
 Number     Number       Type             X           Y           Z
 ---------------------------------------------------------------------
      1          6           0       -0.334440    0.276673   -0.386428
      2          6           0        0.713864    1.160190   -0.070375
      3          6           0        1.535301   -0.356598    0.488379
      4          8           0       -1.521764    0.423034    0.207973
      5          8           0       -2.353150   -0.725569   -0.042586
      6          8           0        2.405395   -0.698720   -0.287016
      7          1           0       -3.241374   -0.337777    0.016966
      8          1           0       -0.314612   -0.315398   -1.295458
      9          1           0        0.296613   -0.998322    0.625852
     10          1           0        1.566202   -0.151810    1.559356
     11          1           0        0.631806    1.837253    0.769159
     12          1           0        1.329167    1.494502   -0.892299
 ---------------------------------------------------------------------
 Rotational constants (GHZ):           8.8419892           1.7916760           1.6099389
 Standard basis: 6-31+G(d) (6D, 7F)
 There are   126 symmetry adapted cartesian basis functions of A   symmetry.
 There are   126 symmetry adapted basis functions of A   symmetry.
   126 basis functions,   216 primitive gaussians,   126 cartesian basis functions
    24 alpha electrons       24 beta electrons
       nuclear repulsion energy       237.0678415617 Hartrees.
 NAtoms=   12 NActive=   12 NUniq=   12 SFac= 1.00D+00 NAtFMM=   60 NAOKFM=F Big=F
 Integral buffers will be    131072 words long.
 Raffenetti 2 integral format.
 Two-electron integral symmetry is turned on.
 One-electron integrals computed using PRISM.
 NBasis=   126 RedAO= T EigKep=  7.79D-05  NBF=   126
 NBsUse=   126 1.00D-06 EigRej= -1.00D+00 NBFU=   126
 Initial guess from the checkpoint file:  "/scratch/bell/zhao922/YARP/paper-example/KHP-network/pp_0/TS-folder/Gau-106091.chk"
 B after Tr=     0.000000   -0.000000    0.000000
         Rot=    0.999757    0.021996    0.000833    0.001006 Ang=   2.53 deg.
 ExpMin= 4.38D-02 ExpMax= 5.48D+03 ExpMxC= 8.25D+02 IAcc=3 IRadAn=         5 AccDes= 0.00D+00
 Harris functional with IExCor=  402 and IRadAn=       5 diagonalized for initial guess.
 HarFok:  IExCor=  402 AccDes= 0.00D+00 IRadAn=         5 IDoV= 1 UseB2=F ITyADJ=14
 ICtDFT=  3500011 ScaDFX=  1.000000  1.000000  1.000000  1.000000
 FoFCou: FMM=F IPFlag=           0 FMFlag=      100000 FMFlg1=           0
         NFxFlg=           0 DoJE=T BraDBF=F KetDBF=T FulRan=T
         wScrn=  0.000000 ICntrl=       500 IOpCl=  0 I1Cent=   200000004 NGrid=           0
         NMat0=    1 NMatS0=      1 NMatT0=    0 NMatD0=    1 NMtDS0=    0 NMtDT0=    0
 Petite list used in FoFCou.
 Keep R1 ints in memory in canonical form, NReq=47237537.
 Requested convergence on RMS density matrix=1.00D-08 within 128 cycles.
 Requested convergence on MAX density matrix=1.00D-06.
 Requested convergence on             energy=1.00D-06.
 No special actions if energy rises.
 SCF Done:  E(RB3LYP) =  -343.375219070     A.U. after   14 cycles
            NFock= 14  Conv=0.32D-08     -V/T= 2.0089
 DoSCS=F DFT=T ScalE2(SS,OS)=  1.000000  1.000000
 Range of M.O.s used for correlation:     1   126
 NBasis=   126 NAE=    24 NBE=    24 NFC=     0 NFV=     0
 NROrb=    126 NOA=    24 NOB=    24 NVA=   102 NVB=   102

 **** Warning!!: The largest alpha MO coefficient is  0.30655219D+02

 Symmetrizing basis deriv contribution to polar:
 IMax=3 JMax=2 DiffMx= 0.00D+00
 G2DrvN: will do    13 centers at a time, making    1 passes.
 Calling FoFCou, ICntrl=  3107 FMM=F I1Cent=   0 AccDes= 0.00D+00.
 End of G2Drv F.D. properties file   721 does not exist.
 End of G2Drv F.D. properties file   722 does not exist.
 End of G2Drv F.D. properties file   788 does not exist.
          IDoAtm=111111111111
          Differentiating once with respect to electric field.
                with respect to dipole field.
          Differentiating once with respect to nuclear coordinates.
 Keep R1 ints in memory in canonical form, NReq=47193545.
          There are    39 degrees of freedom in the 1st order CPHF.  IDoFFX=6 NUNeed=     3.
     36 vectors produced by pass  0 Test12= 6.28D-15 2.56D-09 XBig12= 1.44D+02 8.78D+00.
 AX will form    36 AO Fock derivatives at one time.
     36 vectors produced by pass  1 Test12= 6.28D-15 2.56D-09 XBig12= 5.49D+01 1.22D+00.
     36 vectors produced by pass  2 Test12= 6.28D-15 2.56D-09 XBig12= 6.82D-01 1.23D-01.
     36 vectors produced by pass  3 Test12= 6.28D-15 2.56D-09 XBig12= 3.40D-03 1.02D-02.
     36 vectors produced by pass  4 Test12= 6.28D-15 2.56D-09 XBig12= 5.46D-06 2.52D-04.
     26 vectors produced by pass  5 Test12= 6.28D-15 2.56D-09 XBig12= 6.61D-09 1.00D-05.
      4 vectors produced by pass  6 Test12= 6.28D-15 2.56D-09 XBig12= 6.98D-12 2.87D-07.
      1 vectors produced by pass  7 Test12= 6.28D-15 2.56D-09 XBig12= 6.47D-15 1.01D-08.
 InvSVY:  IOpt=1 It=  1 EMax= 3.55D-15
 Solved reduced A of dimension   211 with    39 vectors.
 Isotropic polarizability for W=    0.000000       63.32 Bohr**3.
 End of Minotr F.D. properties file   721 does not exist.
 End of Minotr F.D. properties file   722 does not exist.
 End of Minotr F.D. properties file   788 does not exist.
 Calling FoFJK, ICntrl=    100127 FMM=F ISym2X=0 I1Cent= 0 IOpClX= 0 NMat=1 NMatS=1 NMatT=0.
 ***** Axes restored to original set *****
 -------------------------------------------------------------------
 Center     Atomic                   Forces (Hartrees/Bohr)
 Number     Number              X              Y              Z
 -------------------------------------------------------------------
      1        6           0.001936605    0.003857489   -0.004577114
      2        6           0.002111040   -0.009755872   -0.005164892
      3        6          -0.021536524    0.036990314   -0.014808441
      4        8          -0.019039137   -0.000993150    0.000933050
      5        8           0.018723652   -0.000751550   -0.002521614
      6        8           0.024785769   -0.011072362    0.003436490
      7        1          -0.006281809    0.001597292    0.000701199
      8        1           0.002626539   -0.000110156   -0.000525777
      9        1           0.006486845   -0.017215332    0.021989329
     10        1          -0.003684782   -0.007012838   -0.001353090
     11        1          -0.004923032    0.005695384   -0.001888803
     12        1          -0.001205166   -0.001229218    0.003779663
 -------------------------------------------------------------------
 Cartesian Forces:  Max     0.036990314 RMS     0.011428058
 FormGI is forming the generalized inverse of G from B-inverse, IUseBI=4.

 GradGradGradGradGradGradGradGradGradGradGradGradGradGradGradGradGradGrad
 Berny optimization.
 Internal  Forces:  Max     0.021013354 RMS     0.005801522
 Search for a saddle point.
 Step number   2 out of a maximum of  100
 All quantities printed in internal units (Hartrees-Bohrs-Radians)
 Swapping is turned off.
 Second derivative matrix not updated -- analytic derivatives used.
 ITU=  0  0
     Eigenvalues ---   -0.08999   0.00156   0.00332   0.00674   0.01499
     Eigenvalues ---    0.02023   0.02584   0.03142   0.03210   0.03843
     Eigenvalues ---    0.04304   0.04818   0.06400   0.07404   0.07648
     Eigenvalues ---    0.08800   0.10310   0.12276   0.15011   0.19224
     Eigenvalues ---    0.25325   0.33906   0.34839   0.37010   0.37306
     Eigenvalues ---    0.37693   0.38743   0.47948   0.50871   0.81535
 Eigenvectors required to have negative eigenvalues:
                          R5        R9        R4        D27       D3
   1                    0.48357  -0.46074   0.45241  -0.20719  -0.18288
                          A15       D18       D24       D1        R1
   1                   -0.17566  -0.17474  -0.15075  -0.14552  -0.14364
 RFO step:  Lambda0=2.394624548D-04 Lambda=-2.07365734D-02.
 Linear search not attempted -- option 19 set.
 Maximum step size (   0.300) exceeded in Quadratic search.
    -- Step size scaled by   0.580
 Iteration  1 RMS(Cart)=  0.03256880 RMS(Int)=  0.00178852
 Iteration  2 RMS(Cart)=  0.00147911 RMS(Int)=  0.00097397
 Iteration  3 RMS(Cart)=  0.00000270 RMS(Int)=  0.00097397
 Iteration  4 RMS(Cart)=  0.00000000 RMS(Int)=  0.00097397
 Variable       Old X    -DE/DX   Delta X   Delta X   Delta X     New X
                                 (Linear)    (Quad)   (Total)
    R1        2.65870   0.00363   0.00000   0.02436   0.02319   2.68189
    R2        2.52437   0.00289   0.00000  -0.00171  -0.00171   2.52267
    R3        2.05040   0.00186   0.00000   0.00255   0.00255   2.05295
    R4        3.29948  -0.00250   0.00000  -0.05672  -0.05675   3.24273
    R5        3.42641  -0.00069   0.00000  -0.13575  -0.13519   3.29121
    R6        2.04402   0.00389   0.00000   0.00687   0.00687   2.05090
    R7        2.04048   0.00386   0.00000   0.00762   0.00762   2.04811
    R8        2.29533   0.02101   0.00000   0.03580   0.03580   2.33113
    R9        2.64903  -0.02069   0.00000  -0.19439  -0.19381   2.45522
   R10        2.06135   0.00597   0.00000   0.01857   0.01857   2.07991
   R11        2.72099   0.01041   0.00000   0.02855   0.02855   2.74954
   R12        1.83495   0.00417   0.00000   0.00556   0.00556   1.84052
    A1        2.08691  -0.00139   0.00000  -0.00854  -0.00774   2.07917
    A2        2.11444   0.00089   0.00000   0.00492   0.00428   2.11873
    A3        1.62986  -0.00229   0.00000  -0.04804  -0.04930   1.58056
    A4        2.03624   0.00074   0.00000   0.00793   0.00778   2.04401
    A5        1.71457   0.00371   0.00000   0.05389   0.05387   1.76843
    A6        1.65154  -0.00204   0.00000  -0.01735  -0.01655   1.63498
    A7        1.45198  -0.00417   0.00000  -0.00603  -0.00684   1.44513
    A8        2.10705  -0.00007   0.00000  -0.03050  -0.03107   2.07597
    A9        2.03535  -0.00010   0.00000   0.00231   0.00258   2.03793
   A10        1.89528   0.00320   0.00000   0.03424   0.03495   1.93023
   A11        1.80844   0.00219   0.00000   0.03599   0.03560   1.84404
   A12        2.02666  -0.00057   0.00000  -0.00564  -0.00763   2.01903
   A13        1.94274   0.01280   0.00000   0.06379   0.06503   2.00777
   A14        1.58365   0.00438   0.00000   0.04915   0.05014   1.63379
   A15        1.72981  -0.00025   0.00000   0.01845   0.01706   1.74687
   A16        2.17323  -0.01041   0.00000  -0.07676  -0.08017   2.09306
   A17        2.29075  -0.00490   0.00000  -0.04930  -0.05167   2.23908
   A18        1.58549   0.00175   0.00000   0.03407   0.03282   1.61831
   A19        1.92663  -0.01012   0.00000  -0.01917  -0.01917   1.90746
   A20        1.77105  -0.00919   0.00000  -0.02335  -0.02335   1.74770
   A21        1.49896   0.00299   0.00000   0.02562   0.02589   1.52485
    D1        2.07299  -0.00018   0.00000  -0.00642  -0.00605   2.06695
    D2        0.19482  -0.00147   0.00000  -0.04085  -0.04057   0.15425
    D3       -2.43256   0.00025   0.00000   0.03087   0.03043  -2.40213
    D4       -1.39901   0.00080   0.00000   0.01018   0.01086  -1.38815
    D5        3.00600  -0.00049   0.00000  -0.02425  -0.02366   2.98234
    D6        0.37862   0.00123   0.00000   0.04746   0.04734   0.42596
    D7        0.30230  -0.00290   0.00000  -0.03921  -0.03846   0.26384
    D8       -1.57588  -0.00418   0.00000  -0.07364  -0.07298  -1.64886
    D9        2.07993  -0.00247   0.00000  -0.00192  -0.00198   2.07795
   D10       -2.93744   0.00128   0.00000   0.02142   0.02208  -2.91535
   D11        0.52010   0.00029   0.00000   0.00593   0.00638   0.52648
   D12       -1.21534   0.00048   0.00000  -0.00481  -0.00592  -1.22126
   D13       -0.39342   0.00099   0.00000   0.03923   0.03885  -0.35458
   D14       -2.49717   0.00230   0.00000   0.04941   0.05005  -2.44712
   D15        1.72967   0.00134   0.00000   0.03582   0.03650   1.76617
   D16        1.85181  -0.00455   0.00000  -0.01451  -0.01323   1.83857
   D17       -0.37922   0.00081   0.00000   0.02633   0.02687  -0.35235
   D18       -1.96696  -0.00166   0.00000  -0.01636  -0.01578  -1.98274
   D19       -2.33384  -0.00577   0.00000  -0.04669  -0.04655  -2.38039
   D20        1.71831  -0.00041   0.00000  -0.00586  -0.00645   1.71187
   D21        0.13058  -0.00288   0.00000  -0.04855  -0.04910   0.08148
   D22       -0.16940  -0.00353   0.00000  -0.01506  -0.01396  -0.18336
   D23       -2.40043   0.00183   0.00000   0.02578   0.02615  -2.37428
   D24        2.29502  -0.00064   0.00000  -0.01691  -0.01650   2.27851
   D25        0.30151  -0.00020   0.00000  -0.01315  -0.01411   0.28741
   D26       -1.73599  -0.01605   0.00000  -0.10438  -0.10079  -1.83678
   D27        2.03154  -0.00034   0.00000   0.00667   0.00634   2.03788
   D28       -2.66153   0.00022   0.00000  -0.00498  -0.00498  -2.66650
         Item               Value     Threshold  Converged?
 Maximum Force            0.021013     0.000450     NO 
 RMS     Force            0.005802     0.000300     NO 
 Maximum Displacement     0.154791     0.001800     NO 
 RMS     Displacement     0.033099     0.001200     NO 
 Predicted change in Energy=-9.734246D-03
 GradGradGradGradGradGradGradGradGradGradGradGradGradGradGradGradGradGrad

                          Input orientation:                          
 ---------------------------------------------------------------------
 Center     Atomic      Atomic             Coordinates (Angstroms)
 Number     Number       Type             X           Y           Z
 ---------------------------------------------------------------------
      1          6           0        1.006071    1.645563   -1.250104
      2          6           0        0.184514    0.605898   -0.741915
      3          6           0        1.424646   -0.409314   -1.423611
      4          8           0        0.512258    2.469768   -2.176870
      5          8           0        1.598602    3.240007   -2.763044
      6          8           0        2.188703   -0.922920   -0.602543
      7          1           0        1.114460    4.040563   -3.033805
      8          1           0        1.897654    1.971682   -0.721960
      9          1           0        1.860050    0.518456   -2.222178
     10          1           0        0.851898   -0.902430   -2.223743
     11          1           0       -0.771631    0.412072   -1.217378
     12          1           0        0.220738    0.433781    0.327530
 ---------------------------------------------------------------------
                    Distance matrix (angstroms):
                    1          2          3          4          5
     1  C    0.000000
     2  C    1.419196   0.000000
     3  C    2.104241   1.741634   0.000000
     4  O    1.334938   2.374979   3.112709   0.000000
     5  O    2.276473   3.608758   3.891257   1.454995   0.000000
     6  O    2.900872   2.524576   1.233583   4.098695   4.727149
     7  H    2.988204   4.232551   4.742398   1.887957   0.973959
     8  H    1.086374   2.191030   2.526894   2.069824   2.421591
     9  H    1.715978   2.237464   1.299246   2.371964   2.787065
    10  H    2.732035   2.217266   1.100643   3.389583   4.243606
    11  H    2.163978   1.085287   2.353899   2.608277   4.000538
    12  H    2.138713   1.083812   2.286197   3.240717   4.396028
                    6          7          8          9         10
     6  O    0.000000
     7  H    5.630382   0.000000
     8  H    2.911648   3.199732   0.000000
     9  H    2.192896   3.690513   2.089003   0.000000
    10  H    2.101370   5.015807   3.407268   1.742208   0.000000
    11  H    3.305118   4.474672   3.130959   2.818987   2.318735
    12  H    2.564871   5.010608   2.505717   3.032412   2.948358
                   11         12
    11  H    0.000000
    12  H    1.836303   0.000000
 Stoichiometry    C3H6O3
 Framework group  C1[X(C3H6O3)]
 Deg. of freedom    30
 Full point group                 C1      NOp   1
 Largest Abelian subgroup         C1      NOp   1
 Largest concise Abelian subgroup C1      NOp   1
                         Standard orientation:                         
 ---------------------------------------------------------------------
 Center     Atomic      Atomic             Coordinates (Angstroms)
 Number     Number       Type             X           Y           Z
 ---------------------------------------------------------------------
      1          6           0       -0.330156    0.268807   -0.396022
      2          6           0        0.732566    1.156739   -0.085675
      3          6           0        1.496888   -0.303581    0.476968
      4          8           0       -1.513252    0.438400    0.198607
      5          8           0       -2.337067   -0.739800   -0.025412
      6          8           0        2.384377   -0.744697   -0.257543
      7          1           0       -3.224211   -0.341628    0.029624
      8          1           0       -0.309171   -0.348443   -1.289761
      9          1           0        0.372883   -0.944910    0.592515
     10          1           0        1.547215   -0.091511    1.555814
     11          1           0        0.607254    1.860922    0.730579
     12          1           0        1.337775    1.502555   -0.915604
 ---------------------------------------------------------------------
 Rotational constants (GHZ):           8.7468676           1.8233120           1.6276657
 Standard basis: 6-31+G(d) (6D, 7F)
 There are   126 symmetry adapted cartesian basis functions of A   symmetry.
 There are   126 symmetry adapted basis functions of A   symmetry.
   126 basis functions,   216 primitive gaussians,   126 cartesian basis functions
    24 alpha electrons       24 beta electrons
       nuclear repulsion energy       237.7354200189 Hartrees.
 NAtoms=   12 NActive=   12 NUniq=   12 SFac= 1.00D+00 NAtFMM=   60 NAOKFM=F Big=F
 Integral buffers will be    131072 words long.
 Raffenetti 2 integral format.
 Two-electron integral symmetry is turned on.
 One-electron integrals computed using PRISM.
 NBasis=   126 RedAO= T EigKep=  8.12D-05  NBF=   126
 NBsUse=   126 1.00D-06 EigRej= -1.00D+00 NBFU=   126
 Initial guess from the checkpoint file:  "/scratch/bell/zhao922/YARP/paper-example/KHP-network/pp_0/TS-folder/Gau-106091.chk"
 B after Tr=    -0.000000    0.000000   -0.000000
         Rot=    0.999905    0.013747    0.000604    0.000943 Ang=   1.58 deg.
 ExpMin= 4.38D-02 ExpMax= 5.48D+03 ExpMxC= 8.25D+02 IAcc=3 IRadAn=         5 AccDes= 0.00D+00
 Harris functional with IExCor=  402 and IRadAn=       5 diagonalized for initial guess.
 HarFok:  IExCor=  402 AccDes= 0.00D+00 IRadAn=         5 IDoV= 1 UseB2=F ITyADJ=14
 ICtDFT=  3500011 ScaDFX=  1.000000  1.000000  1.000000  1.000000
 FoFCou: FMM=F IPFlag=           0 FMFlag=      100000 FMFlg1=           0
         NFxFlg=           0 DoJE=T BraDBF=F KetDBF=T FulRan=T
         wScrn=  0.000000 ICntrl=       500 IOpCl=  0 I1Cent=   200000004 NGrid=           0
         NMat0=    1 NMatS0=      1 NMatT0=    0 NMatD0=    1 NMtDS0=    0 NMtDT0=    0
 Petite list used in FoFCou.
 Keep R1 ints in memory in canonical form, NReq=47237537.
 Requested convergence on RMS density matrix=1.00D-08 within 128 cycles.
 Requested convergence on MAX density matrix=1.00D-06.
 Requested convergence on             energy=1.00D-06.
 No special actions if energy rises.
 SCF Done:  E(RB3LYP) =  -343.384604823     A.U. after   13 cycles
            NFock= 13  Conv=0.98D-08     -V/T= 2.0090
 DoSCS=F DFT=T ScalE2(SS,OS)=  1.000000  1.000000
 Range of M.O.s used for correlation:     1   126
 NBasis=   126 NAE=    24 NBE=    24 NFC=     0 NFV=     0
 NROrb=    126 NOA=    24 NOB=    24 NVA=   102 NVB=   102

 **** Warning!!: The largest alpha MO coefficient is  0.25960863D+02

 Symmetrizing basis deriv contribution to polar:
 IMax=3 JMax=2 DiffMx= 0.00D+00
 G2DrvN: will do    13 centers at a time, making    1 passes.
 Calling FoFCou, ICntrl=  3107 FMM=F I1Cent=   0 AccDes= 0.00D+00.
 End of G2Drv F.D. properties file   721 does not exist.
 End of G2Drv F.D. properties file   722 does not exist.
 End of G2Drv F.D. properties file   788 does not exist.
          IDoAtm=111111111111
          Differentiating once with respect to electric field.
                with respect to dipole field.
          Differentiating once with respect to nuclear coordinates.
 Keep R1 ints in memory in canonical form, NReq=47193545.
          There are    39 degrees of freedom in the 1st order CPHF.  IDoFFX=6 NUNeed=     3.
     36 vectors produced by pass  0 Test12= 6.28D-15 2.56D-09 XBig12= 1.52D+02 8.77D+00.
 AX will form    36 AO Fock derivatives at one time.
     36 vectors produced by pass  1 Test12= 6.28D-15 2.56D-09 XBig12= 5.66D+01 1.37D+00.
     36 vectors produced by pass  2 Test12= 6.28D-15 2.56D-09 XBig12= 7.29D-01 1.12D-01.
     36 vectors produced by pass  3 Test12= 6.28D-15 2.56D-09 XBig12= 3.80D-03 9.43D-03.
     36 vectors produced by pass  4 Test12= 6.28D-15 2.56D-09 XBig12= 5.95D-06 3.11D-04.
     26 vectors produced by pass  5 Test12= 6.28D-15 2.56D-09 XBig12= 6.94D-09 9.91D-06.
      4 vectors produced by pass  6 Test12= 6.28D-15 2.56D-09 XBig12= 6.93D-12 3.10D-07.
      2 vectors produced by pass  7 Test12= 6.28D-15 2.56D-09 XBig12= 6.22D-15 1.08D-08.
 InvSVY:  IOpt=1 It=  1 EMax= 2.66D-15
 Solved reduced A of dimension   212 with    39 vectors.
 Isotropic polarizability for W=    0.000000       63.05 Bohr**3.
 End of Minotr F.D. properties file   721 does not exist.
 End of Minotr F.D. properties file   722 does not exist.
 End of Minotr F.D. properties file   788 does not exist.
 Calling FoFJK, ICntrl=    100127 FMM=F ISym2X=0 I1Cent= 0 IOpClX= 0 NMat=1 NMatS=1 NMatT=0.
 ***** Axes restored to original set *****
 -------------------------------------------------------------------
 Center     Atomic                   Forces (Hartrees/Bohr)
 Number     Number              X              Y              Z
 -------------------------------------------------------------------
      1        6           0.000164422    0.004394814   -0.002791051
      2        6           0.003672655   -0.009517293   -0.002661905
      3        6          -0.013423298    0.019827110   -0.008862206
      4        8          -0.009635009   -0.000788926    0.000798220
      5        8           0.009065241   -0.000159506   -0.001501173
      6        8           0.012905601   -0.006236401    0.001786855
      7        1          -0.002934190    0.000622499    0.000330800
      8        1           0.001546820   -0.000142620   -0.000715991
      9        1           0.004398726   -0.007943785    0.012456501
     10        1          -0.001643173   -0.004661729   -0.000252054
     11        1          -0.002701503    0.004454629   -0.000546202
     12        1          -0.001416291    0.000151208    0.001958205
 -------------------------------------------------------------------
 Cartesian Forces:  Max     0.019827110 RMS     0.006422099
 FormGI is forming the generalized inverse of G from B-inverse, IUseBI=4.

 GradGradGradGradGradGradGradGradGradGradGradGradGradGradGradGradGradGrad
 Berny optimization.
 Internal  Forces:  Max     0.011779691 RMS     0.003008922
 Search for a saddle point.
 Step number   3 out of a maximum of  100
 All quantities printed in internal units (Hartrees-Bohrs-Radians)
 Swapping is turned off.
 Second derivative matrix not updated -- analytic derivatives used.
 ITU=  0  0  0
     Eigenvalues ---   -0.07444   0.00230   0.00338   0.00878   0.01569
     Eigenvalues ---    0.02141   0.03102   0.03286   0.03610   0.04027
     Eigenvalues ---    0.04778   0.05152   0.07416   0.07821   0.08192
     Eigenvalues ---    0.09576   0.11045   0.12325   0.14687   0.18556
     Eigenvalues ---    0.24615   0.31751   0.34046   0.36092   0.36491
     Eigenvalues ---    0.36917   0.37349   0.47996   0.49931   0.73897
 Eigenvectors required to have negative eigenvalues:
                          R4        R5        R9        D27       D3
   1                    0.50648   0.45593  -0.40218  -0.20181  -0.19096
                          A15       D18       D24       R1        D21
   1                   -0.19016  -0.18496  -0.16545  -0.14968  -0.14415
 RFO step:  Lambda0=7.787433043D-06 Lambda=-6.79649802D-03.
 Linear search not attempted -- option 19 set.
 Maximum step size (   0.300) exceeded in Quadratic search.
    -- Step size scaled by   0.988
 Iteration  1 RMS(Cart)=  0.03959056 RMS(Int)=  0.00309241
 Iteration  2 RMS(Cart)=  0.00252858 RMS(Int)=  0.00152644
 Iteration  3 RMS(Cart)=  0.00000964 RMS(Int)=  0.00152642
 Iteration  4 RMS(Cart)=  0.00000002 RMS(Int)=  0.00152642
 Variable       Old X    -DE/DX   Delta X   Delta X   Delta X     New X
                                 (Linear)    (Quad)   (Total)
    R1        2.68189   0.00275   0.00000   0.02902   0.02818   2.71007
    R2        2.52267   0.00135   0.00000  -0.01070  -0.01070   2.51197
    R3        2.05295   0.00088   0.00000   0.00151   0.00151   2.05446
    R4        3.24273  -0.00111   0.00000   0.03920   0.03923   3.28196
    R5        3.29121  -0.00119   0.00000  -0.14179  -0.14111   3.15010
    R6        2.05090   0.00182   0.00000   0.00799   0.00799   2.05889
    R7        2.04811   0.00186   0.00000   0.00780   0.00780   2.05590
    R8        2.33113   0.01178   0.00000   0.04261   0.04261   2.37375
    R9        2.45522  -0.00960   0.00000  -0.14506  -0.14506   2.31016
   R10        2.07991   0.00313   0.00000   0.01774   0.01774   2.09765
   R11        2.74954   0.00529   0.00000   0.02820   0.02820   2.77774
   R12        1.84052   0.00188   0.00000   0.00488   0.00488   1.84540
    A1        2.07917  -0.00074   0.00000  -0.01265  -0.01191   2.06726
    A2        2.11873   0.00045   0.00000   0.01878   0.01682   2.13555
    A3        1.58056  -0.00177   0.00000  -0.07189  -0.07313   1.50743
    A4        2.04401   0.00050   0.00000   0.01084   0.01044   2.05446
    A5        1.76843   0.00233   0.00000   0.06165   0.06028   1.82871
    A6        1.63498  -0.00115   0.00000  -0.04222  -0.03942   1.59557
    A7        1.44513  -0.00157   0.00000   0.03460   0.03372   1.47885
    A8        2.07597  -0.00084   0.00000  -0.05949  -0.06276   2.01322
    A9        2.03793   0.00015   0.00000  -0.00127  -0.00290   2.03503
   A10        1.93023   0.00189   0.00000   0.05016   0.05344   1.98367
   A11        1.84404   0.00142   0.00000   0.04885   0.04733   1.89137
   A12        2.01903  -0.00042   0.00000  -0.01811  -0.02333   1.99570
   A13        2.00777   0.00628   0.00000   0.04490   0.04567   2.05344
   A14        1.63379   0.00224   0.00000   0.05661   0.05610   1.68989
   A15        1.74687   0.00019   0.00000   0.03197   0.03091   1.77778
   A16        2.09306  -0.00570   0.00000  -0.07934  -0.08179   2.01127
   A17        2.23908  -0.00339   0.00000  -0.06814  -0.06905   2.17003
   A18        1.61831   0.00145   0.00000   0.05225   0.05140   1.66970
   A19        1.90746  -0.00464   0.00000  -0.01238  -0.01238   1.89508
   A20        1.74770  -0.00435   0.00000  -0.02083  -0.02083   1.72687
   A21        1.52485   0.00184   0.00000   0.02033   0.01903   1.54388
    D1        2.06695  -0.00021   0.00000  -0.03537  -0.03439   2.03256
    D2        0.15425  -0.00147   0.00000  -0.10780  -0.10640   0.04785
    D3       -2.40213   0.00062   0.00000   0.03624   0.03511  -2.36702
    D4       -1.38815   0.00063   0.00000   0.02911   0.03076  -1.35739
    D5        2.98234  -0.00064   0.00000  -0.04332  -0.04125   2.94108
    D6        0.42596   0.00145   0.00000   0.10072   0.10025   0.52622
    D7        0.26384  -0.00178   0.00000  -0.06337  -0.06126   0.20258
    D8       -1.64886  -0.00304   0.00000  -0.13580  -0.13327  -1.78213
    D9        2.07795  -0.00095   0.00000   0.00824   0.00824   2.08619
   D10       -2.91535   0.00103   0.00000   0.04330   0.04432  -2.87103
   D11        0.52648   0.00023   0.00000  -0.02011  -0.01916   0.50732
   D12       -1.22126   0.00012   0.00000  -0.00854  -0.01050  -1.23177
   D13       -0.35458   0.00123   0.00000   0.07965   0.07777  -0.27681
   D14       -2.44712   0.00211   0.00000   0.10186   0.10243  -2.34469
   D15        1.76617   0.00147   0.00000   0.09050   0.09218   1.85835
   D16        1.83857  -0.00169   0.00000   0.01857   0.02019   1.85876
   D17       -0.35235   0.00105   0.00000   0.05851   0.06095  -0.29140
   D18       -1.98274  -0.00085   0.00000  -0.00736  -0.00654  -1.98928
   D19       -2.38039  -0.00304   0.00000  -0.02973  -0.02985  -2.41024
   D20        1.71187  -0.00030   0.00000   0.01022   0.01091   1.72278
   D21        0.08148  -0.00221   0.00000  -0.05566  -0.05658   0.02490
   D22       -0.18336  -0.00145   0.00000   0.01146   0.01221  -0.17115
   D23       -2.37428   0.00129   0.00000   0.05140   0.05297  -2.32131
   D24        2.27851  -0.00061   0.00000  -0.01447  -0.01452   2.26399
   D25        0.28741  -0.00052   0.00000  -0.04640  -0.04884   0.23857
   D26       -1.83678  -0.00741   0.00000  -0.10809  -0.10581  -1.94259
   D27        2.03788  -0.00009   0.00000  -0.00712  -0.00684   2.03104
   D28       -2.66650   0.00001   0.00000  -0.02395  -0.02395  -2.69046
         Item               Value     Threshold  Converged?
 Maximum Force            0.011780     0.000450     NO 
 RMS     Force            0.003009     0.000300     NO 
 Maximum Displacement     0.171430     0.001800     NO 
 RMS     Displacement     0.039466     0.001200     NO 
 Predicted change in Energy=-4.041179D-03
 GradGradGradGradGradGradGradGradGradGradGradGradGradGradGradGradGradGrad

                          Input orientation:                          
 ---------------------------------------------------------------------
 Center     Atomic      Atomic             Coordinates (Angstroms)
 Number     Number       Type             X           Y           Z
 ---------------------------------------------------------------------
      1          6           0        1.013648    1.666656   -1.238640
      2          6           0        0.213451    0.579092   -0.755366
      3          6           0        1.398148   -0.386487   -1.420881
      4          8           0        0.498808    2.468557   -2.165392
      5          8           0        1.588937    3.250285   -2.766374
      6          8           0        2.189620   -0.963797   -0.634652
      7          1           0        1.075268    4.028022   -3.057761
      8          1           0        1.915950    1.996252   -0.729557
      9          1           0        1.902289    0.471059   -2.131461
     10          1           0        0.845460   -0.895086   -2.238213
     11          1           0       -0.759878    0.468257   -1.232221
     12          1           0        0.206262    0.420315    0.320898
 ---------------------------------------------------------------------
                    Distance matrix (angstroms):
                    1          2          3          4          5
     1  C    0.000000
     2  C    1.434107   0.000000
     3  C    2.096771   1.666961   0.000000
     4  O    1.329276   2.374801   3.084540   0.000000
     5  O    2.274381   3.615437   3.882379   1.469918   0.000000
     6  O    2.943976   2.510044   1.256133   4.121051   4.760625
     7  H    2.981450   4.235430   4.719271   1.886944   0.976543
     8  H    1.087174   2.215290   2.534462   2.071951   2.414158
     9  H    1.736739   2.181165   1.222484   2.441497   2.867996
    10  H    2.754988   2.184370   1.110031   3.382243   4.244504
    11  H    2.140467   1.089516   2.328789   2.540925   3.950980
    12  H    2.153462   1.087937   2.259495   3.234582   4.410417
                    6          7          8          9         10
     6  O    0.000000
     7  H    5.659637   0.000000
     8  H    2.974188   3.202400   0.000000
     9  H    2.093277   3.767490   2.071651   0.000000
    10  H    2.093536   4.996145   3.432467   1.730502   0.000000
    11  H    3.332777   4.401396   3.122098   2.809942   2.334060
    12  H    2.600490   5.018572   2.551484   2.982138   2.947525
                   11         12
    11  H    0.000000
    12  H    1.829728   0.000000
 Stoichiometry    C3H6O3
 Framework group  C1[X(C3H6O3)]
 Deg. of freedom    30
 Full point group                 C1      NOp   1
 Largest Abelian subgroup         C1      NOp   1
 Largest concise Abelian subgroup C1      NOp   1
                         Standard orientation:                         
 ---------------------------------------------------------------------
 Center     Atomic      Atomic             Coordinates (Angstroms)
 Number     Number       Type             X           Y           Z
 ---------------------------------------------------------------------
      1          6           0       -0.348461    0.265137   -0.419727
      2          6           0        0.746230    1.127296   -0.080615
      3          6           0        1.477906   -0.269241    0.460768
      4          8           0       -1.511290    0.445173    0.198650
      5          8           0       -2.345446   -0.745882   -0.016365
      6          8           0        2.410237   -0.745701   -0.233217
      7          1           0       -3.225654   -0.334447    0.081576
      8          1           0       -0.338650   -0.367418   -1.303879
      9          1           0        0.465609   -0.952580    0.513396
     10          1           0        1.542222   -0.084274    1.553389
     11          1           0        0.543765    1.849406    0.709707
     12          1           0        1.330649    1.521447   -0.909293
 ---------------------------------------------------------------------
 Rotational constants (GHZ):           8.9019425           1.8104422           1.6200487
 Standard basis: 6-31+G(d) (6D, 7F)
 There are   126 symmetry adapted cartesian basis functions of A   symmetry.
 There are   126 symmetry adapted basis functions of A   symmetry.
   126 basis functions,   216 primitive gaussians,   126 cartesian basis functions
    24 alpha electrons       24 beta electrons
       nuclear repulsion energy       237.6599784551 Hartrees.
 NAtoms=   12 NActive=   12 NUniq=   12 SFac= 1.00D+00 NAtFMM=   60 NAOKFM=F Big=F
 Integral buffers will be    131072 words long.
 Raffenetti 2 integral format.
 Two-electron integral symmetry is turned on.
 One-electron integrals computed using PRISM.
 NBasis=   126 RedAO= T EigKep=  8.75D-05  NBF=   126
 NBsUse=   126 1.00D-06 EigRej= -1.00D+00 NBFU=   126
 Initial guess from the checkpoint file:  "/scratch/bell/zhao922/YARP/paper-example/KHP-network/pp_0/TS-folder/Gau-106091.chk"
 B after Tr=     0.000000   -0.000000    0.000000
         Rot=    0.999991    0.004020    0.000129   -0.001234 Ang=   0.48 deg.
 ExpMin= 4.38D-02 ExpMax= 5.48D+03 ExpMxC= 8.25D+02 IAcc=3 IRadAn=         5 AccDes= 0.00D+00
 Harris functional with IExCor=  402 and IRadAn=       5 diagonalized for initial guess.
 HarFok:  IExCor=  402 AccDes= 0.00D+00 IRadAn=         5 IDoV= 1 UseB2=F ITyADJ=14
 ICtDFT=  3500011 ScaDFX=  1.000000  1.000000  1.000000  1.000000
 FoFCou: FMM=F IPFlag=           0 FMFlag=      100000 FMFlg1=           0
         NFxFlg=           0 DoJE=T BraDBF=F KetDBF=T FulRan=T
         wScrn=  0.000000 ICntrl=       500 IOpCl=  0 I1Cent=   200000004 NGrid=           0
         NMat0=    1 NMatS0=      1 NMatT0=    0 NMatD0=    1 NMtDS0=    0 NMtDT0=    0
 Petite list used in FoFCou.
 Keep R1 ints in memory in canonical form, NReq=47237537.
 Requested convergence on RMS density matrix=1.00D-08 within 128 cycles.
 Requested convergence on MAX density matrix=1.00D-06.
 Requested convergence on             energy=1.00D-06.
 No special actions if energy rises.
 SCF Done:  E(RB3LYP) =  -343.388363826     A.U. after   14 cycles
            NFock= 14  Conv=0.25D-08     -V/T= 2.0090
 DoSCS=F DFT=T ScalE2(SS,OS)=  1.000000  1.000000
 Range of M.O.s used for correlation:     1   126
 NBasis=   126 NAE=    24 NBE=    24 NFC=     0 NFV=     0
 NROrb=    126 NOA=    24 NOB=    24 NVA=   102 NVB=   102

 **** Warning!!: The largest alpha MO coefficient is  0.25550217D+02

 Symmetrizing basis deriv contribution to polar:
 IMax=3 JMax=2 DiffMx= 0.00D+00
 G2DrvN: will do    13 centers at a time, making    1 passes.
 Calling FoFCou, ICntrl=  3107 FMM=F I1Cent=   0 AccDes= 0.00D+00.
 End of G2Drv F.D. properties file   721 does not exist.
 End of G2Drv F.D. properties file   722 does not exist.
 End of G2Drv F.D. properties file   788 does not exist.
          IDoAtm=111111111111
          Differentiating once with respect to electric field.
                with respect to dipole field.
          Differentiating once with respect to nuclear coordinates.
 Keep R1 ints in memory in canonical form, NReq=47193545.
          There are    39 degrees of freedom in the 1st order CPHF.  IDoFFX=6 NUNeed=     3.
     36 vectors produced by pass  0 Test12= 6.28D-15 2.56D-09 XBig12= 1.92D+02 1.05D+01.
 AX will form    36 AO Fock derivatives at one time.
     36 vectors produced by pass  1 Test12= 6.28D-15 2.56D-09 XBig12= 7.50D+01 1.60D+00.
     36 vectors produced by pass  2 Test12= 6.28D-15 2.56D-09 XBig12= 1.02D+00 1.47D-01.
     36 vectors produced by pass  3 Test12= 6.28D-15 2.56D-09 XBig12= 5.70D-03 1.28D-02.
     36 vectors produced by pass  4 Test12= 6.28D-15 2.56D-09 XBig12= 8.48D-06 4.31D-04.
     27 vectors produced by pass  5 Test12= 6.28D-15 2.56D-09 XBig12= 9.49D-09 1.04D-05.
      4 vectors produced by pass  6 Test12= 6.28D-15 2.56D-09 XBig12= 8.31D-12 3.19D-07.
      2 vectors produced by pass  7 Test12= 6.28D-15 2.56D-09 XBig12= 6.59D-15 1.01D-08.
 InvSVY:  IOpt=1 It=  1 EMax= 3.55D-15
 Solved reduced A of dimension   213 with    39 vectors.
 Isotropic polarizability for W=    0.000000       64.29 Bohr**3.
 End of Minotr F.D. properties file   721 does not exist.
 End of Minotr F.D. properties file   722 does not exist.
 End of Minotr F.D. properties file   788 does not exist.
 Calling FoFJK, ICntrl=    100127 FMM=F ISym2X=0 I1Cent= 0 IOpClX= 0 NMat=1 NMatS=1 NMatT=0.
 ***** Axes restored to original set *****
 -------------------------------------------------------------------
 Center     Atomic                   Forces (Hartrees/Bohr)
 Number     Number              X              Y              Z
 -------------------------------------------------------------------
      1        6          -0.000201232    0.002423528    0.000559759
      2        6          -0.000191779   -0.001800234    0.000621928
      3        6          -0.003344285   -0.000352595   -0.002896615
      4        8          -0.001172077   -0.000174928   -0.000070622
      5        8           0.000678770    0.000245754   -0.000224181
      6        8           0.001863999   -0.001623642    0.001696348
      7        1          -0.000126027   -0.000027116   -0.000042896
      8        1           0.000479003   -0.000019629   -0.000695524
      9        1           0.002795962    0.001137407    0.000199118
     10        1           0.000077006   -0.000678249    0.000216294
     11        1          -0.000455940    0.000357986    0.000345296
     12        1          -0.000403401    0.000511718    0.000291095
 -------------------------------------------------------------------
 Cartesian Forces:  Max     0.003344285 RMS     0.001200923
 FormGI is forming the generalized inverse of G from B-inverse, IUseBI=4.

 GradGradGradGradGradGradGradGradGradGradGradGradGradGradGradGradGradGrad
 Berny optimization.
 Internal  Forces:  Max     0.002982253 RMS     0.000629274
 Search for a saddle point.
 Step number   4 out of a maximum of  100
 All quantities printed in internal units (Hartrees-Bohrs-Radians)
 Swapping is turned off.
 Second derivative matrix not updated -- analytic derivatives used.
 ITU=  0  0  0  0
     Eigenvalues ---   -0.05237   0.00272   0.00297   0.01069   0.01669
     Eigenvalues ---    0.02465   0.03012   0.03308   0.03493   0.04178
     Eigenvalues ---    0.04781   0.05746   0.07491   0.08246   0.09910
     Eigenvalues ---    0.10960   0.12104   0.12588   0.14999   0.17583
     Eigenvalues ---    0.23826   0.29782   0.33153   0.34559   0.35504
     Eigenvalues ---    0.36080   0.36832   0.48645   0.49366   0.65964
 Eigenvectors required to have negative eigenvalues:
                          R4        R5        R9        A15       D3
   1                    0.57902   0.38997  -0.32488  -0.19905  -0.19603
                          D18       D24       D27       R1        D21
   1                   -0.19216  -0.18546  -0.18003  -0.15074  -0.14710
 RFO step:  Lambda0=6.349812269D-08 Lambda=-4.58315888D-04.
 Linear search not attempted -- option 19 set.
 Iteration  1 RMS(Cart)=  0.03404941 RMS(Int)=  0.00110637
 Iteration  2 RMS(Cart)=  0.00125001 RMS(Int)=  0.00025019
 Iteration  3 RMS(Cart)=  0.00000094 RMS(Int)=  0.00025019
 Variable       Old X    -DE/DX   Delta X   Delta X   Delta X     New X
                                 (Linear)    (Quad)   (Total)
    R1        2.71007   0.00174   0.00000   0.00875   0.00871   2.71878
    R2        2.51197   0.00050   0.00000  -0.00175  -0.00175   2.51022
    R3        2.05446   0.00007   0.00000  -0.00052  -0.00052   2.05394
    R4        3.28196   0.00094   0.00000   0.02840   0.02841   3.31037
    R5        3.15010   0.00117   0.00000  -0.00959  -0.00960   3.14050
    R6        2.05889   0.00022   0.00000   0.00101   0.00101   2.05990
[...]
 Maximum Force            0.000005     0.000450     YES
 RMS     Force            0.000002     0.000300     YES
 Maximum Displacement     0.001127     0.001800     YES
 RMS     Displacement     0.000348     0.001200     YES
 Predicted change in Energy=-9.598498D-09
 Optimization completed.
    -- Stationary point found.
                           ----------------------------
                           !   Optimized Parameters   !
                           ! (Angstroms and Degrees)  !
 --------------------------                            --------------------------
 ! Name  Definition              Value          Derivative Info.                !
 --------------------------------------------------------------------------------
 ! R1    R(1,2)                  1.4391         -DE/DX =    0.0                 !
 ! R2    R(1,4)                  1.3285         -DE/DX =    0.0                 !
 ! R3    R(1,8)                  1.0868         -DE/DX =    0.0                 !
 ! R4    R(1,9)                  1.7512         -DE/DX =    0.0                 !
 ! R5    R(2,3)                  1.6618         -DE/DX =    0.0                 !
 ! R6    R(2,11)                 1.09           -DE/DX =    0.0                 !
 ! R7    R(2,12)                 1.0886         -DE/DX =    0.0                 !
 ! R8    R(3,6)                  1.26           -DE/DX =    0.0                 !
 ! R9    R(3,9)                  1.2282         -DE/DX =    0.0                 !
 ! R10   R(3,10)                 1.1097         -DE/DX =    0.0                 !
 ! R11   R(4,5)                  1.471          -DE/DX =    0.0                 !
 ! R12   R(5,7)                  0.9767         -DE/DX =    0.0                 !
 ! A1    A(2,1,4)              117.9315         -DE/DX =    0.0                 !
 ! A2    A(2,1,8)              123.2192         -DE/DX =    0.0                 !
 ! A3    A(2,1,9)               85.8779         -DE/DX =    0.0                 !
 ! A4    A(4,1,8)              117.6285         -DE/DX =    0.0                 !
 ! A5    A(4,1,9)              105.1838         -DE/DX =    0.0                 !
 ! A6    A(8,1,9)               90.5289         -DE/DX =    0.0                 !
 ! A7    A(1,2,3)               86.0647         -DE/DX =    0.0                 !
 ! A8    A(1,2,11)             115.1141         -DE/DX =    0.0                 !
 ! A9    A(1,2,12)             115.9078         -DE/DX =    0.0                 !
 ! A10   A(3,2,11)             114.0286         -DE/DX =    0.0                 !
 ! A11   A(3,2,12)             108.8812         -DE/DX =    0.0                 !
 ! A12   A(11,2,12)            113.704          -DE/DX =    0.0                 !
 ! A13   A(2,3,6)              117.6965         -DE/DX =    0.0                 !
 ! A14   A(2,3,9)               97.1105         -DE/DX =    0.0                 !
 ! A15   A(2,3,10)             102.4799         -DE/DX =    0.0                 !
 ! A16   A(6,3,9)              114.4796         -DE/DX =    0.0                 !
 ! A17   A(6,3,10)             123.7331         -DE/DX =    0.0                 !
 ! A18   A(9,3,10)              96.3764         -DE/DX =    0.0                 !
 ! A19   A(1,4,5)              108.5877         -DE/DX =    0.0                 !
 ! A20   A(4,5,7)               98.8558         -DE/DX =    0.0                 !
 ! A21   A(1,9,3)               89.0551         -DE/DX =    0.0                 !
 ! D1    D(4,1,2,3)            113.4464         -DE/DX =    0.0                 !
 ! D2    D(4,1,2,11)            -1.295          -DE/DX =    0.0                 !
 ! D3    D(4,1,2,12)          -137.4547         -DE/DX =    0.0                 !
 ! D4    D(8,1,2,3)            -79.4942         -DE/DX =    0.0                 !
 ! D5    D(8,1,2,11)           165.7644         -DE/DX =    0.0                 !
 ! D6    D(8,1,2,12)            29.6047         -DE/DX =    0.0                 !
 ! D7    D(9,1,2,3)              8.4351         -DE/DX =    0.0                 !
 ! D8    D(9,1,2,11)          -106.3063         -DE/DX =    0.0                 !
 ! D9    D(9,1,2,12)           117.534          -DE/DX =    0.0                 !
 ! D10   D(2,1,4,5)           -164.4478         -DE/DX =    0.0                 !
 ! D11   D(8,1,4,5)             27.7599         -DE/DX =    0.0                 !
 ! D12   D(9,1,4,5)            -71.032          -DE/DX =    0.0                 !
 ! D13   D(2,1,9,3)            -11.4222         -DE/DX =    0.0                 !
 ! D14   D(4,1,9,3)           -129.2657         -DE/DX =    0.0                 !
 ! D15   D(8,1,9,3)            111.8503         -DE/DX =    0.0                 !
 ! D16   D(1,2,3,6)            110.3504         -DE/DX =    0.0                 !
 ! D17   D(1,2,3,9)            -12.136          -DE/DX =    0.0                 !
 ! D18   D(1,2,3,10)          -110.3133         -DE/DX =    0.0                 !
 ! D19   D(11,2,3,6)          -133.8567         -DE/DX =    0.0                 !
 ! D20   D(11,2,3,9)           103.6569         -DE/DX =    0.0                 !
 ! D21   D(11,2,3,10)            5.4797         -DE/DX =    0.0                 !
 ! D22   D(12,2,3,6)            -5.7111         -DE/DX =    0.0                 !
 ! D23   D(12,2,3,9)          -128.1974         -DE/DX =    0.0                 !
 ! D24   D(12,2,3,10)          133.6253         -DE/DX =    0.0                 !
 ! D25   D(2,3,9,1)              9.9259         -DE/DX =    0.0                 !
 ! D26   D(6,3,9,1)           -114.9253         -DE/DX =    0.0                 !
 ! D27   D(10,3,9,1)           113.4037         -DE/DX =    0.0                 !
 ! D28   D(1,4,5,7)           -157.0967         -DE/DX =    0.0                 !
 --------------------------------------------------------------------------------
 GradGradGradGradGradGradGradGradGradGradGradGradGradGradGradGradGradGrad


 ----------------------------------------------------------------------

 Electric dipole moment (input orientation):
 (Debye = 10**-18 statcoulomb cm , SI units = C m)
                  (au)            (Debye)         (10**-30 SI)
   Tot        0.262549D+01      0.667334D+01      0.222599D+02
   x         -0.129961D+01     -0.330329D+01     -0.110186D+02
   y          0.215436D+01      0.547584D+01      0.182655D+02
   z         -0.750294D+00     -0.190706D+01     -0.636126D+01

 Dipole polarizability, Alpha (input orientation).
 (esu units = cm**3 , SI units = C**2 m**2 J**-1)
 Alpha(0;0):
               (au)            (10**-24 esu)      (10**-40 SI)
   iso        0.649348D+02      0.962234D+01      0.107063D+02
   aniso      0.503925D+02      0.746739D+01      0.830860D+01
   xx         0.506103D+02      0.749967D+01      0.834451D+01
   yx        -0.753942D+01     -0.111723D+01     -0.124308D+01
   yy         0.920368D+02      0.136384D+02      0.151748D+02
   zx        -0.111336D+01     -0.164983D+00     -0.183568D+00
   zy        -0.153915D+02     -0.228078D+01     -0.253771D+01
   zz         0.521573D+02      0.772891D+01      0.859957D+01

 ----------------------------------------------------------------------

 Dipole orientation:
     6          3.70177121         -0.22832300          2.31825043
     6          1.39199558          0.50688535          1.08553029
     6          3.22810313          1.74391597         -1.14160827
     8          4.26179648          0.85815295          4.51110030
     8          6.94519582          0.39482356          5.06980681
     8          3.25436073          0.67974831         -3.27154458
     1          6.89534660          0.61085833          6.90205639
     1          4.80046071         -1.87187064          1.76156295
     1          5.22886637          1.60687533          0.02666520
     1          2.94184686          3.80388919         -0.87242419
     1          0.26000092          1.89322693          2.10491093
     1          0.28599324         -1.02077648          0.26388932

 Electric dipole moment (dipole orientation):
 (Debye = 10**-18 statcoulomb cm , SI units = C m)
                  (au)            (Debye)         (10**-30 SI)
   Tot        0.262549D+01      0.667334D+01      0.222599D+02
   x          0.000000D+00      0.000000D+00      0.000000D+00
   y          0.000000D+00      0.000000D+00      0.000000D+00
   z          0.262549D+01      0.667334D+01      0.222599D+02

 Dipole polarizability, Alpha (dipole orientation).
 (esu units = cm**3 , SI units = C**2 m**2 J**-1)
 Alpha(0;0):
               (au)            (10**-24 esu)      (10**-40 SI)
   iso        0.649348D+02      0.962234D+01      0.107063D+02
   aniso      0.503925D+02      0.746739D+01      0.830860D+01
   xx         0.569734D+02      0.844258D+01      0.939364D+01
   yx        -0.102004D+01     -0.151154D+00     -0.168181D+00
   yy         0.461734D+02      0.684220D+01      0.761297D+01
   zx         0.147542D+02      0.218635D+01      0.243264D+01
   zy        -0.793728D+01     -0.117618D+01     -0.130868D+01
   zz         0.916575D+02      0.135822D+02      0.151123D+02

 ----------------------------------------------------------------------
 1\1\GINC-BELL-A094\Freq\RB3LYP\6-31+G(d)\C3H6O3\ZHAO922\23-Dec-2020\0\
 \#N Geom=AllCheck Guess=TCheck SCRF=Check GenChk RB3LYP/6-31+G(d) Freq
 \\pp_12_1 TS\\0,1\C,1.016518635,1.6829921576,-1.2210816023\C,0.2271603
 946,0.576283558,-0.7488795276\C,1.390219632,-0.3956622501,-1.430177359
 \O,0.5003763064,2.4549223074,-2.1711565316\O,1.5808738154,3.2628867907
 ,-2.7573539972\O,2.1372783851,-1.0478906868,-0.652875059\H,1.043465571
 ,3.9956964175,-3.1151836072\H,1.9076905285,2.0392153146,-0.7110294686\
 H,1.964105049,0.480627704,-2.0714262251\H,0.8527379419,-0.8458807056,-
 2.2903820256\H,-0.7564797149,0.4802362784,-1.2084943195\H,0.224016456,
 0.4196981142,0.3284207226\\Version=ES64L-G16RevB.01\State=1-A\HF=-343.
 3886251\RMSD=2.160e-09\RMSF=3.551e-06\ZeroPoint=0.0874913\Thermal=0.09
 43146\Dipole=-1.2996141,2.1543632,-0.7502943\DipoleDeriv=0.5150787,-0.
 7319987,0.1257148,-0.1109733,1.1326598,-0.2521336,0.0086357,-0.417074,
 0.4634189,-0.1575313,0.2210703,0.1343985,0.0705142,-0.3396754,0.073311
 1,0.1892214,-0.085794,-0.0563536,0.667736,-0.6296743,0.3022175,-0.5314
 134,1.3902937,-0.393564,0.4055495,-0.7661309,0.6748323,-0.3240369,0.91
 85676,-0.3811219,0.2355681,-0.6462518,0.0116999,-0.2046289,0.3292882,-
 0.16992,-0.084559,-0.4143273,0.1832069,-0.0966944,-0.5134067,0.1822005
 ,-0.0079347,0.3243929,-0.4827298,-0.8014938,0.6350774,-0.3086845,0.301
 1892,-1.0771724,0.1934607,-0.4164691,0.6960735,-0.7606186,0.1962116,-0
 .0067797,0.0299597,0.0387488,0.3791605,0.0122139,0.0059571,-0.01784,0.
 3802928,0.0463951,0.1122246,-0.0500053,-0.020527,-0.0472723,0.019403,0
 .021858,-0.0964753,0.0945293,-0.0775873,-0.0420151,0.1184754,0.094383,
 -0.3730859,0.185271,0.1415164,0.1334516,-0.1512468,0.0253302,-0.088741
 5,-0.1263276,0.0082541,-0.1228578,-0.0383891,-0.0941561,-0.1112029,-0.
 0470923,-0.0387723,-0.0118969,-0.0142617,0.0140606,0.1274071,-0.021524
 9,-0.0635481,0.0030811,0.0267295,0.0332291,0.0384936,-0.0135718,-0.003
 1099,0.0902013,0.0280517,0.0139987,0.0082298,0.0281583\Polar=50.610288
 8,-7.5394216,92.0367916,-1.1133585,-15.3914596,52.1572519\Quadrupole=-
 1.0520754,-0.4331865,1.485262,4.2154445,-1.1034033,1.4982696\PG=C01 [X
 (C3H6O3)]\NImag=1\\0.52829496,0.20416483,0.45295638,0.21595307,-0.1641
 5999,0.41785005,-0.17581278,-0.14096567,0.04298915,0.54992735,-0.06963
 139,-0.15453980,0.02082615,0.15802192,0.28723734,0.02434338,0.07850657
 ,-0.10855851,0.06440138,-0.12359367,0.61362726,0.08438425,0.01582840,-
 0.08084118,-0.01190904,-0.09721579,-0.00121998,0.31447420,0.03718785,-
 0.07594962,-0.03031784,-0.00750996,-0.03353536,-0.00009941,-0.06597426
 ,0.35307394,-0.09216507,0.00810208,0.03461140,-0.00959238,0.04404617,-
 0.06037633,0.31562839,-0.02097796,0.46626447,-0.15218716,0.02180375,-0
 .10012614,0.01428413,-0.01270379,0.01739453,-0.01369905,-0.00478798,0.
 01021467,0.30293389,0.05781630,-0.12943894,0.12424340,0.00148653,-0.02
 341354,0.02308576,0.02244850,0.01303565,-0.01737948,-0.00655011,0.2552
 0000,-0.11627196,0.08826864,-0.19214205,-0.00137710,0.02846463,-0.0115
 5009,0.00206402,-0.00417921,0.01355567,0.08878582,-0.19957002,0.257627
 43,0.02017409,0.00204051,0.00819551,0.00425095,0.00311475,-0.00458021,
 -0.00704727,-0.00373130,0.00680523,-0.15578224,-0.03104153,0.01412015,
 0.33219668,-0.02790721,-0.03287794,0.02654547,0.00404280,0.00295508,0.
 00609197,-0.00754386,-0.00118404,0.00510028,-0.05369938,-0.07685814,0.
 04674793,-0.14282799,0.37475944,0.03122342,0.03363463,-0.02432577,-0.0
 0806034,0.00037979,0.00035763,0.00866123,0.00270567,-0.00699417,0.0220
 4920,0.03858869,-0.03917576,0.05434733,-0.20386508,0.12778282,-0.01260
 394,-0.00583566,0.01538664,-0.03126149,0.04853826,-0.01313564,-0.21446
 646,0.11652373,-0.17652287,0.00066814,-0.00308546,-0.00090861,0.003083
 29,0.00342748,-0.00355448,0.25157269,-0.00609395,0.01821135,0.01238547
 ,0.03053905,-0.02206166,0.00435405,0.13750728,-0.17233637,0.13073104,0
 .00658153,-0.00790384,0.00104321,-0.00077391,-0.00022522,0.00086269,-0
 .18114384,0.21027352,0.02346526,-0.01175310,-0.00573471,-0.00676924,0.
 00189071,0.01572482,-0.18293218,0.11730036,-0.23680817,-0.00490913,0.0
 0796763,-0.00521531,-0.00112284,-0.00096854,0.00096438,0.20765898,-0.1
 8305130,0.26886655,-0.00816390,-0.00475746,0.00135206,0.00152227,-0.00
 011070,0.00212222,-0.00086418,-0.00022540,0.00052920,0.01383172,-0.038
 06529,0.02294308,-0.20097375,0.22137512,-0.10547444,0.00037986,-0.0000
 9179,-0.00006190,0.19378784,-0.00274686,-0.00617644,0.00324244,-0.0000
 8326,0.00133355,0.00104553,0.00041608,-0.00062038,0.00053807,0.0132044
 4,-0.01648087,0.00846842,0.16821701,-0.26812437,0.13303009,-0.00055862
 ,0.00062885,-0.00060111,-0.17789716,0.28918628,0.00219500,0.00623529,-
 0.00428480,-0.00010298,-0.00067993,-0.00046749,-0.00011049,0.00077849,
 -0.00037401,-0.00974439,0.01177625,-0.00705971,-0.07196085,0.12784154,
 -0.06416380,0.00032531,-0.00056978,0.00042850,0.07912474,-0.14528379,0
 .07543937,-0.24610077,-0.08968406,-0.11907080,-0.00764807,-0.00366664,
 -0.00751417,-0.00144380,-0.00206168,0.01099430,-0.00910047,-0.00251541
 ,-0.01211807,0.00156793,0.00127906,0.00247186,-0.00117752,-0.00037978,
 -0.00326832,0.00024456,-0.00037199,0.00040087,0.25758392,-0.09574814,-
 0.08241771,-0.04245751,-0.01323838,-0.00047688,-0.00774595,-0.00059621
 ,0.00287179,-0.00964540,0.02278595,0.00587562,0.02290089,0.00135356,0.
 00068429,-0.00276685,0.00167093,0.00093145,0.00354788,0.00016416,0.000
 00797,0.00008187,0.08872455,0.08466967,-0.11963964,-0.03189704,-0.1003
 3203,0.01251410,0.00585805,0.00999982,0.00430012,0.00087485,-0.0083705
 7,-0.01994485,0.00273367,-0.01546791,-0.00249052,-0.00371350,0.0024628
 7,0.00012364,-0.00042238,0.00216194,0.00011758,-0.00034909,0.00031411,
 0.12810153,0.03679271,0.11051787,-0.01043650,-0.00487778,-0.00244530,-
 0.01891318,-0.01062303,0.01787618,-0.06832474,-0.02048104,0.02326613,-
 0.00307627,0.00356967,0.00187639,0.00089851,0.00060705,-0.00114154,0.0
 1662075,0.01156945,-0.01209455,0.00019343,0.00002758,0.00000233,0.0038
 4799,-0.00255876,-0.00203297,0.09347996,-0.05700032,0.01398368,0.03752
 686,-0.00233733,0.03268276,-0.01094678,0.01986955,-0.01060113,-0.04524
 569,0.01369968,-0.01871981,0.00466301,0.00286285,0.00201918,-0.0038521
 2,0.00987617,-0.03737454,0.04541826,0.00013374,0.00048749,-0.00032893,
 0.00761180,-0.00810071,-0.00996940,0.02956604,0.04886503,0.00546734,-0
 .00692234,-0.01220742,0.01998693,0.00912546,-0.01064696,0.02581128,0.0
 0577134,-0.03395792,-0.00538277,0.00941263,0.00050010,-0.00121649,-0.0
 0218962,0.00087120,-0.00940256,0.02899405,-0.02332665,-0.00030455,-0.0
 0020729,0.00014509,0.00084781,-0.00324475,-0.00234253,-0.03200896,-0.0
 2946510,0.07887998,-0.01968463,0.00099669,0.01379366,-0.00286898,0.026
 90410,0.01609234,-0.06433974,-0.04092599,-0.10488474,0.00353107,-0.005
 47436,0.00141728,0.00110952,0.00120485,-0.00122399,-0.01404154,0.00073
 274,-0.01813271,0.00012316,0.00004748,-0.00015374,0.00164960,-0.001978
 44,-0.00197739,-0.00922596,-0.02887828,-0.00771426,0.10239041,-0.01038
 887,0.01160640,-0.00594149,0.00002207,-0.01141437,-0.00767698,-0.04517
 322,-0.08200272,-0.08161674,0.00350408,-0.00351948,0.00592262,0.000084
 37,0.00079504,0.00009977,0.01208301,0.01104015,0.01853555,-0.00005318,
 0.00018339,-0.00023271,0.00245890,-0.00168026,-0.00208968,-0.01004879,
 -0.01921759,-0.00760490,0.04706873,0.09358943,0.01767324,0.00289519,-0
 .00787034,0.00172478,-0.02832725,-0.01448252,-0.10354487,-0.07601103,-
 0.15565032,-0.00020822,-0.00038742,-0.00088871,-0.00142075,-0.00061894
 ,0.00173459,-0.01738475,0.00446618,-0.02169139,-0.00015119,0.00012412,
 -0.00008868,-0.00124395,0.00146227,0.00084164,0.00414061,0.01372012,0.
 00517998,0.10118878,0.08127175,0.19136894,-0.01122820,0.00144970,-0.00
 733863,-0.27723400,-0.03312790,-0.10940824,-0.00857341,-0.00415914,-0.
 00564045,0.00060909,0.00148877,-0.00044905,-0.00013114,-0.00000263,0.0
 0058178,-0.00134943,0.00252237,0.00137505,0.00003292,-0.00006033,0.000
 01242,0.00030447,-0.00086979,0.00084671,-0.00158003,-0.00005994,0.0015
 3350,0.00098967,0.00060394,-0.00027601,0.29453736,-0.03140313,-0.00586
 596,-0.01524865,-0.02199374,-0.04094186,-0.00446530,0.01364307,0.00374
 236,0.01126506,0.00092712,0.00033019,-0.00134231,0.00129704,0.00153093
 ,-0.00087016,0.00270401,-0.00387470,-0.00228599,0.00028819,-0.00014631
 ,0.00010362,-0.00230265,-0.00207831,0.00396673,0.00137563,0.00048203,-
 0.00192283,-0.00040604,0.00051474,0.00102413,0.03146401,0.04560312,0.0
 0933304,-0.00077288,0.00430346,-0.11097408,-0.00654134,-0.10252294,0.0
 0786969,0.00156505,0.00183637,0.00023910,-0.00059250,0.00056030,0.0003
 2550,0.00027984,-0.00029016,0.00051123,0.00004566,0.00081135,-0.000111
 59,-0.00000089,0.00004316,0.00032826,0.00097578,-0.00021068,0.00169957
 ,0.00069610,-0.00183565,0.00085207,-0.00072748,0.00138415,0.11733773,0
 .00915787,0.10337431,0.00336457,-0.00016324,0.01215196,-0.04433718,-0.
 00949980,-0.00637180,-0.00819076,-0.00385483,0.02136759,-0.00201285,-0
 .00007760,-0.00008196,0.00065343,0.00004471,0.00011998,0.00257564,-0.0
 0096915,-0.00320841,-0.00011393,-0.00019436,0.00001179,0.00027216,0.00
 029057,0.00008170,-0.00348397,0.00465604,0.00238272,0.00036742,-0.0001
 6102,-0.00049768,0.00362269,0.00440649,-0.02741053,0.04728276,0.001750
 90,-0.00949141,0.03335570,-0.00798403,-0.03782526,0.04144422,0.0067904
 8,0.00350589,-0.02491744,-0.00476530,0.00189316,-0.00138782,-0.0005953
 5,-0.00347423,0.00205286,-0.00420001,0.00269100,0.00399966,-0.00076022
 ,-0.00027916,0.00027808,0.00090790,-0.00028694,-0.00178491,0.00187398,
 -0.00450638,-0.00174666,0.00070852,0.00010527,0.00038089,0.00075095,0.
 00070376,-0.00408523,0.00552219,0.04696429,-0.00157708,-0.00213707,-0.
 00130929,-0.00474021,0.04855125,-0.33110470,0.00431397,0.00258969,-0.0
 1373642,0.00163217,0.00012139,-0.00074397,-0.00100208,-0.00125134,0.00
 077617,-0.00309688,0.00116110,0.00381868,-0.00008520,-0.00000649,0.000
 06824,0.00007068,0.00009906,0.00042547,0.00086211,-0.00221634,-0.00125
 921,0.00074270,0.00006030,0.00016266,0.00142518,0.00061782,-0.00745369
 ,0.00145463,-0.04758937,0.35035606\\0.00000291,-0.00001551,0.00000007,
 -0.00000269,0.00000568,0.00000115,0.00000536,0.00000377,0.00000291,-0.
 00000021,0.00000670,-0.00000070,0.00000083,-0.00000020,-0.00000019,0.0
 0000120,0.00000020,-0.00000201,0.00000120,0.00000013,0.00000084,0.0000
 0045,-0.00000265,-0.00000038,-0.00000534,0.00000104,-0.00000229,-0.000
 00185,0.00000011,0.00000143,0.00000100,0.00000115,-0.00000008,-0.00000
 287,-0.00000041,-0.00000075\\\@


 THERE IS MORE TO LIFE THAN INCREASING ITS SPEED.

                                       -- GANDHI
 Job cpu time:       0 days  0 hours  4 minutes 17.8 seconds.
 Elapsed time:       0 days  0 hours  0 minutes 16.4 seconds.
 File lengths (MBytes):  RWF=     28 Int=      0 D2E=      0 Chk=      3 Scr=      1
 Normal termination of Gaussian 16 at Wed Dec 23 22:03:37 2020.
