 Entering Gaussian System, Link 0=g16
 Initial command:
 /apps/cent7/gaussian/g16-B.01/g16-haswell/g16/l1.exe "/scratch/bell/zhao922/YARP/paper-example/KHP-network/pp_0/TS-folder/Gau-4490.inp" -scrdir="/scratch/bell/zhao922/YARP/paper-example/KHP-network/pp_0/TS-folder/"
 Entering Link 1 = /apps/cent7/gaussian/g16-B.01/g16-haswell/g16/l1.exe PID=      4492.
  
 Copyright (c) 1988-2017, Gaussian, Inc.  All Rights Reserved.
  
 This is part of the Gaussian(R) 16 program.  It is based on
 the Gaussian(R) 09 system (copyright 2009, Gaussian, Inc.),
 the Gaussian(R) 03 system (copyright 2003, Gaussian, Inc.),
 the Gaussian(R) 98 system (copyright 1998, Gaussian, Inc.),
 the Gaussian(R) 94 system (copyright 1995, Gaussian, Inc.),
 the Gaussian 92(TM) system (copyright 1992, Gaussian, Inc.),
 the Gaussian 90(TM) system (copyright 1990, Gaussian, Inc.),
 the Gaussian 88(TM) system (copyright 1988, Gaussian, Inc.),
 the Gaussian 86(TM) system (copyright 1986, Carnegie Mellon
 University), and the Gaussian 82(TM) system (copyright 1983,
 Carnegie Mellon University). Gaussian is a federally registered
 trademark of Gaussian, Inc.
  
 This software contains proprietary and confidential information,
 including trade secrets, belonging to Gaussian, Inc.
  
 This software is provided under written license and may be
 used, copied, transmitted, or stored only in accord with that
 written license.
  
 The following legend is applicable only to US Government
 contracts under FAR:
  
                    RESTRICTED RIGHTS LEGEND
  
 Use, reproduction and disclosure by the US Government is
 subject to restrictions as set forth in subparagraphs (a)
 and (c) of the Commercial Computer Software - Restricted
 Rights clause in FAR 52.227-19.
  
 Gaussian, Inc.
 340 Quinnipiac St., Bldg. 40, Wallingford CT 06492
  
  
 ---------------------------------------------------------------
 Warning -- This program may not be used in any manner that
 competes with the business of Gaussian, Inc. or will provide
 assistance to any competitor of Gaussian, Inc.  The licensee
 of this program is prohibited from giving any competitor of
 Gaussian, Inc. access to this program.  By using this program,
 the user acknowledges that Gaussian, Inc. is engaged in the
 business of creating and licensing software in the field of
 computational chemistry and represents and warrants to the
 licensee that it is not a competitor of Gaussian, Inc. and that
 it will not use this program in any manner prohibited above.
 ---------------------------------------------------------------
  

 Cite this work as:
 Gaussian 16, Revision B.01,
 M. J. Frisch, G. W. Trucks, H. B. Schlegel, G. E. Scuseria, 
 M. A. Robb, J. R. Cheeseman, G. Scalmani, V. Barone, 
 G. A. Petersson, H. Nakatsuji, X. Li, M. Caricato, A. V. Marenich, 
 J. Bloino, B. G. Janesko, R. Gomperts, B. Mennucci, H. P. Hratchian, 
 J. V. Ortiz, A. F. Izmaylov, J. L. Sonnenberg, D. Williams-Young, 
 F. Ding, F. Lipparini, F. Egidi, J. Goings, B. Peng, A. Petrone, 
 T. Henderson, D. Ranasinghe, V. G. Zakrzewski, J. Gao, N. Rega, 
 G. Zheng, W. Liang, M. Hada, M. Ehara, K. Toyota, R. Fukuda, 
 J. Hasegawa, M. Ishida, T. Nakajima, Y. Honda, O. Kitao, H. Nakai, 
 T. Vreven, K. Throssell, J. A. Montgomery, Jr., J. E. Peralta, 
 F. Ogliaro, M. J. Bearpark, J. J. Heyd, E. N. Brothers, K. N. Kudin, 
 V. N. Staroverov, T. A. Keith, R. Kobayashi, J. Normand, 
 K. Raghavachari, A. P. Rendell, J. C. Burant, S. S. Iyengar, 
 J. Tomasi, M. Cossi, J. M. Millam, M. Klene, C. Adamo, R. Cammi, 
 J. W. Ochterski, R. L. Martin, K. Morokuma, O. Farkas, 
 J. B. Foresman, and D. J. Fox, Gaussian, Inc., Wallingford CT, 2016.
 
 ******************************************
 Gaussian 16:  ES64L-G16RevB.01 20-Dec-2017
                23-Dec-2020 
 ******************************************
 %NProcShared=16
 Will use up to   16 processors via shared memory.
 %Mem=6GB
 --------------------------------------------------------------
 # B3LYP/6-31+G* OPT=(TS, CALCALL, NOEIGEN, maxcycles=100) Freq
 --------------------------------------------------------------
 1/5=1,6=100,10=4,11=1,18=20,26=3,38=1/1,3;
 2/9=110,12=2,17=6,18=5,40=1/2;
 3/5=1,6=6,7=11,11=2,25=1,30=1,71=2,74=-5,140=1/1,2,3;
 4//1;
 5/5=2,38=5/2;
 8/6=4,10=90,11=11/1;
 11/6=1,8=1,9=11,15=111,16=1/1,2,10;
 10/6=1/2;
 6/7=2,8=2,9=2,10=2,18=1,28=1/1;
 7/10=1,25=1/1,2,3,16;
 1/5=1,6=100,10=4,11=1,18=20,26=3/3(3);
 2/9=110/2;
 7/8=1,9=1,25=1,44=-1/16;
 99//99;
 2/9=110/2;
 3/5=1,6=6,7=11,11=2,25=1,30=1,71=2,74=-5,140=1/1,2,3;
 4/5=5,16=3,69=1/1;
 5/5=2,38=5/2;
 8/6=4,10=90,11=11/1;
 11/6=1,8=1,9=11,15=111,16=1/1,2,10;
 10/6=1/2;
 7/10=1,25=1/1,2,3,16;
 1/5=1,6=100,10=4,11=1,18=20,26=3/3(-8);
 2/9=110/2;
 6/7=2,8=2,9=2,10=2,18=1,19=2,28=1/1;
 7/8=1,9=1,25=1,44=-1/16;
 99//99;
 ----------
 pp_13_2 TS
 ----------
 Symbolic Z-matrix:
 Charge =  0 Multiplicity = 1
 C                     1.40829   1.71466  -1.38063 
 C                     0.68741   0.50658  -0.90037 
 C                     1.38494  -0.7084   -0.67921 
 O                     0.56634   2.7714   -1.55018 
 O                     1.22168   3.88501  -2.14647 
 O                     2.60736  -0.83697  -0.80321 
 H                     0.59471   4.59494  -1.96983 
 H                     2.42669   1.97976  -1.16211 
 H                     1.3569    0.84758  -2.64605 
 H                     0.73383  -1.56424  -0.441 
 H                    -0.02913   0.50552  -2.80676 
 H                    -0.21517   0.66659  -0.33361 
 
 Add virtual bond connecting atoms H11        and H9         Dist= 2.71D+00.
 Add virtual bond connecting atoms H9         and C1         Dist= 2.90D+00.

 GradGradGradGradGradGradGradGradGradGradGradGradGradGradGradGradGradGrad
 Berny optimization.
 Initialization pass.
                           ----------------------------
                           !    Initial Parameters    !
                           ! (Angstroms and Degrees)  !
 --------------------------                            --------------------------
 ! Name  Definition              Value          Derivative Info.                !
 --------------------------------------------------------------------------------
 ! R1    R(1,2)                  1.4865         calculate D2E/DX2 analytically  !
 ! R2    R(1,4)                  1.3617         calculate D2E/DX2 analytically  !
 ! R3    R(1,8)                  1.0748         calculate D2E/DX2 analytically  !
 ! R4    R(1,9)                  1.5348         calculate D2E/DX2 analytically  !
 ! R5    R(2,3)                  1.4183         calculate D2E/DX2 analytically  !
 ! R6    R(2,12)                 1.0777         calculate D2E/DX2 analytically  !
 ! R7    R(3,6)                  1.2354         calculate D2E/DX2 analytically  !
 ! R8    R(3,10)                 1.1014         calculate D2E/DX2 analytically  !
 ! R9    R(4,5)                  1.4231         calculate D2E/DX2 analytically  !
 ! R10   R(5,7)                  0.9635         calculate D2E/DX2 analytically  !
 ! R11   R(9,11)                 1.4366         calculate D2E/DX2 analytically  !
 ! A1    A(2,1,4)              111.7801         calculate D2E/DX2 analytically  !
 ! A2    A(2,1,8)              126.4605         calculate D2E/DX2 analytically  !
 ! A3    A(2,1,9)               77.9368         calculate D2E/DX2 analytically  !
 ! A4    A(4,1,8)              114.8196         calculate D2E/DX2 analytically  !
 ! A5    A(4,1,9)              108.3633         calculate D2E/DX2 analytically  !
 ! A6    A(8,1,9)              109.7975         calculate D2E/DX2 analytically  !
 ! A7    A(1,2,3)              120.5344         calculate D2E/DX2 analytically  !
 ! A8    A(1,2,12)             117.0892         calculate D2E/DX2 analytically  !
 ! A9    A(3,2,12)             117.1973         calculate D2E/DX2 analytically  !
 ! A10   A(2,3,6)              124.0644         calculate D2E/DX2 analytically  !
 ! A11   A(2,3,10)             114.1186         calculate D2E/DX2 analytically  !
 ! A12   A(6,3,10)             121.7208         calculate D2E/DX2 analytically  !
 ! A13   A(1,4,5)              112.0058         calculate D2E/DX2 analytically  !
 ! A14   A(4,5,7)              101.5431         calculate D2E/DX2 analytically  !
 ! A15   A(1,9,11)             105.0136         calculate D2E/DX2 analytically  !
 ! D1    D(4,1,2,3)            179.1213         calculate D2E/DX2 analytically  !
 ! D2    D(4,1,2,12)           -27.0173         calculate D2E/DX2 analytically  !
 ! D3    D(8,1,2,3)            -31.8661         calculate D2E/DX2 analytically  !
 ! D4    D(8,1,2,12)           121.9954         calculate D2E/DX2 analytically  !
 ! D5    D(9,1,2,3)             73.9605         calculate D2E/DX2 analytically  !
 ! D6    D(9,1,2,12)          -132.1781         calculate D2E/DX2 analytically  !
 ! D7    D(2,1,4,5)           -173.6104         calculate D2E/DX2 analytically  !
 ! D8    D(8,1,4,5)             33.5327         calculate D2E/DX2 analytically  !
 ! D9    D(9,1,4,5)            -89.6085         calculate D2E/DX2 analytically  !
 ! D10   D(2,1,9,11)            52.7987         calculate D2E/DX2 analytically  !
 ! D11   D(4,1,9,11)           -56.3998         calculate D2E/DX2 analytically  !
 ! D12   D(8,1,9,11)           177.4744         calculate D2E/DX2 analytically  !
 ! D13   D(1,2,3,6)              3.3934         calculate D2E/DX2 analytically  !
 ! D14   D(1,2,3,10)          -173.0871         calculate D2E/DX2 analytically  !
 ! D15   D(12,2,3,6)          -150.4408         calculate D2E/DX2 analytically  !
 ! D16   D(12,2,3,10)           33.0787         calculate D2E/DX2 analytically  !
 ! D17   D(1,4,5,7)           -164.7341         calculate D2E/DX2 analytically  !
 --------------------------------------------------------------------------------
 Trust Radius=3.00D-01 FncErr=1.00D-07 GrdErr=1.00D-06 EigMax=2.50D+02 EigMin=1.00D-04
 Number of steps in this run=    100 maximum allowed number of steps=    100.
 Search for a saddle point of order  1.
 GradGradGradGradGradGradGradGradGradGradGradGradGradGradGradGradGradGrad

                          Input orientation:                          
 ---------------------------------------------------------------------
 Center     Atomic      Atomic             Coordinates (Angstroms)
 Number     Number       Type             X           Y           Z
 ---------------------------------------------------------------------
      1          6           0        1.408294    1.714663   -1.380630
      2          6           0        0.687409    0.506581   -0.900374
      3          6           0        1.384936   -0.708401   -0.679208
      4          8           0        0.566340    2.771396   -1.550176
      5          8           0        1.221684    3.885005   -2.146474
      6          8           0        2.607364   -0.836965   -0.803208
      7          1           0        0.594713    4.594935   -1.969826
      8          1           0        2.426688    1.979763   -1.162111
      9          1           0        1.356897    0.847580   -2.646049
     10          1           0        0.733832   -1.564238   -0.440996
     11          1           0       -0.029129    0.505518   -2.806761
     12          1           0       -0.215169    0.666591   -0.333608
 ---------------------------------------------------------------------
                    Distance matrix (angstroms):
                    1          2          3          4          5
     1  C    0.000000
     2  C    1.486534   0.000000
     3  C    2.522653   1.418323   0.000000
     4  O    1.361733   2.359298   3.679358   0.000000
     5  O    2.309053   3.640325   4.824821   1.423085   0.000000
     6  O    2.877845   2.345375   1.235409   4.212364   5.101125
     7  H    3.050415   4.226933   5.515027   1.871418   0.963482
     8  H    1.074781   2.294311   2.923126   2.058682   2.459868
     9  H    1.534848   1.900494   2.508052   2.350954   3.081202
    10  H    3.476924   2.121668   1.101426   4.478399   5.730698
    11  H    2.358403   2.036600   2.828367   2.658532   3.663529
    12  H    2.197804   1.077717   2.137844   2.553625   3.963486
                    6          7          8          9         10
     6  O    0.000000
     7  H    5.909086   0.000000
     8  H    2.845244   3.293579   0.000000
     9  H    2.792387   3.883410   2.151363   0.000000
    10  H    2.042118   6.347605   3.993208   3.326760   0.000000
    11  H    3.573175   4.220541   3.302924   1.436629   3.234632
    12  H    3.232321   4.331859   3.064351   2.802059   2.426671
                   11         12
    11  H    0.000000
    12  H    2.485365   0.000000
 Stoichiometry    C3H6O3
 Framework group  C1[X(C3H6O3)]
 Deg. of freedom    30
 Full point group                 C1      NOp   1
 Largest Abelian subgroup         C1      NOp   1
 Largest concise Abelian subgroup C1      NOp   1
                         Standard orientation:                         
 ---------------------------------------------------------------------
 Center     Atomic      Atomic             Coordinates (Angstroms)
 Number     Number       Type             X           Y           Z
 ---------------------------------------------------------------------
      1          6           0       -0.377279   -0.211575   -0.063472
      2          6           0        0.751546    0.753721   -0.124626
      3          6           0        2.093107    0.299155   -0.052356
      4          8           0       -1.583572    0.416835   -0.128858
      5          8           0       -2.665982   -0.484242    0.075154
      6          8           0        2.418340   -0.891431    0.002091
      7          1           0       -3.412394    0.036173   -0.241603
      8          1           0       -0.374379   -1.221805   -0.430325
      9          1           0        0.102638   -0.186469    1.394201
     10          1           0        2.839064    1.106846    0.013388
     11          1           0        0.116645    1.203392    1.757510
     12          1           0        0.573883    1.684758   -0.637540
 ---------------------------------------------------------------------
 Rotational constants (GHZ):          12.3473797           1.5082811           1.3902706
 Standard basis: 6-31+G(d) (6D, 7F)
 There are   126 symmetry adapted cartesian basis functions of A   symmetry.
 There are   126 symmetry adapted basis functions of A   symmetry.
   126 basis functions,   216 primitive gaussians,   126 cartesian basis functions
    24 alpha electrons       24 beta electrons
       nuclear repulsion energy       231.7555139724 Hartrees.
 NAtoms=   12 NActive=   12 NUniq=   12 SFac= 1.00D+00 NAtFMM=   60 NAOKFM=F Big=F
 Integral buffers will be    131072 words long.
 Raffenetti 2 integral format.
 Two-electron integral symmetry is turned on.
 One-electron integrals computed using PRISM.
 NBasis=   126 RedAO= T EigKep=  7.84D-05  NBF=   126
 NBsUse=   126 1.00D-06 EigRej= -1.00D+00 NBFU=   126
 ExpMin= 4.38D-02 ExpMax= 5.48D+03 ExpMxC= 8.25D+02 IAcc=3 IRadAn=         5 AccDes= 0.00D+00
 Harris functional with IExCor=  402 and IRadAn=       5 diagonalized for initial guess.
 HarFok:  IExCor=  402 AccDes= 0.00D+00 IRadAn=         5 IDoV= 1 UseB2=F ITyADJ=14
 ICtDFT=  3500011 ScaDFX=  1.000000  1.000000  1.000000  1.000000
 FoFCou: FMM=F IPFlag=           0 FMFlag=      100000 FMFlg1=           0
         NFxFlg=           0 DoJE=T BraDBF=F KetDBF=T FulRan=T
         wScrn=  0.000000 ICntrl=       500 IOpCl=  0 I1Cent=   200000004 NGrid=           0
         NMat0=    1 NMatS0=      1 NMatT0=    0 NMatD0=    1 NMtDS0=    0 NMtDT0=    0
 Petite list used in FoFCou.
 Keep R1 ints in memory in canonical form, NReq=47237537.
 Requested convergence on RMS density matrix=1.00D-08 within 128 cycles.
 Requested convergence on MAX density matrix=1.00D-06.
 Requested convergence on             energy=1.00D-06.
 No special actions if energy rises.
 EnCoef did     2 forward-backward iterations
 EnCoef did   100 forward-backward iterations
 EnCoef did     2 forward-backward iterations
 EnCoef did     6 forward-backward iterations
 SCF Done:  E(RB3LYP) =  -343.249746219     A.U. after   19 cycles
            NFock= 19  Conv=0.79D-08     -V/T= 2.0093
 DoSCS=F DFT=T ScalE2(SS,OS)=  1.000000  1.000000
 Range of M.O.s used for correlation:     1   126
 NBasis=   126 NAE=    24 NBE=    24 NFC=     0 NFV=     0
 NROrb=    126 NOA=    24 NOB=    24 NVA=   102 NVB=   102

 **** Warning!!: The largest alpha MO coefficient is  0.30244178D+02


 **** Warning!!: The smallest alpha delta epsilon is  0.50101612D-01

 Symmetrizing basis deriv contribution to polar:
 IMax=3 JMax=2 DiffMx= 0.00D+00
 G2DrvN: will do    13 centers at a time, making    1 passes.
 Calling FoFCou, ICntrl=  3107 FMM=F I1Cent=   0 AccDes= 0.00D+00.
 End of G2Drv F.D. properties file   721 does not exist.
 End of G2Drv F.D. properties file   722 does not exist.
 End of G2Drv F.D. properties file   788 does not exist.
          IDoAtm=111111111111
          Differentiating once with respect to electric field.
                with respect to dipole field.
          Differentiating once with respect to nuclear coordinates.
 Keep R1 ints in memory in canonical form, NReq=47193559.
          There are    39 degrees of freedom in the 1st order CPHF.  IDoFFX=6 NUNeed=     3.
     36 vectors produced by pass  0 Test12= 6.28D-15 2.56D-09 XBig12= 5.21D+02 2.13D+01.
 AX will form    36 AO Fock derivatives at one time.
     36 vectors produced by pass  1 Test12= 6.28D-15 2.56D-09 XBig12= 8.73D+01 1.16D+00.
     36 vectors produced by pass  2 Test12= 6.28D-15 2.56D-09 XBig12= 1.02D+00 1.30D-01.
     36 vectors produced by pass  3 Test12= 6.28D-15 2.56D-09 XBig12= 4.68D-03 8.27D-03.
     36 vectors produced by pass  4 Test12= 6.28D-15 2.56D-09 XBig12= 7.96D-06 5.00D-04.
     30 vectors produced by pass  5 Test12= 6.28D-15 2.56D-09 XBig12= 9.25D-09 1.31D-05.
      5 vectors produced by pass  6 Test12= 6.28D-15 2.56D-09 XBig12= 9.25D-12 3.87D-07.
      3 vectors produced by pass  7 Test12= 6.28D-15 2.56D-09 XBig12= 7.86D-15 1.38D-08.
 InvSVY:  IOpt=1 It=  1 EMax= 5.33D-15
 Solved reduced A of dimension   218 with    39 vectors.
 Isotropic polarizability for W=    0.000000       76.10 Bohr**3.
 End of Minotr F.D. properties file   721 does not exist.
 End of Minotr F.D. properties file   722 does not exist.
 End of Minotr F.D. properties file   788 does not exist.

 **********************************************************************

            Population analysis using the SCF Density.

 **********************************************************************

 Orbital symmetries:
       Occupied  (A) (A) (A) (A) (A) (A) (A) (A) (A) (A) (A) (A)
                 (A) (A) (A) (A) (A) (A) (A) (A) (A) (A) (A) (A)
       Virtual   (A) (A) (A) (A) (A) (A) (A) (A) (A) (A) (A) (A)
                 (A) (A) (A) (A) (A) (A) (A) (A) (A) (A) (A) (A)
                 (A) (A) (A) (A) (A) (A) (A) (A) (A) (A) (A) (A)
                 (A) (A) (A) (A) (A) (A) (A) (A) (A) (A) (A) (A)
                 (A) (A) (A) (A) (A) (A) (A) (A) (A) (A) (A) (A)
                 (A) (A) (A) (A) (A) (A) (A) (A) (A) (A) (A) (A)
                 (A) (A) (A) (A) (A) (A) (A) (A) (A) (A) (A) (A)
                 (A) (A) (A) (A) (A) (A) (A) (A) (A) (A) (A) (A)
                 (A) (A) (A) (A) (A) (A)
 The electronic state is 1-A.
 Alpha  occ. eigenvalues --  -19.26001 -19.24671 -19.17065 -10.28858 -10.28850
 Alpha  occ. eigenvalues --  -10.27883  -1.17916  -1.05420  -0.97333  -0.80888
 Alpha  occ. eigenvalues --   -0.68009  -0.59329  -0.57229  -0.53171  -0.51177
 Alpha  occ. eigenvalues --   -0.48693  -0.45621  -0.43360  -0.41166  -0.39016
 Alpha  occ. eigenvalues --   -0.36536  -0.29900  -0.28035  -0.21373
 Alpha virt. eigenvalues --   -0.16362  -0.02091  -0.01866   0.00772   0.00921
 Alpha virt. eigenvalues --    0.02901   0.04727   0.06208   0.06836   0.07422
 Alpha virt. eigenvalues --    0.08584   0.10231   0.10868   0.12239   0.13505
 Alpha virt. eigenvalues --    0.14288   0.16824   0.18073   0.18806   0.20351
 Alpha virt. eigenvalues --    0.20972   0.21869   0.23695   0.24564   0.25720
 Alpha virt. eigenvalues --    0.26440   0.27527   0.28435   0.28643   0.31019
 Alpha virt. eigenvalues --    0.31488   0.32005   0.36370   0.38102   0.41010
 Alpha virt. eigenvalues --    0.47091   0.64764   0.65673   0.66732   0.67529
 Alpha virt. eigenvalues --    0.70250   0.74396   0.80518   0.82411   0.86408
 Alpha virt. eigenvalues --    0.90142   0.94196   0.97388   0.99019   1.00842
 Alpha virt. eigenvalues --    1.05377   1.05819   1.09660   1.12049   1.14211
 Alpha virt. eigenvalues --    1.18203   1.21735   1.24093   1.26782   1.27493
 Alpha virt. eigenvalues --    1.30117   1.31085   1.33226   1.36795   1.43758
 Alpha virt. eigenvalues --    1.50937   1.51837   1.52825   1.60954   1.62321
 Alpha virt. eigenvalues --    1.70380   1.72003   1.76371   1.79871   1.82888
 Alpha virt. eigenvalues --    1.85087   1.87493   1.91485   1.93806   2.03367
 Alpha virt. eigenvalues --    2.13148   2.17686   2.20777   2.25110   2.29349
 Alpha virt. eigenvalues --    2.36675   2.42101   2.48938   2.52870   2.60053
 Alpha virt. eigenvalues --    2.62054   2.82542   2.91021   2.96472   3.04659
 Alpha virt. eigenvalues --    3.17254   3.93243   4.10757   4.18340   4.31774
 Alpha virt. eigenvalues --    4.33824   4.45684
          Condensed to atoms (all electrons):
               1          2          3          4          5          6
     1  C    6.990560  -2.141192   0.365054   0.151086   0.013863   0.090656
     2  C   -2.141192   9.362350  -0.863437  -0.128366   0.027276  -0.240534
     3  C    0.365054  -0.863437   5.505782   0.073687  -0.026195   0.453966
     4  O    0.151086  -0.128366   0.073687   8.122137  -0.013436   0.000037
     5  O    0.013863   0.027276  -0.026195  -0.013436   8.311460  -0.000306
     6  O    0.090656  -0.240534   0.453966   0.000037  -0.000306   8.138860
     7  H    0.009038  -0.004585   0.000125  -0.024431   0.194156  -0.000004
     8  H    0.293839   0.092773  -0.034727  -0.053351   0.008317  -0.001302
     9  H    0.665000  -0.568149   0.113793  -0.066993  -0.003737   0.008801
    10  H    0.050658  -0.215175   0.443732  -0.000371   0.000027  -0.057034
    11  H   -0.331252   0.609877  -0.058827  -0.012189   0.005151  -0.006887
    12  H    0.104353   0.092452   0.055137   0.004603  -0.001739   0.004102
               7          8          9         10         11         12
     1  C    0.009038   0.293839   0.665000   0.050658  -0.331252   0.104353
     2  C   -0.004585   0.092773  -0.568149  -0.215175   0.609877   0.092452
     3  C    0.000125  -0.034727   0.113793   0.443732  -0.058827   0.055137
     4  O   -0.024431  -0.053351  -0.066993  -0.000371  -0.012189   0.004603
     5  O    0.194156   0.008317  -0.003737   0.000027   0.005151  -0.001739
     6  O   -0.000004  -0.001302   0.008801  -0.057034  -0.006887   0.004102
     7  H    0.343651   0.000046   0.000031  -0.000000  -0.000073   0.000026
     8  H    0.000046   0.481702  -0.024995  -0.000054   0.003529  -0.000283
     9  H    0.000031  -0.024995   0.841545  -0.000815  -0.027988   0.013904
    10  H   -0.000000  -0.000054  -0.000815   0.607540  -0.000406  -0.000177
    11  H   -0.000073   0.003529  -0.027988  -0.000406   0.724746  -0.009934
    12  H    0.000026  -0.000283   0.013904  -0.000177  -0.009934   0.509361
 Mulliken charges:
               1
     1  C   -0.261664
     2  C   -0.023290
     3  C   -0.028090
     4  O   -0.052413
     5  O   -0.514837
     6  O   -0.390354
     7  H    0.482020
     8  H    0.234506
     9  H    0.049604
    10  H    0.172074
    11  H    0.104252
    12  H    0.228193
 Sum of Mulliken charges =  -0.00000
 Mulliken charges with hydrogens summed into heavy atoms:
               1
     1  C    0.022446
     2  C    0.309155
     3  C    0.143983
     4  O   -0.052413
     5  O   -0.032817
     6  O   -0.390354
 APT charges:
               1
     1  C    0.653574
     2  C   -0.377799
     3  C    0.883573
     4  O   -0.425095
     5  O   -0.374366
     6  O   -0.635392
     7  H    0.314653
     8  H    0.042760
     9  H    0.032314
    10  H   -0.034156
    11  H   -0.090101
    12  H    0.010036
 Sum of APT charges =  -0.00000
 APT charges with hydrogens summed into heavy atoms:
               1
     1  C    0.728648
     2  C   -0.457864
     3  C    0.849417
     4  O   -0.425095
     5  O   -0.059713
     6  O   -0.635392
 Electronic spatial extent (au):  <R**2>=            801.6567
 Charge=             -0.0000 electrons
 Dipole moment (field-independent basis, Debye):
    X=             -2.3693    Y=              2.8368    Z=             -1.3486  Tot=              3.9344
 Quadrupole moment (field-independent basis, Debye-Ang):
   XX=            -34.3078   YY=            -39.6554   ZZ=            -37.3659
   XY=              3.8183   XZ=              1.6151   YZ=              0.0588
 Traceless Quadrupole moment (field-independent basis, Debye-Ang):
   XX=              2.8019   YY=             -2.5457   ZZ=             -0.2562
   XY=              3.8183   XZ=              1.6151   YZ=              0.0588
 Octapole moment (field-independent basis, Debye-Ang**2):
  XXX=            -65.6156  YYY=             -3.3103  ZZZ=             -3.3915  XYY=             -5.3031
  XXY=             20.0169  XXZ=             -9.0557  XZZ=             -2.8876  YZZ=             -0.3862
  YYZ=             -4.8203  XYZ=             -1.2934
 Hexadecapole moment (field-independent basis, Debye-Ang**3):
 XXXX=           -637.1184 YYYY=           -142.3529 ZZZZ=            -75.9828 XXXY=             12.3907
 XXXZ=             25.8342 YYYX=             -1.2858 YYYZ=             -7.5648 ZZZX=              0.7834
 ZZZY=             -0.5944 XXYY=           -168.7062 XXZZ=           -147.2354 YYZZ=            -38.9560
 XXYZ=             -1.6420 YYXZ=             -1.7035 ZZXY=             -4.7954
 N-N= 2.317555139724D+02 E-N=-1.267020320753D+03  KE= 3.400980343855D+02
  Exact polarizability: 108.352  -7.038  59.985  -9.404   8.009  59.959
 Approx polarizability: 186.536 -40.320 105.105 -55.801  36.657 145.596
 Calling FoFJK, ICntrl=    100127 FMM=F ISym2X=0 I1Cent= 0 IOpClX= 0 NMat=1 NMatS=1 NMatT=0.
 ***** Axes restored to original set *****
 -------------------------------------------------------------------
 Center     Atomic                   Forces (Hartrees/Bohr)
 Number     Number              X              Y              Z
 -------------------------------------------------------------------
      1        6           0.022803935   -0.024928655   -0.108049182
      2        6          -0.051018343    0.010247827   -0.019884694
      3        6           0.005724586   -0.026733418   -0.008041018
      4        8          -0.030835803   -0.007236980    0.021551147
      5        8           0.027424646   -0.002288041   -0.013890620
      6        8          -0.005460611    0.004241010    0.001299156
      7        1          -0.010050956    0.003925413    0.005077975
      8        1           0.007272723    0.000395730    0.016223240
      9        1           0.038830755    0.065201610    0.036705076
     10        1           0.001636302   -0.003361393    0.004797954
     11        1           0.000201835   -0.018219990    0.052764317
     12        1          -0.006529068   -0.001243114    0.011446650
 -------------------------------------------------------------------
 Cartesian Forces:  Max     0.108049182 RMS     0.028911751
 FormGI is forming the generalized inverse of G from B-inverse, IUseBI=4.

 GradGradGradGradGradGradGradGradGradGradGradGradGradGradGradGradGradGrad
 Berny optimization.
 Internal  Forces:  Max     0.101611979 RMS     0.027000095
 Search for a saddle point.
 Step number   1 out of a maximum of  100
 All quantities printed in internal units (Hartrees-Bohrs-Radians)
 Swapping is turned off.
 Second derivative matrix not updated -- analytic derivatives used.
 ITU=  0
     Eigenvalues ---   -0.31544  -0.09111  -0.00297  -0.00138  -0.00068
     Eigenvalues ---    0.00437   0.01187   0.01711   0.02685   0.03497
     Eigenvalues ---    0.05342   0.06668   0.08215   0.10675   0.13184
     Eigenvalues ---    0.13810   0.16424   0.17189   0.19664   0.21196
     Eigenvalues ---    0.25552   0.32544   0.32561   0.36540   0.38001
     Eigenvalues ---    0.38798   0.40916   0.44188   0.53550   0.76210
 Eigenvectors required to have negative eigenvalues:
                          A15       A3        R4        R11       D10
   1                    0.43627   0.38207   0.37520  -0.35790   0.29853
                          D12       D7        D9        A2        R5
   1                    0.24195  -0.21358   0.20054  -0.15888  -0.14936
 RFO step:  Lambda0=4.821263130D-02 Lambda=-1.28098810D-01.
 Linear search not attempted -- option 19 set.
 Maximum step size (   0.300) exceeded in Quadratic search.
    -- Step size scaled by   0.304
 Iteration  1 RMS(Cart)=  0.07042010 RMS(Int)=  0.00752424
 Iteration  2 RMS(Cart)=  0.00660262 RMS(Int)=  0.00042280
 Iteration  3 RMS(Cart)=  0.00001849 RMS(Int)=  0.00042269
 Iteration  4 RMS(Cart)=  0.00000000 RMS(Int)=  0.00042269
 Variable       Old X    -DE/DX   Delta X   Delta X   Delta X     New X
                                 (Linear)    (Quad)   (Total)
    R1        2.80914   0.03733   0.00000   0.08922   0.08922   2.89837
    R2        2.57330   0.00239   0.00000  -0.03087  -0.03087   2.54244
    R3        2.03104   0.01029   0.00000   0.00979   0.00979   2.04083
    R4        2.90044  -0.10161   0.00000  -0.02749  -0.02749   2.87296
    R5        2.68024   0.02278   0.00000  -0.03388  -0.03388   2.64636
    R6        2.03659   0.01130   0.00000   0.00363   0.00363   2.04022
    R7        2.33458  -0.00598   0.00000   0.01884   0.01884   2.35342
    R8        2.08139   0.00268   0.00000   0.00276   0.00276   2.08416
    R9        2.68924   0.01297   0.00000   0.00499   0.00499   2.69424
   R10        1.82072   0.01036   0.00000   0.00660   0.00660   1.82732
   R11        2.71484  -0.00176   0.00000  -0.24462  -0.24462   2.47022
    A1        1.95093  -0.02963   0.00000  -0.03392  -0.03488   1.91605
    A2        2.20715   0.02734   0.00000   0.00686   0.00694   2.21410
    A3        1.36025  -0.02668   0.00000   0.08775   0.08790   1.44815
    A4        2.00398   0.00126   0.00000   0.00183   0.00139   2.00537
    A5        1.89130   0.01837   0.00000   0.01196   0.01314   1.90443
    A6        1.91633   0.00794   0.00000  -0.04572  -0.04638   1.86995
    A7        2.10372   0.00484   0.00000  -0.02483  -0.02491   2.07881
    A8        2.04359   0.00032   0.00000  -0.01249  -0.01248   2.03112
    A9        2.04548  -0.00448   0.00000   0.02832   0.02812   2.07360
   A10        2.16533  -0.00764   0.00000  -0.00851  -0.00852   2.15681
   A11        1.99175   0.00777   0.00000   0.01082   0.01081   2.00256
   A12        2.12443   0.00016   0.00000  -0.00269  -0.00269   2.12174
   A13        1.95487  -0.02812   0.00000  -0.00297  -0.00297   1.95190
   A14        1.77226  -0.01070   0.00000  -0.00566  -0.00566   1.76660
   A15        1.83283  -0.09208   0.00000  -0.07554  -0.07554   1.75729
    D1        3.12626   0.00130   0.00000   0.02208   0.02143  -3.13550
    D2       -0.47154   0.00171   0.00000   0.00825   0.00788  -0.46366
    D3       -0.55617  -0.00310   0.00000  -0.03109  -0.03152  -0.58769
    D4        2.12922  -0.00269   0.00000  -0.04492  -0.04507   2.08415
    D5        1.29085  -0.01245   0.00000  -0.02595  -0.02529   1.26557
    D6       -2.30694  -0.01204   0.00000  -0.03979  -0.03884  -2.34579
    D7       -3.03007   0.01448   0.00000  -0.04120  -0.04072  -3.07079
    D8        0.58526   0.00818   0.00000   0.00202   0.00170   0.58695
    D9       -1.56396  -0.01719   0.00000   0.05119   0.05102  -1.51294
   D10        0.92151  -0.05941   0.00000  -0.04928  -0.04810   0.87341
   D11       -0.98436  -0.01859   0.00000  -0.03633  -0.03683  -1.02120
   D12        3.09751  -0.03817   0.00000  -0.01606  -0.01672   3.08079
   D13        0.05923   0.00237   0.00000  -0.02672  -0.02691   0.03232
   D14       -3.02094  -0.00304   0.00000  -0.01974  -0.01992  -3.04086
   D15       -2.62569   0.00075   0.00000  -0.00258  -0.00239  -2.62808
   D16        0.57733  -0.00466   0.00000   0.00441   0.00459   0.58192
   D17       -2.87515   0.00091   0.00000   0.00253   0.00253  -2.87262
         Item               Value     Threshold  Converged?
 Maximum Force            0.101612     0.000450     NO 
 RMS     Force            0.027000     0.000300     NO 
 Maximum Displacement     0.304194     0.001800     NO 
 RMS     Displacement     0.074992     0.001200     NO 
 Predicted change in Energy=-1.928134D-02
 GradGradGradGradGradGradGradGradGradGradGradGradGradGradGradGradGradGrad

                          Input orientation:                          
 ---------------------------------------------------------------------
 Center     Atomic      Atomic             Coordinates (Angstroms)
 Number     Number       Type             X           Y           Z
 ---------------------------------------------------------------------
      1          6           0        1.404091    1.699496   -1.424095
      2          6           0        0.648705    0.481706   -0.877500
      3          6           0        1.347325   -0.712572   -0.661329
      4          8           0        0.559953    2.739333   -1.551638
      5          8           0        1.196164    3.869239   -2.144300
      6          8           0        2.570505   -0.840182   -0.857564
      7          1           0        0.565396    4.571614   -1.934916
      8          1           0        2.430384    1.968995   -1.223080
      9          1           0        1.397002    0.891602   -2.711953
     10          1           0        0.718074   -1.567907   -0.363325
     11          1           0        0.131844    0.572426   -2.790886
     12          1           0       -0.225586    0.688678   -0.278835
 ---------------------------------------------------------------------
                    Distance matrix (angstroms):
                    1          2          3          4          5
     1  C    0.000000
     2  C    1.533750   0.000000
     3  C    2.530435   1.400392   0.000000
     4  O    1.345399   2.357800   3.650787   0.000000
     5  O    2.295586   3.657851   4.818199   1.425728   0.000000
     6  O    2.851568   2.332617   1.245376   4.163771   5.071800
     7  H    3.035360   4.225213   5.491453   1.871948   0.966975
     8  H    1.079960   2.346452   2.946078   2.049362   2.445992
     9  H    1.520303   2.023162   2.604016   2.336898   3.037908
    10  H    3.503109   2.114261   1.102888   4.470951   5.741341
    11  H    2.181058   1.984042   2.768326   2.532686   3.524177
    12  H    2.233656   1.079639   2.140993   2.538165   3.951873
                    6          7          8          9         10
     6  O    0.000000
     7  H    5.871004   0.000000
     8  H    2.836320   3.280018   0.000000
     9  H    2.795522   3.851993   2.108411   0.000000
    10  H    2.050697   6.339316   4.022544   3.467878   0.000000
    11  H    3.417640   4.112682   3.113151   1.307184   3.289034
    12  H    3.238899   4.294817   3.095963   2.931558   2.447408
                   11         12
    11  H    0.000000
    12  H    2.540014   0.000000
 Stoichiometry    C3H6O3
 Framework group  C1[X(C3H6O3)]
 Deg. of freedom    30
 Full point group                 C1      NOp   1
 Largest Abelian subgroup         C1      NOp   1
 Largest concise Abelian subgroup C1      NOp   1
                         Standard orientation:                         
 ---------------------------------------------------------------------
 Center     Atomic      Atomic             Coordinates (Angstroms)
 Number     Number       Type             X           Y           Z
 ---------------------------------------------------------------------
      1          6           0       -0.381979   -0.224402   -0.048777
      2          6           0        0.771542    0.785837   -0.083379
      3          6           0        2.090208    0.315390   -0.053433
      4          8           0       -1.558676    0.426380   -0.093099
      5          8           0       -2.663405   -0.466406    0.030231
      6          8           0        2.390010   -0.893190   -0.033078
      7          1           0       -3.392588    0.094234   -0.268124
      8          1           0       -0.391703   -1.211777   -0.486166
      9          1           0        0.046011   -0.381042    1.401606
     10          1           0        2.859443    1.102362    0.019473
     11          1           0        0.089660    0.870048    1.777902
     12          1           0        0.567123    1.730951   -0.563582
 ---------------------------------------------------------------------
 Rotational constants (GHZ):          12.3402483           1.5247005           1.4026481
 Standard basis: 6-31+G(d) (6D, 7F)
 There are   126 symmetry adapted cartesian basis functions of A   symmetry.
 There are   126 symmetry adapted basis functions of A   symmetry.
   126 basis functions,   216 primitive gaussians,   126 cartesian basis functions
    24 alpha electrons       24 beta electrons
       nuclear repulsion energy       232.1173150233 Hartrees.
 NAtoms=   12 NActive=   12 NUniq=   12 SFac= 1.00D+00 NAtFMM=   60 NAOKFM=F Big=F
 Integral buffers will be    131072 words long.
 Raffenetti 2 integral format.
 Two-electron integral symmetry is turned on.
 One-electron integrals computed using PRISM.
 NBasis=   126 RedAO= T EigKep=  8.46D-05  NBF=   126
 NBsUse=   126 1.00D-06 EigRej= -1.00D+00 NBFU=   126
 Initial guess from the checkpoint file:  "/scratch/bell/zhao922/YARP/paper-example/KHP-network/pp_0/TS-folder/Gau-4492.chk"
 B after Tr=    -0.000000   -0.000000   -0.000000
         Rot=    0.999391   -0.034816    0.000821    0.002012 Ang=  -4.00 deg.
 ExpMin= 4.38D-02 ExpMax= 5.48D+03 ExpMxC= 8.25D+02 IAcc=3 IRadAn=         5 AccDes= 0.00D+00
 Harris functional with IExCor=  402 and IRadAn=       5 diagonalized for initial guess.
 HarFok:  IExCor=  402 AccDes= 0.00D+00 IRadAn=         5 IDoV= 1 UseB2=F ITyADJ=14
 ICtDFT=  3500011 ScaDFX=  1.000000  1.000000  1.000000  1.000000
 FoFCou: FMM=F IPFlag=           0 FMFlag=      100000 FMFlg1=           0
         NFxFlg=           0 DoJE=T BraDBF=F KetDBF=T FulRan=T
         wScrn=  0.000000 ICntrl=       500 IOpCl=  0 I1Cent=   200000004 NGrid=           0
         NMat0=    1 NMatS0=      1 NMatT0=    0 NMatD0=    1 NMtDS0=    0 NMtDT0=    0
 Petite list used in FoFCou.
 Keep R1 ints in memory in canonical form, NReq=47237537.
 Requested convergence on RMS density matrix=1.00D-08 within 128 cycles.
 Requested convergence on MAX density matrix=1.00D-06.
 Requested convergence on             energy=1.00D-06.
 No special actions if energy rises.
 SCF Done:  E(RB3LYP) =  -343.265789950     A.U. after   14 cycles
            NFock= 14  Conv=0.61D-08     -V/T= 2.0094
 DoSCS=F DFT=T ScalE2(SS,OS)=  1.000000  1.000000
 Range of M.O.s used for correlation:     1   126
 NBasis=   126 NAE=    24 NBE=    24 NFC=     0 NFV=     0
 NROrb=    126 NOA=    24 NOB=    24 NVA=   102 NVB=   102

 **** Warning!!: The largest alpha MO coefficient is  0.27954418D+02


 **** Warning!!: The smallest alpha delta epsilon is  0.66194085D-01

 Symmetrizing basis deriv contribution to polar:
 IMax=3 JMax=2 DiffMx= 0.00D+00
 G2DrvN: will do    13 centers at a time, making    1 passes.
 Calling FoFCou, ICntrl=  3107 FMM=F I1Cent=   0 AccDes= 0.00D+00.
 End of G2Drv F.D. properties file   721 does not exist.
 End of G2Drv F.D. properties file   722 does not exist.
 End of G2Drv F.D. properties file   788 does not exist.
          IDoAtm=111111111111
          Differentiating once with respect to electric field.
                with respect to dipole field.
          Differentiating once with respect to nuclear coordinates.
 Keep R1 ints in memory in canonical form, NReq=47193559.
          There are    39 degrees of freedom in the 1st order CPHF.  IDoFFX=6 NUNeed=     3.
     36 vectors produced by pass  0 Test12= 6.28D-15 2.56D-09 XBig12= 4.14D+02 1.86D+01.
 AX will form    36 AO Fock derivatives at one time.
     36 vectors produced by pass  1 Test12= 6.28D-15 2.56D-09 XBig12= 7.86D+01 1.40D+00.
     36 vectors produced by pass  2 Test12= 6.28D-15 2.56D-09 XBig12= 1.00D+00 1.25D-01.
     36 vectors produced by pass  3 Test12= 6.28D-15 2.56D-09 XBig12= 4.13D-03 8.18D-03.
     36 vectors produced by pass  4 Test12= 6.28D-15 2.56D-09 XBig12= 6.38D-06 3.65D-04.
     29 vectors produced by pass  5 Test12= 6.28D-15 2.56D-09 XBig12= 8.13D-09 1.27D-05.
      6 vectors produced by pass  6 Test12= 6.28D-15 2.56D-09 XBig12= 8.01D-12 3.47D-07.
      3 vectors produced by pass  7 Test12= 6.28D-15 2.56D-09 XBig12= 6.68D-15 1.09D-08.
 InvSVY:  IOpt=1 It=  1 EMax= 5.33D-15
 Solved reduced A of dimension   218 with    39 vectors.
 Isotropic polarizability for W=    0.000000       74.97 Bohr**3.
 End of Minotr F.D. properties file   721 does not exist.
 End of Minotr F.D. properties file   722 does not exist.
 End of Minotr F.D. properties file   788 does not exist.
 Calling FoFJK, ICntrl=    100127 FMM=F ISym2X=0 I1Cent= 0 IOpClX= 0 NMat=1 NMatS=1 NMatT=0.
 ***** Axes restored to original set *****
 -------------------------------------------------------------------
 Center     Atomic                   Forces (Hartrees/Bohr)
 Number     Number              X              Y              Z
 -------------------------------------------------------------------
      1        6           0.008635614   -0.025533536   -0.081020590
      2        6          -0.041572913    0.018386974   -0.020107637
      3        6           0.011060132   -0.021475195   -0.008067650
      4        8          -0.021196741   -0.007056675    0.017171594
      5        8           0.021843855    0.000941427   -0.011317766
      6        8          -0.006809394    0.001894491    0.000858977
      7        1          -0.007563526    0.002647306    0.004062666
      8        1           0.006485731    0.000651526    0.012196960
      9        1           0.014796660    0.047320617    0.023018591
     10        1           0.001927068   -0.002877793    0.004228051
     11        1           0.015591111   -0.015760733    0.049152386
     12        1          -0.003197597    0.000861592    0.009824418
 -------------------------------------------------------------------
 Cartesian Forces:  Max     0.081020590 RMS     0.022463411
 FormGI is forming the generalized inverse of G from B-inverse, IUseBI=4.

 GradGradGradGradGradGradGradGradGradGradGradGradGradGradGradGradGradGrad
 Berny optimization.
 Internal  Forces:  Max     0.078049185 RMS     0.021784713
 Search for a saddle point.
 Step number   2 out of a maximum of  100
 All quantities printed in internal units (Hartrees-Bohrs-Radians)
 Swapping is turned off.
 Second derivative matrix not updated -- analytic derivatives used.
 ITU=  0  0
     Eigenvalues ---   -0.33923  -0.04260   0.00051   0.00134   0.00768
     Eigenvalues ---    0.01111   0.01876   0.02469   0.03327   0.04532
     Eigenvalues ---    0.06238   0.06884   0.07967   0.10510   0.12973
     Eigenvalues ---    0.14408   0.16107   0.18363   0.19795   0.21344
     Eigenvalues ---    0.25564   0.32154   0.33654   0.36258   0.37695
     Eigenvalues ---    0.38000   0.41753   0.45996   0.52325   0.73096
 Eigenvectors required to have negative eigenvalues:
                          A15       R4        R11       D10       A3
   1                    0.49021   0.41375  -0.36159   0.32966   0.31192
                          D12       D7        D9        A2        A6
   1                    0.24490  -0.17514   0.17366  -0.15809  -0.13530
 RFO step:  Lambda0=3.541072394D-02 Lambda=-6.30251744D-02.
 Linear search not attempted -- option 19 set.
 Maximum step size (   0.300) exceeded in Quadratic search.
    -- Step size scaled by   0.290
 Iteration  1 RMS(Cart)=  0.05096043 RMS(Int)=  0.01053641
 Iteration  2 RMS(Cart)=  0.00947388 RMS(Int)=  0.00010810
 Iteration  3 RMS(Cart)=  0.00001647 RMS(Int)=  0.00010734
 Iteration  4 RMS(Cart)=  0.00000000 RMS(Int)=  0.00010734
 Variable       Old X    -DE/DX   Delta X   Delta X   Delta X     New X
                                 (Linear)    (Quad)   (Total)
    R1        2.89837   0.01683   0.00000   0.02164   0.02164   2.92001
    R2        2.54244   0.00072   0.00000  -0.03570  -0.03570   2.50674
    R3        2.04083   0.00860   0.00000   0.00948   0.00948   2.05031
    R4        2.87296  -0.07805   0.00000   0.07697   0.07697   2.94993
    R5        2.64636   0.02177   0.00000  -0.00675  -0.00675   2.63961
    R6        2.04022   0.00820   0.00000   0.00302   0.00302   2.04324
    R7        2.35342  -0.00702   0.00000   0.00698   0.00698   2.36040
    R8        2.08416   0.00227   0.00000   0.00298   0.00298   2.08713
    R9        2.69424   0.01223   0.00000   0.01375   0.01375   2.70799
   R10        1.82732   0.00774   0.00000   0.00544   0.00544   1.83276
   R11        2.47022  -0.01421   0.00000  -0.26328  -0.26328   2.20694
    A1        1.91605  -0.02080   0.00000   0.00315   0.00296   1.91901
    A2        2.21410   0.02201   0.00000   0.00914   0.00923   2.22333
    A3        1.44815  -0.02402   0.00000   0.02376   0.02369   1.47184
    A4        2.00537  -0.00116   0.00000  -0.00179  -0.00191   2.00346
    A5        1.90443   0.01801   0.00000   0.01437   0.01425   1.91869
    A6        1.86995   0.00597   0.00000  -0.04776  -0.04777   1.82219
    A7        2.07881  -0.00066   0.00000  -0.03544  -0.03553   2.04328
    A8        2.03112   0.00029   0.00000  -0.00351  -0.00350   2.02762
    A9        2.07360   0.00036   0.00000   0.02893   0.02871   2.10231
   A10        2.15681  -0.00419   0.00000  -0.00047  -0.00049   2.15632
   A11        2.00256   0.00578   0.00000   0.00463   0.00462   2.00718
   A12        2.12174  -0.00137   0.00000  -0.00477  -0.00479   2.11695
   A13        1.95190  -0.02117   0.00000  -0.00103  -0.00103   1.95087
   A14        1.76660  -0.00833   0.00000  -0.00724  -0.00724   1.75936
   A15        1.75729  -0.07717   0.00000  -0.08430  -0.08430   1.67299
    D1       -3.13550  -0.00027   0.00000  -0.01362  -0.01374   3.13395
    D2       -0.46366  -0.00018   0.00000  -0.02750  -0.02734  -0.49101
    D3       -0.58769  -0.00314   0.00000   0.00445   0.00433  -0.58336
    D4        2.08415  -0.00304   0.00000  -0.00943  -0.00927   2.07488
    D5        1.26557  -0.01158   0.00000  -0.03688  -0.03706   1.22851
    D6       -2.34579  -0.01148   0.00000  -0.05076  -0.05066  -2.39644
    D7       -3.07079   0.01230   0.00000  -0.01655  -0.01659  -3.08738
    D8        0.58695   0.00504   0.00000  -0.03610  -0.03610   0.55086
    D9       -1.51294  -0.01523   0.00000   0.01616   0.01620  -1.49674
   D10        0.87341  -0.04917   0.00000  -0.04004  -0.03979   0.83362
   D11       -1.02120  -0.01912   0.00000  -0.05088  -0.05095  -1.07215
   D12        3.08079  -0.03265   0.00000  -0.02707  -0.02725   3.05354
   D13        0.03232   0.00018   0.00000  -0.03572  -0.03590  -0.00358
   D14       -3.04086  -0.00341   0.00000  -0.02545  -0.02563  -3.06649
   D15       -2.62808   0.00011   0.00000  -0.01223  -0.01205  -2.64013
   D16        0.58192  -0.00348   0.00000  -0.00195  -0.00177   0.58015
   D17       -2.87262   0.00054   0.00000  -0.00454  -0.00454  -2.87717
         Item               Value     Threshold  Converged?
 Maximum Force            0.078049     0.000450     NO 
 RMS     Force            0.021785     0.000300     NO 
 Maximum Displacement     0.261025     0.001800     NO 
 RMS     Displacement     0.057719     0.001200     NO 
 Predicted change in Energy=-1.017553D-02
 GradGradGradGradGradGradGradGradGradGradGradGradGradGradGradGradGradGrad

                          Input orientation:                          
 ---------------------------------------------------------------------
 Center     Atomic      Atomic             Coordinates (Angstroms)
 Number     Number       Type             X           Y           Z
 ---------------------------------------------------------------------
      1          6           0        1.372000    1.695535   -1.422011
      2          6           0        0.603601    0.478268   -0.860336
      3          6           0        1.329721   -0.699971   -0.671615
      4          8           0        0.550124    2.728490   -1.552959
      5          8           0        1.206813    3.859436   -2.138812
      6          8           0        2.545659   -0.811134   -0.934896
      7          1           0        0.572727    4.564112   -1.933916
      8          1           0        2.409268    1.959220   -1.243906
      9          1           0        1.403248    0.869134   -2.745986
     10          1           0        0.732882   -1.568077   -0.339928
     11          1           0        0.269972    0.587148   -2.737194
     12          1           0       -0.252155    0.700266   -0.237862
 ---------------------------------------------------------------------
                    Distance matrix (angstroms):
                    1          2          3          4          5
     1  C    0.000000
     2  C    1.545204   0.000000
     3  C    2.510643   1.396822   0.000000
     4  O    1.326508   2.355013   3.624760   0.000000
     5  O    2.285511   3.664787   4.791239   1.433005   0.000000
     6  O    2.810363   2.332317   1.249071   4.110121   5.005612
     7  H    3.021526   4.224647   5.465987   1.874872   0.969853
     8  H    1.084977   2.366596   2.926471   2.035609   2.420243
     9  H    1.561034   2.085159   2.602020   2.368194   3.057639
    10  H    3.497218   2.115435   1.104464   4.468258   5.737464
    11  H    2.042717   1.909387   2.654497   2.462974   3.455952
    12  H    2.242911   1.081237   2.156649   2.546925   3.965168
                    6          7          8          9         10
     6  O    0.000000
     7  H    5.812380   0.000000
     8  H    2.790869   3.261051   0.000000
     9  H    2.721846   3.873253   2.111068   0.000000
    10  H    2.052586   6.337995   4.008649   3.489771   0.000000
    11  H    3.222144   4.068557   2.947723   1.167864   3.256710
    12  H    3.255449   4.299574   3.111312   3.009910   2.475095
                   11         12
    11  H    0.000000
    12  H    2.555791   0.000000
 Stoichiometry    C3H6O3
 Framework group  C1[X(C3H6O3)]
 Deg. of freedom    30
 Full point group                 C1      NOp   1
 Largest Abelian subgroup         C1      NOp   1
 Largest concise Abelian subgroup C1      NOp   1
                         Standard orientation:                         
 ---------------------------------------------------------------------
 Center     Atomic      Atomic             Coordinates (Angstroms)
 Number     Number       Type             X           Y           Z
 ---------------------------------------------------------------------
      1          6           0       -0.378436   -0.197378   -0.064895
      2          6           0        0.780750    0.824315   -0.055472
      3          6           0        2.080051    0.311558   -0.052374
      4          8           0       -1.542475    0.438688   -0.057339
      5          8           0       -2.646132   -0.473113    0.006419
      6          8           0        2.340009   -0.910162   -0.053063
      7          1           0       -3.378841    0.110479   -0.244918
      8          1           0       -0.394932   -1.170602   -0.544204
      9          1           0        0.075916   -0.493136    1.398976
     10          1           0        2.880350    1.068304    0.029468
     11          1           0        0.139807    0.624420    1.731982
     12          1           0        0.572296    1.786261   -0.503001
 ---------------------------------------------------------------------
 Rotational constants (GHZ):          12.0973190           1.5558779           1.4235046
 Standard basis: 6-31+G(d) (6D, 7F)
 There are   126 symmetry adapted cartesian basis functions of A   symmetry.
 There are   126 symmetry adapted basis functions of A   symmetry.
   126 basis functions,   216 primitive gaussians,   126 cartesian basis functions
    24 alpha electrons       24 beta electrons
       nuclear repulsion energy       232.9728424770 Hartrees.
 NAtoms=   12 NActive=   12 NUniq=   12 SFac= 1.00D+00 NAtFMM=   60 NAOKFM=F Big=F
 Integral buffers will be    131072 words long.
 Raffenetti 2 integral format.
 Two-electron integral symmetry is turned on.
 One-electron integrals computed using PRISM.
 NBasis=   126 RedAO= T EigKep=  8.74D-05  NBF=   126
 NBsUse=   126 1.00D-06 EigRej= -1.00D+00 NBFU=   126
 Initial guess from the checkpoint file:  "/scratch/bell/zhao922/YARP/paper-example/KHP-network/pp_0/TS-folder/Gau-4492.chk"
 B after Tr=     0.000000    0.000000    0.000000
         Rot=    0.999683   -0.025068   -0.000758    0.002260 Ang=  -2.89 deg.
 ExpMin= 4.38D-02 ExpMax= 5.48D+03 ExpMxC= 8.25D+02 IAcc=3 IRadAn=         5 AccDes= 0.00D+00
 Harris functional with IExCor=  402 and IRadAn=       5 diagonalized for initial guess.
 HarFok:  IExCor=  402 AccDes= 0.00D+00 IRadAn=         5 IDoV= 1 UseB2=F ITyADJ=14
 ICtDFT=  3500011 ScaDFX=  1.000000  1.000000  1.000000  1.000000
 FoFCou: FMM=F IPFlag=           0 FMFlag=      100000 FMFlg1=           0
         NFxFlg=           0 DoJE=T BraDBF=F KetDBF=T FulRan=T
         wScrn=  0.000000 ICntrl=       500 IOpCl=  0 I1Cent=   200000004 NGrid=           0
         NMat0=    1 NMatS0=      1 NMatT0=    0 NMatD0=    1 NMtDS0=    0 NMtDT0=    0
 Petite list used in FoFCou.
 Keep R1 ints in memory in canonical form, NReq=47237537.
 Requested convergence on RMS density matrix=1.00D-08 within 128 cycles.
 Requested convergence on MAX density matrix=1.00D-06.
 Requested convergence on             energy=1.00D-06.
 No special actions if energy rises.
 SCF Done:  E(RB3LYP) =  -343.275911180     A.U. after   15 cycles
            NFock= 15  Conv=0.63D-08     -V/T= 2.0094
 DoSCS=F DFT=T ScalE2(SS,OS)=  1.000000  1.000000
 Range of M.O.s used for correlation:     1   126
 NBasis=   126 NAE=    24 NBE=    24 NFC=     0 NFV=     0
 NROrb=    126 NOA=    24 NOB=    24 NVA=   102 NVB=   102

 **** Warning!!: The largest alpha MO coefficient is  0.27936082D+02


 **** Warning!!: The smallest alpha delta epsilon is  0.70830603D-01

 Symmetrizing basis deriv contribution to polar:
 IMax=3 JMax=2 DiffMx= 0.00D+00
 G2DrvN: will do    13 centers at a time, making    1 passes.
 Calling FoFCou, ICntrl=  3107 FMM=F I1Cent=   0 AccDes= 0.00D+00.
 End of G2Drv F.D. properties file   721 does not exist.
 End of G2Drv F.D. properties file   722 does not exist.
 End of G2Drv F.D. properties file   788 does not exist.
          IDoAtm=111111111111
          Differentiating once with respect to electric field.
                with respect to dipole field.
          Differentiating once with respect to nuclear coordinates.
 Keep R1 ints in memory in canonical form, NReq=47193559.
          There are    39 degrees of freedom in the 1st order CPHF.  IDoFFX=6 NUNeed=     3.
     36 vectors produced by pass  0 Test12= 6.28D-15 2.56D-09 XBig12= 3.01D+02 1.49D+01.
 AX will form    36 AO Fock derivatives at one time.
     36 vectors produced by pass  1 Test12= 6.28D-15 2.56D-09 XBig12= 4.96D+01 1.14D+00.
     36 vectors produced by pass  2 Test12= 6.28D-15 2.56D-09 XBig12= 7.55D-01 1.16D-01.
     36 vectors produced by pass  3 Test12= 6.28D-15 2.56D-09 XBig12= 3.45D-03 8.30D-03.
     36 vectors produced by pass  4 Test12= 6.28D-15 2.56D-09 XBig12= 5.91D-06 3.92D-04.
     30 vectors produced by pass  5 Test12= 6.28D-15 2.56D-09 XBig12= 7.17D-09 1.10D-05.
      4 vectors produced by pass  6 Test12= 6.28D-15 2.56D-09 XBig12= 7.11D-12 3.69D-07.
      3 vectors produced by pass  7 Test12= 6.28D-15 2.56D-09 XBig12= 5.12D-15 8.98D-09.
 InvSVY:  IOpt=1 It=  1 EMax= 7.11D-15
 Solved reduced A of dimension   217 with    39 vectors.
 Isotropic polarizability for W=    0.000000       73.35 Bohr**3.
 End of Minotr F.D. properties file   721 does not exist.
 End of Minotr F.D. properties file   722 does not exist.
 End of Minotr F.D. properties file   788 does not exist.
 Calling FoFJK, ICntrl=    100127 FMM=F ISym2X=0 I1Cent= 0 IOpClX= 0 NMat=1 NMatS=1 NMatT=0.
 ***** Axes restored to original set *****
 -------------------------------------------------------------------
 Center     Atomic                   Forces (Hartrees/Bohr)
 Number     Number              X              Y              Z
 -------------------------------------------------------------------
      1        6          -0.000316707   -0.018054454   -0.048840681
      2        6          -0.032170572    0.016116168   -0.016161556
      3        6           0.009748402   -0.014928980   -0.006460298
      4        8          -0.014758356   -0.006956661    0.010814957
      5        8           0.017282784    0.002180886   -0.008129073
      6        8          -0.005234950    0.000683729   -0.000291439
      7        1          -0.005781684    0.001950830    0.002898115
      8        1           0.006269867   -0.000927950    0.005935524
      9        1          -0.002683262    0.031212727    0.007262225
     10        1           0.001766320   -0.002103273    0.003727989
     11        1           0.027363745   -0.010239983    0.041226122
     12        1          -0.001485588    0.001066961    0.008018115
 -------------------------------------------------------------------
 Cartesian Forces:  Max     0.048840681 RMS     0.015990586
 FormGI is forming the generalized inverse of G from B-inverse, IUseBI=4.

 GradGradGradGradGradGradGradGradGradGradGradGradGradGradGradGradGradGrad
 Berny optimization.
 Internal  Forces:  Max     0.058950417 RMS     0.016084396
 Search for a saddle point.
 Step number   3 out of a maximum of  100
 All quantities printed in internal units (Hartrees-Bohrs-Radians)
 Swapping is turned off.
 Second derivative matrix not updated -- analytic derivatives used.
 ITU=  0  0  0
     Eigenvalues ---   -0.36905  -0.03126   0.00072   0.00155   0.00854
     Eigenvalues ---    0.01647   0.02594   0.03091   0.03784   0.04159
     Eigenvalues ---    0.06603   0.06887   0.07790   0.10332   0.12701
     Eigenvalues ---    0.14447   0.16046   0.18068   0.19595   0.21427
     Eigenvalues ---    0.25045   0.31713   0.33165   0.35493   0.37344
     Eigenvalues ---    0.37521   0.42279   0.49115   0.51375   0.72299
 Eigenvectors required to have negative eigenvalues:
                          R4        R11       A15       A3        D10
   1                    0.46093  -0.44581   0.39685   0.31574   0.29576
                          D12       D9        D7        A6        A2
   1                    0.22205   0.18584  -0.16937  -0.16857  -0.13516
 RFO step:  Lambda0=1.255131844D-02 Lambda=-5.83009098D-02.
 Linear search not attempted -- option 19 set.
 Maximum step size (   0.300) exceeded in Quadratic search.
    -- Step size scaled by   0.345
 Iteration  1 RMS(Cart)=  0.06550123 RMS(Int)=  0.00454775
 Iteration  2 RMS(Cart)=  0.00500167 RMS(Int)=  0.00018779
 Iteration  3 RMS(Cart)=  0.00004102 RMS(Int)=  0.00018563
 Iteration  4 RMS(Cart)=  0.00000000 RMS(Int)=  0.00018563
 Variable       Old X    -DE/DX   Delta X   Delta X   Delta X     New X
                                 (Linear)    (Quad)   (Total)
    R1        2.92001   0.00890   0.00000  -0.02238  -0.02238   2.89763
    R2        2.50674  -0.00073   0.00000  -0.02768  -0.02768   2.47906
    R3        2.05031   0.00674   0.00000   0.00831   0.00831   2.05862
    R4        2.94993  -0.05173   0.00000   0.09883   0.09883   3.04875
    R5        2.63961   0.01665   0.00000   0.00616   0.00616   2.64578
    R6        2.04324   0.00601   0.00000   0.00262   0.00262   2.04586
    R7        2.36040  -0.00510   0.00000   0.00013   0.00013   2.36054
    R8        2.08713   0.00182   0.00000   0.00302   0.00302   2.09015
    R9        2.70799   0.01067   0.00000   0.01862   0.01862   2.72660
   R10        1.83276   0.00581   0.00000   0.00474   0.00474   1.83750
   R11        2.20694  -0.02377   0.00000  -0.19364  -0.19364   2.01331
    A1        1.91901  -0.01432   0.00000   0.01007   0.00959   1.92860
    A2        2.22333   0.01558   0.00000   0.01485   0.01487   2.23820
    A3        1.47184  -0.01440   0.00000   0.03444   0.03434   1.50618
    A4        2.00346  -0.00046   0.00000  -0.00223  -0.00285   2.00061
    A5        1.91869   0.01341   0.00000   0.01355   0.01313   1.93182
    A6        1.82219   0.00089   0.00000  -0.07640  -0.07644   1.74575
    A7        2.04328  -0.00280   0.00000  -0.03277  -0.03282   2.01047
    A8        2.02762   0.00028   0.00000  -0.00053  -0.00051   2.02711
    A9        2.10231   0.00202   0.00000   0.02492   0.02477   2.12708
   A10        2.15632  -0.00280   0.00000   0.00060   0.00057   2.15690
   A11        2.00718   0.00427   0.00000   0.00307   0.00304   2.01022
   A12        2.11695  -0.00133   0.00000  -0.00461  -0.00464   2.11231
   A13        1.95087  -0.01535   0.00000  -0.00305  -0.00305   1.94783
   A14        1.75936  -0.00631   0.00000  -0.00779  -0.00779   1.75157
   A15        1.67299  -0.05895   0.00000  -0.17701  -0.17701   1.49598
    D1        3.13395  -0.00120   0.00000  -0.01600  -0.01606   3.11789
    D2       -0.49101  -0.00163   0.00000  -0.02581  -0.02567  -0.51667
    D3       -0.58336  -0.00160   0.00000   0.02616   0.02619  -0.55717
    D4        2.07488  -0.00203   0.00000   0.01635   0.01658   2.09146
    D5        1.22851  -0.01013   0.00000  -0.04268  -0.04295   1.18556
    D6       -2.39644  -0.01056   0.00000  -0.05249  -0.05256  -2.44900
    D7       -3.08738   0.00748   0.00000  -0.01440  -0.01450  -3.10189
    D8        0.55086   0.00125   0.00000  -0.05631  -0.05625   0.49461
    D9       -1.49674  -0.00907   0.00000   0.03314   0.03319  -1.46356
   D10        0.83362  -0.03700   0.00000  -0.07451  -0.07410   0.75952
   D11       -1.07215  -0.01701   0.00000  -0.09754  -0.09745  -1.16960
   D12        3.05354  -0.02437   0.00000  -0.05600  -0.05650   2.99704
   D13       -0.00358  -0.00172   0.00000  -0.03832  -0.03845  -0.04203
   D14       -3.06649  -0.00369   0.00000  -0.02448  -0.02461  -3.09110
   D15       -2.64013  -0.00068   0.00000  -0.01974  -0.01961  -2.65974
   D16        0.58015  -0.00266   0.00000  -0.00590  -0.00577   0.57438
   D17       -2.87717   0.00020   0.00000  -0.00279  -0.00279  -2.87996
         Item               Value     Threshold  Converged?
 Maximum Force            0.058950     0.000450     NO 
 RMS     Force            0.016084     0.000300     NO 
 Maximum Displacement     0.255340     0.001800     NO 
 RMS     Displacement     0.065836     0.001200     NO 
 Predicted change in Energy=-1.694463D-02
 GradGradGradGradGradGradGradGradGradGradGradGradGradGradGradGradGradGrad

                          Input orientation:                          
 ---------------------------------------------------------------------
 Center     Atomic      Atomic             Coordinates (Angstroms)
 Number     Number       Type             X           Y           Z
 ---------------------------------------------------------------------
      1          6           0        1.330192    1.685116   -1.413657
      2          6           0        0.560848    0.483330   -0.852392
      3          6           0        1.316225   -0.684054   -0.688511
      4          8           0        0.531492    2.715996   -1.556295
      5          8           0        1.219740    3.845439   -2.132931
      6          8           0        2.519053   -0.779745   -1.011626
      7          1           0        0.584497    4.555353   -1.938065
      8          1           0        2.379613    1.940250   -1.270961
      9          1           0        1.429469    0.846607   -2.788388
     10          1           0        0.750155   -1.564487   -0.331055
     11          1           0        0.405092    0.605715   -2.621978
     12          1           0       -0.282517    0.712907   -0.213562
 ---------------------------------------------------------------------
                    Distance matrix (angstroms):
                    1          2          3          4          5
     1  C    0.000000
     2  C    1.533362   0.000000
     3  C    2.477700   1.400084   0.000000
     4  O    1.311861   2.341183   3.595718   0.000000
     5  O    2.279594   3.657553   4.755203   1.442857   0.000000
     6  O    2.765965   2.335655   1.249142   4.057988   4.933342
     7  H    3.011532   4.214335   5.435825   1.879307   0.972361
     8  H    1.089376   2.367640   2.890849   2.024536   2.391242
     9  H    1.613332   2.152802   2.601006   2.412266   3.076784
    10  H    3.473959   2.121600   1.106062   4.457753   5.721413
    11  H    1.865732   1.780639   2.496389   2.367475   3.376185
    12  H    2.232991   1.082623   2.175557   2.545173   3.969069
                    6          7          8          9         10
     6  O    0.000000
     7  H    5.750137   0.000000
     8  H    2.735886   3.241332   0.000000
     9  H    2.643691   3.897669   2.097954   0.000000
    10  H    2.051340   6.329484   3.977655   3.509035   0.000000
    11  H    2.996926   4.012426   2.739518   1.065396   3.174456
    12  H    3.273180   4.300002   3.116312   3.094916   2.503346
                   11         12
    11  H    0.000000
    12  H    2.506943   0.000000
 Stoichiometry    C3H6O3
 Framework group  C1[X(C3H6O3)]
 Deg. of freedom    30
 Full point group                 C1      NOp   1
 Largest Abelian subgroup         C1      NOp   1
 Largest concise Abelian subgroup C1      NOp   1
                         Standard orientation:                         
 ---------------------------------------------------------------------
 Center     Atomic      Atomic             Coordinates (Angstroms)
 Number     Number       Type             X           Y           Z
 ---------------------------------------------------------------------
      1          6           0       -0.367898   -0.160037   -0.078709
      2          6           0        0.779159    0.856257   -0.027659
      3          6           0        2.065716    0.304545   -0.052561
      4          8           0       -1.526844    0.451970   -0.021533
      5          8           0       -2.623150   -0.486062   -0.014742
      6          8           0        2.290415   -0.924122   -0.068130
      7          1           0       -3.364042    0.109457   -0.219489
      8          1           0       -0.389689   -1.127641   -0.578716
      9          1           0        0.109326   -0.615440    1.393604
     10          1           0        2.892362    1.034215    0.034680
     11          1           0        0.198267    0.426050    1.599658
     12          1           0        0.568549    1.834485   -0.440922
 ---------------------------------------------------------------------
 Rotational constants (GHZ):          11.9073422           1.5938308           1.4482038
 Standard basis: 6-31+G(d) (6D, 7F)
 There are   126 symmetry adapted cartesian basis functions of A   symmetry.
 There are   126 symmetry adapted basis functions of A   symmetry.
   126 basis functions,   216 primitive gaussians,   126 cartesian basis functions
    24 alpha electrons       24 beta electrons
       nuclear repulsion energy       234.2693731582 Hartrees.
 NAtoms=   12 NActive=   12 NUniq=   12 SFac= 1.00D+00 NAtFMM=   60 NAOKFM=F Big=F
 Integral buffers will be    131072 words long.
 Raffenetti 2 integral format.
 Two-electron integral symmetry is turned on.
 One-electron integrals computed using PRISM.
 NBasis=   126 RedAO= T EigKep=  8.86D-05  NBF=   126
 NBsUse=   126 1.00D-06 EigRej= -1.00D+00 NBFU=   126
 Initial guess from the checkpoint file:  "/scratch/bell/zhao922/YARP/paper-example/KHP-network/pp_0/TS-folder/Gau-4492.chk"
 B after Tr=    -0.000000    0.000000   -0.000000
         Rot=    0.999775   -0.021142   -0.000916    0.001581 Ang=  -2.43 deg.
 ExpMin= 4.38D-02 ExpMax= 5.48D+03 ExpMxC= 8.25D+02 IAcc=3 IRadAn=         5 AccDes= 0.00D+00
 Harris functional with IExCor=  402 and IRadAn=       5 diagonalized for initial guess.
 HarFok:  IExCor=  402 AccDes= 0.00D+00 IRadAn=         5 IDoV= 1 UseB2=F ITyADJ=14
 ICtDFT=  3500011 ScaDFX=  1.000000  1.000000  1.000000  1.000000
 FoFCou: FMM=F IPFlag=           0 FMFlag=      100000 FMFlg1=           0
         NFxFlg=           0 DoJE=T BraDBF=F KetDBF=T FulRan=T
         wScrn=  0.000000 ICntrl=       500 IOpCl=  0 I1Cent=   200000004 NGrid=           0
         NMat0=    1 NMatS0=      1 NMatT0=    0 NMatD0=    1 NMtDS0=    0 NMtDT0=    0
 Petite list used in FoFCou.
 Keep R1 ints in memory in canonical form, NReq=47237537.
 Requested convergence on RMS density matrix=1.00D-08 within 128 cycles.
 Requested convergence on MAX density matrix=1.00D-06.
 Requested convergence on             energy=1.00D-06.
 No special actions if energy rises.
 SCF Done:  E(RB3LYP) =  -343.292788502     A.U. after   14 cycles
            NFock= 14  Conv=0.99D-08     -V/T= 2.0093
 DoSCS=F DFT=T ScalE2(SS,OS)=  1.000000  1.000000
 Range of M.O.s used for correlation:     1   126
 NBasis=   126 NAE=    24 NBE=    24 NFC=     0 NFV=     0
 NROrb=    126 NOA=    24 NOB=    24 NVA=   102 NVB=   102

 **** Warning!!: The largest alpha MO coefficient is  0.27563500D+02


 **** Warning!!: The smallest alpha delta epsilon is  0.82108770D-01

 Symmetrizing basis deriv contribution to polar:
 IMax=3 JMax=2 DiffMx= 0.00D+00
 G2DrvN: will do    13 centers at a time, making    1 passes.
 Calling FoFCou, ICntrl=  3107 FMM=F I1Cent=   0 AccDes= 0.00D+00.
 End of G2Drv F.D. properties file   721 does not exist.
 End of G2Drv F.D. properties file   722 does not exist.
 End of G2Drv F.D. properties file   788 does not exist.
          IDoAtm=111111111111
          Differentiating once with respect to electric field.
                with respect to dipole field.
          Differentiating once with respect to nuclear coordinates.
 Keep R1 ints in memory in canonical form, NReq=47193559.
          There are    39 degrees of freedom in the 1st order CPHF.  IDoFFX=6 NUNeed=     3.
     36 vectors produced by pass  0 Test12= 6.28D-15 2.56D-09 XBig12= 1.48D+02 7.38D+00.
 AX will form    36 AO Fock derivatives at one time.
     36 vectors produced by pass  1 Test12= 6.28D-15 2.56D-09 XBig12= 1.89D+01 9.12D-01.
     36 vectors produced by pass  2 Test12= 6.28D-15 2.56D-09 XBig12= 3.97D-01 1.16D-01.
     36 vectors produced by pass  3 Test12= 6.28D-15 2.56D-09 XBig12= 1.84D-03 7.65D-03.
     36 vectors produced by pass  4 Test12= 6.28D-15 2.56D-09 XBig12= 3.18D-06 3.03D-04.
     29 vectors produced by pass  5 Test12= 6.28D-15 2.56D-09 XBig12= 4.14D-09 9.79D-06.
      4 vectors produced by pass  6 Test12= 6.28D-15 2.56D-09 XBig12= 4.39D-12 2.87D-07.
      3 vectors produced by pass  7 Test12= 6.28D-15 2.56D-09 XBig12= 2.84D-15 9.87D-09.
 InvSVY:  IOpt=1 It=  1 EMax= 4.44D-15
 Solved reduced A of dimension   216 with    39 vectors.
 Isotropic polarizability for W=    0.000000       68.62 Bohr**3.
 End of Minotr F.D. properties file   721 does not exist.
 End of Minotr F.D. properties file   722 does not exist.
 End of Minotr F.D. properties file   788 does not exist.
 Calling FoFJK, ICntrl=    100127 FMM=F ISym2X=0 I1Cent= 0 IOpClX= 0 NMat=1 NMatS=1 NMatT=0.
 ***** Axes restored to original set *****
 -------------------------------------------------------------------
 Center     Atomic                   Forces (Hartrees/Bohr)
 Number     Number              X              Y              Z
 -------------------------------------------------------------------
      1        6          -0.013373168   -0.013485307   -0.016818724
      2        6          -0.019184065    0.016662525   -0.008193905
      3        6           0.007512627   -0.009500605   -0.003764262
      4        8          -0.009186851   -0.004109045    0.005069170
      5        8           0.013009850    0.002659173   -0.005179073
      6        8          -0.003796506   -0.000228840   -0.001770223
      7        1          -0.004143781    0.001310488    0.001905638
      8        1           0.005898936   -0.004205311   -0.001468207
      9        1          -0.012484601    0.017039798   -0.004865850
     10        1           0.001591086   -0.001379940    0.003250811
     11        1           0.035434996   -0.005322778    0.026975510
     12        1          -0.001278522    0.000559841    0.004859116
 -------------------------------------------------------------------
 Cartesian Forces:  Max     0.035434996 RMS     0.011135825
 FormGI is forming the generalized inverse of G from B-inverse, IUseBI=4.

 GradGradGradGradGradGradGradGradGradGradGradGradGradGradGradGradGradGrad
 Berny optimization.
 Internal  Forces:  Max     0.040743947 RMS     0.010793540
 Search for a saddle point.
 Step number   4 out of a maximum of  100
 All quantities printed in internal units (Hartrees-Bohrs-Radians)
 Swapping is turned off.
 Second derivative matrix not updated -- analytic derivatives used.
 ITU=  0  0  0  0
     Eigenvalues ---   -0.56288  -0.01833   0.00162   0.00305   0.00659
     Eigenvalues ---    0.01908   0.02689   0.03024   0.03531   0.04709
     Eigenvalues ---    0.06740   0.07538   0.09807   0.10863   0.12732
     Eigenvalues ---    0.14283   0.16077   0.18047   0.19284   0.21575
     Eigenvalues ---    0.24405   0.31326   0.32975   0.34900   0.37077
     Eigenvalues ---    0.37537   0.42440   0.50510   0.52540   0.72677
 Eigenvectors required to have negative eigenvalues:
                          R4        R11       A3        A15       D10
   1                    0.48820  -0.48510   0.36254   0.28668   0.24502
                          D9        A6        D7        D12       R1
   1                    0.22109  -0.21612  -0.18115   0.17892  -0.12506
 RFO step:  Lambda0=6.500039263D-04 Lambda=-4.53481118D-02.
 Linear search not attempted -- option 19 set.
 Maximum step size (   0.300) exceeded in Quadratic search.
    -- Step size scaled by   0.367
 Iteration  1 RMS(Cart)=  0.05844797 RMS(Int)=  0.00925812
 Iteration  2 RMS(Cart)=  0.01608955 RMS(Int)=  0.00054932
 Iteration  3 RMS(Cart)=  0.00039905 RMS(Int)=  0.00037962
 Iteration  4 RMS(Cart)=  0.00000025 RMS(Int)=  0.00037962
 Variable       Old X    -DE/DX   Delta X   Delta X   Delta X     New X
                                 (Linear)    (Quad)   (Total)
    R1        2.89763   0.00076   0.00000  -0.06140  -0.06140   2.83623
    R2        2.47906  -0.00011   0.00000   0.00301   0.00301   2.48207
    R3        2.05862   0.00451   0.00000   0.00239   0.00239   2.06101
    R4        3.04875  -0.02352   0.00000   0.08247   0.08247   3.13122
    R5        2.64578   0.01186   0.00000   0.02004   0.02004   2.66581
    R6        2.04586   0.00398   0.00000   0.00135   0.00135   2.04721
    R7        2.36054  -0.00318   0.00000  -0.00761  -0.00761   2.35293
    R8        2.09015   0.00133   0.00000   0.00185   0.00185   2.09201
    R9        2.72660   0.00864   0.00000   0.01236   0.01236   2.73896
   R10        1.83750   0.00405   0.00000   0.00278   0.00278   1.84027
   R11        2.01331  -0.02865   0.00000  -0.03538  -0.03538   1.97793
    A1        1.92860  -0.00843   0.00000   0.01315   0.01253   1.94113
    A2        2.23820   0.00806   0.00000   0.00475   0.00539   2.24358
    A3        1.50618   0.00103   0.00000   0.06757   0.06714   1.57332
    A4        2.00061   0.00088   0.00000  -0.00217  -0.00289   1.99772
    A5        1.93182   0.00722   0.00000   0.00869   0.00759   1.93941
    A6        1.74575  -0.00731   0.00000  -0.09606  -0.09630   1.64945
    A7        2.01047  -0.00339   0.00000  -0.00930  -0.00931   2.00115
    A8        2.02711   0.00021   0.00000   0.00670   0.00669   2.03380
    A9        2.12708   0.00261   0.00000   0.00749   0.00748   2.13455
   A10        2.15690  -0.00197   0.00000  -0.00067  -0.00068   2.15621
   A11        2.01022   0.00310   0.00000   0.00357   0.00356   2.01377
   A12        2.11231  -0.00111   0.00000  -0.00373  -0.00374   2.10856
   A13        1.94783  -0.01057   0.00000  -0.01315  -0.01315   1.93468
   A14        1.75157  -0.00456   0.00000  -0.00729  -0.00729   1.74428
   A15        1.49598  -0.04074   0.00000  -0.24984  -0.24984   1.24614
    D1        3.11789  -0.00092   0.00000   0.00693   0.00731   3.12520
    D2       -0.51667  -0.00125   0.00000   0.01845   0.01883  -0.49784
    D3       -0.55717  -0.00048   0.00000   0.04019   0.04020  -0.51697
    D4        2.09146  -0.00081   0.00000   0.05171   0.05172   2.14318
    D5        1.18556  -0.00842   0.00000  -0.02868  -0.02908   1.15648
    D6       -2.44900  -0.00875   0.00000  -0.01716  -0.01756  -2.46656
    D7       -3.10189   0.00013   0.00000  -0.01960  -0.01960  -3.12149
    D8        0.49461  -0.00315   0.00000  -0.04946  -0.04946   0.44514
    D9       -1.46356   0.00079   0.00000   0.06632   0.06633  -1.39723
   D10        0.75952  -0.02406   0.00000  -0.11113  -0.11006   0.64946
   D11       -1.16960  -0.01595   0.00000  -0.15145  -0.15125  -1.32085
   D12        2.99704  -0.01610   0.00000  -0.09999  -0.10127   2.89577
   D13       -0.04203  -0.00323   0.00000  -0.02350  -0.02349  -0.06552
   D14       -3.09110  -0.00352   0.00000  -0.01318  -0.01318  -3.10428
   D15       -2.65974  -0.00201   0.00000  -0.03510  -0.03510  -2.69484
   D16        0.57438  -0.00229   0.00000  -0.02479  -0.02479   0.54959
   D17       -2.87996  -0.00001   0.00000   0.00028   0.00028  -2.87968
         Item               Value     Threshold  Converged?
 Maximum Force            0.040744     0.000450     NO 
 RMS     Force            0.010794     0.000300     NO 
 Maximum Displacement     0.289237     0.001800     NO 
 RMS     Displacement     0.069532     0.001200     NO 
 Predicted change in Energy=-1.771946D-02
 GradGradGradGradGradGradGradGradGradGradGradGradGradGradGradGradGradGrad

                          Input orientation:                          
 ---------------------------------------------------------------------
 Center     Atomic      Atomic             Coordinates (Angstroms)
 Number     Number       Type             X           Y           Z
 ---------------------------------------------------------------------
      1          6           0        1.285579    1.665047   -1.419257
      2          6           0        0.537139    0.492736   -0.855222
      3          6           0        1.309427   -0.676911   -0.695431
      4          8           0        0.499996    2.708506   -1.557866
      5          8           0        1.224046    3.827205   -2.127964
      6          8           0        2.497845   -0.771078   -1.054751
      7          1           0        0.600185    4.548762   -1.931754
      8          1           0        2.344417    1.906933   -1.320019
      9          1           0        1.469793    0.861293   -2.856477
     10          1           0        0.760433   -1.559711   -0.314886
     11          1           0        0.523121    0.639606   -2.468920
     12          1           0       -0.308122    0.720038   -0.216874
 ---------------------------------------------------------------------
                    Distance matrix (angstroms):
                    1          2          3          4          5
     1  C    0.000000
     2  C    1.500870   0.000000
     3  C    2.451379   1.410687   0.000000
     4  O    1.313453   2.324806   3.586087   0.000000
     5  O    2.276177   3.634611   4.727209   1.449396   0.000000
     6  O    2.745389   2.341240   1.245116   4.043764   4.890661
     7  H    3.008028   4.196932   5.416565   1.880525   0.973830
     8  H    1.090640   2.341419   2.852642   2.025088   2.365471
[...]
   A14        1.72315   0.00000   0.00000   0.00000   0.00000   1.72315
   A15        1.08278   0.00000   0.00000   0.00000   0.00000   1.08278
    D1       -2.39063   0.00000   0.00000  -0.00000  -0.00000  -2.39063
    D2        0.62587   0.00000   0.00000   0.00000   0.00000   0.62587
    D3        0.06154  -0.00000   0.00000  -0.00000  -0.00000   0.06154
    D4        3.07804  -0.00000   0.00000  -0.00000  -0.00000   3.07803
    D5        1.91764  -0.00000   0.00000  -0.00000  -0.00000   1.91764
    D6       -1.34905  -0.00000   0.00000   0.00000   0.00000  -1.34905
    D7       -3.09166  -0.00000   0.00000  -0.00000  -0.00000  -3.09167
    D8        0.77287  -0.00000   0.00000  -0.00000  -0.00000   0.77287
    D9       -0.98065   0.00000   0.00000  -0.00000  -0.00000  -0.98066
   D10       -0.05946   0.00000   0.00000  -0.00000  -0.00000  -0.05946
   D11       -2.19295  -0.00000   0.00000  -0.00000  -0.00000  -2.19295
   D12        2.00195   0.00000   0.00000  -0.00000  -0.00000   2.00195
   D13       -0.10558   0.00000   0.00000   0.00000   0.00000  -0.10558
   D14        3.04762   0.00000   0.00000   0.00000   0.00000   3.04762
   D15       -3.11723  -0.00000   0.00000  -0.00000  -0.00000  -3.11723
   D16        0.03598  -0.00000   0.00000  -0.00000  -0.00000   0.03598
   D17       -2.39789  -0.00000   0.00000  -0.00002  -0.00002  -2.39791
         Item               Value     Threshold  Converged?
 Maximum Force            0.000000     0.000450     YES
 RMS     Force            0.000000     0.000300     YES
 Maximum Displacement     0.000018     0.001800     YES
 RMS     Displacement     0.000004     0.001200     YES
 Predicted change in Energy=-2.049066D-12
 Optimization completed.
    -- Stationary point found.
                           ----------------------------
                           !   Optimized Parameters   !
                           ! (Angstroms and Degrees)  !
 --------------------------                            --------------------------
 ! Name  Definition              Value          Derivative Info.                !
 --------------------------------------------------------------------------------
 ! R1    R(1,2)                  1.4599         -DE/DX =    0.0                 !
 ! R2    R(1,4)                  1.3594         -DE/DX =    0.0                 !
 ! R3    R(1,8)                  1.0919         -DE/DX =    0.0                 !
 ! R4    R(1,9)                  1.4267         -DE/DX =    0.0                 !
 ! R5    R(2,3)                  1.4314         -DE/DX =    0.0                 !
 ! R6    R(2,12)                 1.0837         -DE/DX =    0.0                 !
 ! R7    R(3,6)                  1.238          -DE/DX =    0.0                 !
 ! R8    R(3,10)                 1.109          -DE/DX =    0.0                 !
 ! R9    R(4,5)                  1.482          -DE/DX =    0.0                 !
 ! R10   R(5,7)                  0.9758         -DE/DX =    0.0                 !
 ! R11   R(9,11)                 0.9992         -DE/DX =    0.0                 !
 ! A1    A(2,1,4)              114.8388         -DE/DX =    0.0                 !
 ! A2    A(2,1,8)              113.6191         -DE/DX =    0.0                 !
 ! A3    A(2,1,9)              113.0551         -DE/DX =    0.0                 !
 ! A4    A(4,1,8)              118.2469         -DE/DX =    0.0                 !
 ! A5    A(4,1,9)               99.429          -DE/DX =    0.0                 !
 ! A6    A(8,1,9)               94.6101         -DE/DX =    0.0                 !
 ! A7    A(1,2,3)              117.1728         -DE/DX =    0.0                 !
 ! A8    A(1,2,12)             119.4163         -DE/DX =    0.0                 !
 ! A9    A(3,2,12)             122.9963         -DE/DX =    0.0                 !
 ! A10   A(2,3,6)              125.431          -DE/DX =    0.0                 !
 ! A11   A(2,3,10)             114.7632         -DE/DX =    0.0                 !
 ! A12   A(6,3,10)             119.8025         -DE/DX =    0.0                 !
 ! A13   A(1,4,5)              107.9617         -DE/DX =    0.0                 !
 ! A14   A(4,5,7)               98.7295         -DE/DX =    0.0                 !
 ! A15   A(1,9,11)              62.0389         -DE/DX =    0.0                 !
 ! D1    D(4,1,2,3)           -136.9731         -DE/DX =    0.0                 !
 ! D2    D(4,1,2,12)            35.8595         -DE/DX =    0.0                 !
 ! D3    D(8,1,2,3)              3.5259         -DE/DX =    0.0                 !
 ! D4    D(8,1,2,12)           176.3584         -DE/DX =    0.0                 !
 ! D5    D(9,1,2,3)            109.8729         -DE/DX =    0.0                 !
 ! D6    D(9,1,2,12)           -77.2946         -DE/DX =    0.0                 !
 ! D7    D(2,1,4,5)           -177.1392         -DE/DX =    0.0                 !
 ! D8    D(8,1,4,5)             44.2821         -DE/DX =    0.0                 !
 ! D9    D(9,1,4,5)            -56.1873         -DE/DX =    0.0                 !
 ! D10   D(2,1,9,11)            -3.4068         -DE/DX =    0.0                 !
 ! D11   D(4,1,9,11)          -125.6466         -DE/DX =    0.0                 !
 ! D12   D(8,1,9,11)           114.7033         -DE/DX =    0.0                 !
 ! D13   D(1,2,3,6)             -6.0496         -DE/DX =    0.0                 !
 ! D14   D(1,2,3,10)           174.6159         -DE/DX =    0.0                 !
 ! D15   D(12,2,3,6)          -178.6039         -DE/DX =    0.0                 !
 ! D16   D(12,2,3,10)            2.0616         -DE/DX =    0.0                 !
 ! D17   D(1,4,5,7)           -137.389          -DE/DX =    0.0                 !
 --------------------------------------------------------------------------------
 GradGradGradGradGradGradGradGradGradGradGradGradGradGradGradGradGradGrad


 ----------------------------------------------------------------------

 Electric dipole moment (input orientation):
 (Debye = 10**-18 statcoulomb cm , SI units = C m)
                  (au)            (Debye)         (10**-30 SI)
   Tot        0.158056D+01      0.401737D+01      0.134005D+02
   x         -0.960457D+00     -0.244124D+01     -0.814309D+01
   y          0.115074D+01      0.292490D+01      0.975642D+01
   z         -0.501465D+00     -0.127460D+01     -0.425160D+01

 Dipole polarizability, Alpha (input orientation).
 (esu units = cm**3 , SI units = C**2 m**2 J**-1)
 Alpha(0;0):
               (au)            (10**-24 esu)      (10**-40 SI)
   iso        0.660797D+02      0.979200D+01      0.108951D+02
   aniso      0.491742D+02      0.728686D+01      0.810773D+01
   xx         0.521586D+02      0.772910D+01      0.859978D+01
   yx        -0.335568D+01     -0.497260D+00     -0.553276D+00
   yy         0.851892D+02      0.126237D+02      0.140458D+02
   zx         0.180028D+01      0.266775D+00      0.296827D+00
   zy        -0.223291D+02     -0.330883D+01     -0.368157D+01
   zz         0.608913D+02      0.902316D+01      0.100396D+02

 ----------------------------------------------------------------------

 Dipole orientation:
     6          4.39015068         -0.13129746          1.83660614
     6          2.09598195          0.61430465          0.49792360
     6          2.08847577          0.33193678         -2.19215486
     8          3.99418024         -1.46284409          3.99740352
     8          6.48546993         -1.95104036          5.17980311
     8          3.92609811         -0.30065718         -3.49462113
     1          6.22390244         -3.71004985          5.66751143
     1          5.91890530         -0.72999482          0.58691362
     1          5.74853376          1.96462817          2.85200294
     1          0.25368520          0.75165573         -3.11374063
     1          4.20648812          2.32361499          1.82319314
     1          0.42956872          1.13282363          1.56957950

 Electric dipole moment (dipole orientation):
 (Debye = 10**-18 statcoulomb cm , SI units = C m)
                  (au)            (Debye)         (10**-30 SI)
   Tot        0.158056D+01      0.401737D+01      0.134005D+02
   x          0.000000D+00      0.000000D+00      0.000000D+00
   y          0.000000D+00      0.000000D+00      0.000000D+00
   z          0.158056D+01      0.401737D+01      0.134005D+02

 Dipole polarizability, Alpha (dipole orientation).
 (esu units = cm**3 , SI units = C**2 m**2 J**-1)
 Alpha(0;0):
               (au)            (10**-24 esu)      (10**-40 SI)
   iso        0.660797D+02      0.979200D+01      0.108951D+02
   aniso      0.491742D+02      0.728686D+01      0.810773D+01
   xx         0.650268D+02      0.963598D+01      0.107215D+02
   yx        -0.416863D+01     -0.617728D+00     -0.687315D+00
   yy         0.486867D+02      0.721463D+01      0.802735D+01
   zx         0.211992D+02      0.314139D+01      0.349527D+01
   zy        -0.416116D+01     -0.616620D+00     -0.686083D+00
   zz         0.845255D+02      0.125254D+02      0.139364D+02

 ----------------------------------------------------------------------
 1\1\GINC-BELL-A103\Freq\RB3LYP\6-31+G(d)\C3H6O3\ZHAO922\23-Dec-2020\0\
 \#N Geom=AllCheck Guess=TCheck SCRF=Check GenChk RB3LYP/6-31+G(d) Freq
 \\pp_13_2 TS\\0,1\C,1.1046743437,1.5293835614,-1.6694868825\C,0.528929
 5307,0.3700940761,-0.9942684845\C,1.4412920827,-0.5783641747,-0.431421
 253\O,0.4956942533,2.7125874961,-1.3919276731\O,1.1510160125,3.7652991
 985,-2.2034664457\O,2.6723841591,-0.5535212085,-0.5599399066\H,1.20720
 20199,4.4629704843,-1.5235366955\H,2.1951438073,1.5089443084,-1.720604
 2368\H,0.9229684511,1.4992139898,-3.0842798507\H,0.9642906956,-1.39225
 59472,0.1516040723\H,0.6027283692,0.7152469151,-2.5539904506\H,-0.5424
 64725,0.3228293007,-0.8381031933\\Version=ES64L-G16RevB.01\State=1-A\H
 F=-343.3406886\RMSD=8.092e-09\RMSF=3.119e-07\ZeroPoint=0.082909\Therma
 l=0.0900271\Dipole=-0.960457,1.1507449,-0.5014649\DipoleDeriv=0.224534
 5,0.0748319,-0.0913335,-0.0463722,1.4045544,0.1219655,0.1154964,0.3233
 095,1.2105452,-0.2546549,0.2025035,-0.1909338,0.3209717,-1.1609132,0.5
 005743,-0.3458759,0.3787763,-0.9738006,1.5140548,-0.9011646,0.5608605,
 -0.2916753,0.9841399,-0.6295495,0.0997842,-0.5793912,0.4621781,-0.2036
 274,0.4439894,0.048637,0.0311281,-0.0246948,-0.3277755,0.002628,-0.485
 7046,-0.2531573,-0.3022099,-0.2565389,0.0316766,0.1114465,-1.0256244,0
 .217104,-0.0777132,0.3764529,-0.1550739,-1.4246842,0.6516708,-0.389945
 6,0.0287167,-0.5395789,0.1048606,0.0839165,0.0544538,-0.4239925,0.3561
 344,-0.023449,0.0299514,-0.0194558,0.3802444,-0.0417646,0.0307988,0.02
 99274,0.1896202,0.080482,-0.0151657,-0.0025139,-0.0165772,0.1039002,-0
 .0213443,-0.0133441,-0.0862941,0.037515,0.0326175,-0.0992782,-0.003053
 5,0.0292261,-0.4273197,0.2599204,-0.0302676,0.2763207,-0.6772298,-0.05
 17931,-0.1290371,0.0977243,-0.1205599,-0.1431011,0.1707893,0.0911483,0
 .1699596,-0.0225152,0.0754915,0.0359144,-0.1062746,-0.0438609,0.333019
 8,-0.4444926,0.0220673,-0.5990455,0.4605808,-0.0463453,0.0157236,0.015
 205,0.0170123,0.1153733,0.0897123,0.0213614,0.1412354,0.1453301\Polar=
 52.1585579,-3.3556761,85.1891584,1.800285,-22.3290729,60.8913185\Quadr
 upole=-3.1437977,2.8296373,0.3141604,5.7907002,-1.4248121,2.9637132\PG
 =C01 [X(C3H6O3)]\NImag=1\\0.66660083,-0.02295525,0.46229559,-0.0519589
 0,-0.00483387,0.08315264,-0.12520773,-0.03306411,0.01872964,0.68959991
 ,-0.03911074,-0.13326557,0.02112026,-0.04861095,0.41674662,0.04754345,
 0.10771366,-0.11476487,-0.04382574,-0.21491547,0.20069233,0.02638731,0
 .00804009,-0.00159054,-0.16533695,0.05712076,-0.01607279,0.85746436,0.
 01176025,-0.03673887,0.02186509,0.08099872,-0.17600075,0.06931115,0.00
 406167,0.48602966,-0.00004728,0.01926295,-0.01342491,-0.04742969,0.073
 79137,-0.09463825,-0.06510377,-0.20028177,0.31982503,-0.16106609,0.064
 36244,0.02762947,0.01071969,-0.00990639,-0.00086033,-0.00496986,-0.002
 02670,0.00257950,0.21466847,0.11638065,-0.17628293,-0.02603288,0.00087
 496,-0.03580438,0.01485830,-0.00272652,0.00202204,-0.00040423,-0.06313
 324,0.37293584,0.04480022,-0.03833461,-0.04559466,-0.00555577,0.020797
 42,0.01188471,0.00001444,0.00441407,-0.00379709,-0.11664227,0.02814994
 ,0.16286001,0.01576816,-0.00066412,-0.00801526,0.00321935,0.00048471,-
 0.00017633,-0.00253085,0.00071176,-0.00288743,-0.06654169,-0.03621980,
 0.06345184,0.05508210,-0.01937754,-0.04731798,0.03277145,0.00814315,-0
 .01150663,-0.00419510,-0.01022776,0.00106225,-0.00717069,-0.03468904,-
 0.09854468,0.03779186,0.06671085,0.39495345,-0.01025450,0.00008492,0.0
 0111996,0.00071954,0.00333194,0.00702003,0.00229882,-0.00167524,0.0036
 1216,0.04815780,0.01575455,-0.08889212,-0.04316847,0.18561697,0.360094
 10,-0.00983973,-0.01433186,0.00589944,-0.06401364,0.04176343,-0.029943
 97,-0.61719587,-0.02809100,0.07082111,0.00138722,0.00050419,0.00228384
 ,0.00227073,0.00642334,-0.00238840,0.72590655,-0.00184246,-0.00273830,
 -0.00250803,0.03472817,0.01467632,0.00058542,-0.01624850,-0.09508680,0
 .02095569,0.00198770,0.00021007,-0.00070150,-0.00014904,0.00005604,0.0
 0003944,0.00363017,0.06867134,0.00015484,-0.00042745,-0.00204513,-0.01
 579213,-0.00062975,0.02147079,0.05962527,0.02087627,-0.08651347,-0.002
 90642,-0.00009906,0.00090284,0.00046515,0.00001544,-0.00030877,-0.0651
 3025,-0.02616090,0.05133312,-0.00218764,0.00054574,0.00220401,0.000606
 20,0.00028524,-0.00018337,0.00034377,-0.00038716,0.00012908,-0.0035996
 0,-0.02246551,-0.00853507,-0.00767488,-0.01464782,0.00484197,-0.000496
 56,-0.00005090,-0.00006349,0.01324204,-0.00349128,-0.00942988,0.000829
 98,0.00121174,0.00148427,-0.00016140,0.00036342,-0.00116768,0.00068169
 ,-0.00150542,-0.02402464,-0.01695709,-0.03219361,-0.24525218,-0.204289
 29,-0.00060994,0.00034075,-0.00014107,0.03610521,0.27660971,0.00440523
 ,0.00245924,-0.00480579,-0.00163156,0.00129541,0.00013645,0.00108921,0
 .00037936,0.00071910,0.00489596,0.03263810,0.01434741,-0.01002148,-0.2
 5551181,-0.27805666,-0.00057712,-0.00000657,-0.00003326,0.00190884,0.2
 1866420,0.26713810,-0.33354047,-0.00213489,0.01885758,-0.00808011,-0.0
 0202870,0.00342617,0.00037894,0.00015430,0.00010526,-0.00555542,0.0048
 8445,0.00374451,0.00139330,-0.00095308,-0.00044112,-0.00125346,0.00137
 833,-0.00073122,0.00019806,-0.00027405,-0.00019034,0.35067333,-0.00449
 493,-0.05230943,-0.00976637,-0.02064164,0.00048559,0.00119927,-0.00436
 287,0.00012755,0.00102086,0.03306243,-0.00910831,-0.00333271,-0.000635
 51,0.00438819,-0.00142936,0.00279330,0.00083677,-0.00188632,0.00060056
 ,0.00006757,-0.00010957,0.00088527,0.05503566,0.01651171,-0.00361137,-
 0.03275828,0.02015720,0.00450316,0.00316507,0.00353453,-0.00023347,0.0
 0046822,0.01603901,-0.00379947,0.00304156,-0.00241351,0.00011662,-0.00
 164141,-0.00188512,-0.00215942,-0.00031014,-0.00002971,-0.00024897,0.0
 0030494,-0.01720238,0.00653264,0.05498906,-0.03307367,-0.01073117,0.04
 291715,0.01341568,0.00751080,0.01395420,-0.00187064,0.00229997,0.00054
 078,0.00519308,-0.00345996,0.00328019,0.00000988,0.00136265,-0.0013650
 4,0.00209736,-0.00032185,0.00050741,-0.00014760,0.00029193,0.00004599,
 -0.00421537,0.00042967,-0.02278178,0.02859127,-0.01005565,-0.01926439,
 0.07977078,0.00898754,-0.00150804,0.03709308,-0.01469416,0.00997279,-0
 .00021798,0.01067328,-0.03899319,-0.03856930,0.00279571,0.00755914,-0.
 00294873,0.01006231,0.00073300,-0.00168543,0.00062466,0.00134427,-0.00
 035626,-0.00109582,0.00129588,-0.01024157,0.00141054,0.05715649,-0.012
 70429,-0.01669565,0.04793197,0.00782847,0.03859051,-0.00876852,0.01096
 732,-0.00942663,-0.00328776,0.01034135,-0.02110452,-0.02704256,-0.0014
 8945,-0.00180616,0.00029839,-0.00670544,-0.00037448,0.00074533,-0.0006
 4059,0.00022414,0.00085418,-0.00684162,0.00340152,-0.01155694,-0.01882
 639,-0.04120857,0.05223550,-0.00147976,0.00415576,-0.00211485,0.010351
 97,0.01080648,-0.00652214,-0.08245888,-0.05773462,0.03931087,0.0007928
 8,-0.00014451,-0.00080259,-0.00004954,0.00022511,0.00026674,-0.0357371
 1,-0.02952137,0.02464579,0.00002787,0.00017970,-0.00009434,-0.00061824
 ,0.00068141,-0.00022982,-0.00000131,-0.00033268,-0.00007004,0.10825811
 ,0.00262432,0.00081267,0.00570298,-0.00736515,-0.01144176,0.01567285,-
 0.05113819,-0.18617772,0.09147493,0.00049420,-0.00049271,0.00013577,0.
 00014540,0.00021721,-0.00044371,-0.01558909,0.01238086,0.00434701,-0.0
 0002998,0.00000295,0.00000455,-0.00052742,0.00083711,-0.00049025,-0.00
 105635,-0.00167916,0.00101181,0.07158713,0.18642354,-0.00330331,0.0039
 8220,0.00561922,0.00550023,0.01650775,0.00023527,0.03625976,0.09025097
 ,-0.12119344,0.00105025,-0.00092063,-0.00078400,0.00058252,0.00220847,
 -0.00054123,0.01583148,0.00533868,0.01270660,0.00010425,0.00001024,-0.
 00035003,-0.00011257,-0.00000551,0.00024998,-0.00075523,-0.00154901,0.
 00067595,-0.05470526,-0.11481848,0.10510638,-0.03650522,0.00640933,-0.
 05281072,-0.02134980,-0.00720329,-0.01216129,0.00025339,-0.00463143,-0
 .00363660,0.00890792,0.00474142,0.01410213,-0.00111328,-0.00280851,0.0
 0143330,-0.00198827,0.00281888,0.00092192,-0.00026005,-0.00000311,0.00
 014667,0.00037236,-0.00808280,-0.01266775,-0.00942802,-0.00799131,0.01
 824982,0.00033114,0.00044938,0.00018173,0.06069200,0.00059252,0.020011
 29,-0.12301336,-0.01945758,-0.02285888,-0.04921543,0.01095105,-0.00929
 386,0.01153918,0.00207058,0.00552571,0.00660632,-0.00206602,-0.0062584
 0,0.00640113,-0.00922047,0.00144805,0.00040159,-0.00052547,0.00009727,
 0.00068787,0.00036145,0.00209566,0.00703562,0.00224440,-0.01747834,0.0
 4817795,0.00098014,-0.00042702,-0.00036694,0.01376273,0.02703516,-0.04
 532065,-0.06379083,0.08286084,0.01564220,0.01344479,0.00477769,-0.0176
 1400,0.01163388,-0.00279592,0.01199736,-0.03937037,-0.02771592,0.00331
 554,0.00929596,-0.00244346,0.01315696,0.00019536,-0.00086128,0.0003943
 9,0.00149640,-0.00023398,0.00004898,0.00259623,-0.01564419,-0.01773576
 ,-0.02101151,-0.05209428,-0.00014286,-0.00161852,-0.00062167,0.0363577
 9,0.08855765,0.01544466,-0.00585598,0.00036804,0.00025297,-0.34392458,
 -0.01111135,0.04482215,-0.01046473,-0.00711576,0.00561816,0.00006340,0
 .00076386,-0.00014146,0.00016672,-0.00016135,-0.00010066,-0.00113723,0
 .00359088,-0.00169686,-0.00005163,-0.00007459,0.00002293,0.00024708,-0
 .00023489,0.00096762,-0.00057067,-0.00038443,-0.00010913,0.00058287,0.
 00040576,-0.00063385,0.00008781,0.00030667,-0.00009995,0.36085695,-0.0
 3002989,-0.00577219,0.00409398,-0.00580485,-0.04100679,0.02205366,0.01
 886101,0.00525138,-0.01065198,-0.00138983,0.00255718,-0.00000015,0.001
 07967,0.00064360,-0.00044261,0.00266562,-0.00152811,0.00538967,-0.0000
 5455,-0.00007242,-0.00014452,-0.00064985,-0.00375224,0.00259648,0.0000
 1936,0.00086153,-0.00078991,-0.00088254,-0.00045597,-0.00063773,0.0025
 3870,0.00010334,-0.00142905,0.01364715,0.04317069,0.01017348,-0.005809
 19,-0.00729100,0.04565760,0.02216261,-0.03121071,-0.01340826,-0.007113
 67,0.00102632,-0.00228169,0.00033029,0.00078983,0.00035690,0.00086699,
 -0.00026101,-0.00136252,0.00479632,0.00291335,-0.00013030,-0.00010883,
 -0.00002046,-0.00066325,0.00177933,-0.00030789,0.00021847,0.00092451,0
 .00000873,0.00045851,-0.00097893,-0.00110303,0.00988300,0.00318843,-0.
 00067250,-0.04890193,-0.02003784,0.03612836\\0.00000023,0.00000042,0.0
 0000002,-0.00000019,0.00000018,-0.00000036,-0.00000023,0.00000010,0.00
 000042,-0.00000016,-0.00000026,-0.00000026,0.00000027,-0.00000016,-0.0
 0000049,-0.00000027,0.00000007,0.00000087,-0.00000010,-0.00000013,-0.0
 0000023,0.00000006,-0.00000007,0.00000034,0.00000062,-0.00000025,-0.00
 000015,-0.00000049,0.00000017,0.00000028,0.00000045,-0.00000005,0.0000
 0004,-0.00000019,-0.00000003,-0.00000048\\\@


 I KNOW YOU BELIEVE YOU UNDERSTAND WHAT YOU THINK I SAID,
 BUT I AM NOT SURE YOU REALIZE THAT WHAT YOU HEARD IS NOT WHAT I MEANT.
 Job cpu time:       0 days  0 hours  3 minutes 52.0 seconds.
 Elapsed time:       0 days  0 hours  0 minutes 14.7 seconds.
 File lengths (MBytes):  RWF=     27 Int=      0 D2E=      0 Chk=      3 Scr=      1
 Normal termination of Gaussian 16 at Wed Dec 23 22:05:01 2020.
