 Entering Gaussian System, Link 0=g16
 Initial command:
 /apps/cent7/gaussian/g16-B.01/g16-haswell/g16/l1.exe "/scratch/bell/zhao922/YARP/paper-example/KHP-network/pp_0/TS-folder/Gau-5227.inp" -scrdir="/scratch/bell/zhao922/YARP/paper-example/KHP-network/pp_0/TS-folder/"
 Entering Link 1 = /apps/cent7/gaussian/g16-B.01/g16-haswell/g16/l1.exe PID=      5229.
  
 Copyright (c) 1988-2017, Gaussian, Inc.  All Rights Reserved.
  
 This is part of the Gaussian(R) 16 program.  It is based on
 the Gaussian(R) 09 system (copyright 2009, Gaussian, Inc.),
 the Gaussian(R) 03 system (copyright 2003, Gaussian, Inc.),
 the Gaussian(R) 98 system (copyright 1998, Gaussian, Inc.),
 the Gaussian(R) 94 system (copyright 1995, Gaussian, Inc.),
 the Gaussian 92(TM) system (copyright 1992, Gaussian, Inc.),
 the Gaussian 90(TM) system (copyright 1990, Gaussian, Inc.),
 the Gaussian 88(TM) system (copyright 1988, Gaussian, Inc.),
 the Gaussian 86(TM) system (copyright 1986, Carnegie Mellon
 University), and the Gaussian 82(TM) system (copyright 1983,
 Carnegie Mellon University). Gaussian is a federally registered
 trademark of Gaussian, Inc.
  
 This software contains proprietary and confidential information,
 including trade secrets, belonging to Gaussian, Inc.
  
 This software is provided under written license and may be
 used, copied, transmitted, or stored only in accord with that
 written license.
  
 The following legend is applicable only to US Government
 contracts under FAR:
  
                    RESTRICTED RIGHTS LEGEND
  
 Use, reproduction and disclosure by the US Government is
 subject to restrictions as set forth in subparagraphs (a)
 and (c) of the Commercial Computer Software - Restricted
 Rights clause in FAR 52.227-19.
  
 Gaussian, Inc.
 340 Quinnipiac St., Bldg. 40, Wallingford CT 06492
  
  
 ---------------------------------------------------------------
 Warning -- This program may not be used in any manner that
 competes with the business of Gaussian, Inc. or will provide
 assistance to any competitor of Gaussian, Inc.  The licensee
 of this program is prohibited from giving any competitor of
 Gaussian, Inc. access to this program.  By using this program,
 the user acknowledges that Gaussian, Inc. is engaged in the
 business of creating and licensing software in the field of
 computational chemistry and represents and warrants to the
 licensee that it is not a competitor of Gaussian, Inc. and that
 it will not use this program in any manner prohibited above.
 ---------------------------------------------------------------
  

 Cite this work as:
 Gaussian 16, Revision B.01,
 M. J. Frisch, G. W. Trucks, H. B. Schlegel, G. E. Scuseria, 
 M. A. Robb, J. R. Cheeseman, G. Scalmani, V. Barone, 
 G. A. Petersson, H. Nakatsuji, X. Li, M. Caricato, A. V. Marenich, 
 J. Bloino, B. G. Janesko, R. Gomperts, B. Mennucci, H. P. Hratchian, 
 J. V. Ortiz, A. F. Izmaylov, J. L. Sonnenberg, D. Williams-Young, 
 F. Ding, F. Lipparini, F. Egidi, J. Goings, B. Peng, A. Petrone, 
 T. Henderson, D. Ranasinghe, V. G. Zakrzewski, J. Gao, N. Rega, 
 G. Zheng, W. Liang, M. Hada, M. Ehara, K. Toyota, R. Fukuda, 
 J. Hasegawa, M. Ishida, T. Nakajima, Y. Honda, O. Kitao, H. Nakai, 
 T. Vreven, K. Throssell, J. A. Montgomery, Jr., J. E. Peralta, 
 F. Ogliaro, M. J. Bearpark, J. J. Heyd, E. N. Brothers, K. N. Kudin, 
 V. N. Staroverov, T. A. Keith, R. Kobayashi, J. Normand, 
 K. Raghavachari, A. P. Rendell, J. C. Burant, S. S. Iyengar, 
 J. Tomasi, M. Cossi, J. M. Millam, M. Klene, C. Adamo, R. Cammi, 
 J. W. Ochterski, R. L. Martin, K. Morokuma, O. Farkas, 
 J. B. Foresman, and D. J. Fox, Gaussian, Inc., Wallingford CT, 2016.
 
 ******************************************
 Gaussian 16:  ES64L-G16RevB.01 20-Dec-2017
                23-Dec-2020 
 ******************************************
 %NProcShared=16
 Will use up to   16 processors via shared memory.
 %Mem=6GB
 --------------------------------------------------------------
 # B3LYP/6-31+G* OPT=(TS, CALCALL, NOEIGEN, maxcycles=100) Freq
 --------------------------------------------------------------
 1/5=1,6=100,10=4,11=1,18=20,26=3,38=1/1,3;
 2/9=110,12=2,17=6,18=5,40=1/2;
 3/5=1,6=6,7=11,11=2,25=1,30=1,71=2,74=-5,140=1/1,2,3;
 4//1;
 5/5=2,38=5/2;
 8/6=4,10=90,11=11/1;
 11/6=1,8=1,9=11,15=111,16=1/1,2,10;
 10/6=1/2;
 6/7=2,8=2,9=2,10=2,18=1,28=1/1;
 7/10=1,25=1/1,2,3,16;
 1/5=1,6=100,10=4,11=1,18=20,26=3/3(3);
 2/9=110/2;
 7/8=1,9=1,25=1,44=-1/16;
 99//99;
 2/9=110/2;
 3/5=1,6=6,7=11,11=2,25=1,30=1,71=2,74=-5,140=1/1,2,3;
 4/5=5,16=3,69=1/1;
 5/5=2,38=5/2;
 8/6=4,10=90,11=11/1;
 11/6=1,8=1,9=11,15=111,16=1/1,2,10;
 10/6=1/2;
 7/10=1,25=1/1,2,3,16;
 1/5=1,6=100,10=4,11=1,18=20,26=3/3(-8);
 2/9=110/2;
 6/7=2,8=2,9=2,10=2,18=1,19=2,28=1/1;
 7/8=1,9=1,25=1,44=-1/16;
 99//99;
 ----------
 pp_14_0 TS
 ----------
 Symbolic Z-matrix:
 Charge =  0 Multiplicity = 1
 C                     0.96909   1.36038  -2.3404 
 C                     0.49096   0.494    -1.18738 
 C                     1.37908  -0.6816   -0.92481 
 O                     0.3018    2.32273  -2.74866 
 O                     1.02073   3.28144  -1.19281 
 O                     2.46044  -0.85401  -1.41583 
 H                     1.16266   4.18991  -1.46721 
 H                     2.1511    2.10253  -1.72961 
 H                     1.51525   0.77896  -3.11479 
 H                     0.94237  -1.42244  -0.22721 
 H                    -0.53625   0.16882  -1.36403 
 H                     0.47937   1.10765  -0.2807 
 
 Add virtual bond connecting atoms H8         and C1         Dist= 2.88D+00.
 Add virtual bond connecting atoms H8         and O5         Dist= 3.25D+00.

 GradGradGradGradGradGradGradGradGradGradGradGradGradGradGradGradGradGrad
 Berny optimization.
 Initialization pass.
                           ----------------------------
                           !    Initial Parameters    !
                           ! (Angstroms and Degrees)  !
 --------------------------                            --------------------------
 ! Name  Definition              Value          Derivative Info.                !
 --------------------------------------------------------------------------------
 ! R1    R(1,2)                  1.5194         calculate D2E/DX2 analytically  !
 ! R2    R(1,4)                  1.2402         calculate D2E/DX2 analytically  !
 ! R3    R(1,8)                  1.5235         calculate D2E/DX2 analytically  !
 ! R4    R(1,9)                  1.1118         calculate D2E/DX2 analytically  !
 ! R5    R(2,3)                  1.4966         calculate D2E/DX2 analytically  !
 ! R6    R(2,11)                 1.0918         calculate D2E/DX2 analytically  !
 ! R7    R(2,12)                 1.0949         calculate D2E/DX2 analytically  !
 ! R8    R(3,6)                  1.2001         calculate D2E/DX2 analytically  !
 ! R9    R(3,10)                 1.1073         calculate D2E/DX2 analytically  !
 ! R10   R(5,7)                  0.9596         calculate D2E/DX2 analytically  !
 ! R11   R(5,8)                  1.7192         calculate D2E/DX2 analytically  !
 ! A1    A(2,1,4)              121.5305         calculate D2E/DX2 analytically  !
 ! A2    A(2,1,8)              102.5728         calculate D2E/DX2 analytically  !
 ! A3    A(2,1,9)              112.6416         calculate D2E/DX2 analytically  !
 ! A4    A(4,1,8)               99.8705         calculate D2E/DX2 analytically  !
 ! A5    A(4,1,9)              116.1568         calculate D2E/DX2 analytically  !
 ! A6    A(8,1,9)               98.7932         calculate D2E/DX2 analytically  !
 ! A7    A(1,2,3)              113.2224         calculate D2E/DX2 analytically  !
 ! A8    A(1,2,11)             110.0656         calculate D2E/DX2 analytically  !
 ! A9    A(1,2,12)             108.1889         calculate D2E/DX2 analytically  !
 ! A10   A(3,2,11)             110.6556         calculate D2E/DX2 analytically  !
 ! A11   A(3,2,12)             107.533          calculate D2E/DX2 analytically  !
 ! A12   A(11,2,12)            106.915          calculate D2E/DX2 analytically  !
 ! A13   A(2,3,6)              125.1563         calculate D2E/DX2 analytically  !
 ! A14   A(2,3,10)             113.7051         calculate D2E/DX2 analytically  !
 ! A15   A(6,3,10)             121.1314         calculate D2E/DX2 analytically  !
 ! A16   A(7,5,8)              117.5598         calculate D2E/DX2 analytically  !
 ! A17   A(1,8,5)               87.0828         calculate D2E/DX2 analytically  !
 ! D1    D(4,1,2,3)            175.0651         calculate D2E/DX2 analytically  !
 ! D2    D(4,1,2,11)            50.6366         calculate D2E/DX2 analytically  !
 ! D3    D(4,1,2,12)           -65.8547         calculate D2E/DX2 analytically  !
 ! D4    D(8,1,2,3)            -74.8818         calculate D2E/DX2 analytically  !
 ! D5    D(8,1,2,11)           160.6897         calculate D2E/DX2 analytically  !
 ! D6    D(8,1,2,12)            44.1984         calculate D2E/DX2 analytically  !
 ! D7    D(9,1,2,3)             30.3505         calculate D2E/DX2 analytically  !
 ! D8    D(9,1,2,11)           -94.078          calculate D2E/DX2 analytically  !
 ! D9    D(9,1,2,12)           149.4307         calculate D2E/DX2 analytically  !
 ! D10   D(2,1,8,5)            -87.5446         calculate D2E/DX2 analytically  !
 ! D11   D(4,1,8,5)             38.093          calculate D2E/DX2 analytically  !
 ! D12   D(9,1,8,5)            156.7581         calculate D2E/DX2 analytically  !
 ! D13   D(1,2,3,6)             10.3327         calculate D2E/DX2 analytically  !
 ! D14   D(1,2,3,10)          -168.6943         calculate D2E/DX2 analytically  !
 ! D15   D(11,2,3,6)           134.4399         calculate D2E/DX2 analytically  !
 ! D16   D(11,2,3,10)          -44.5872         calculate D2E/DX2 analytically  !
 ! D17   D(12,2,3,6)          -109.1246         calculate D2E/DX2 analytically  !
 ! D18   D(12,2,3,10)           71.8484         calculate D2E/DX2 analytically  !
 ! D19   D(7,5,8,1)           -123.2044         calculate D2E/DX2 analytically  !
 --------------------------------------------------------------------------------
 Trust Radius=3.00D-01 FncErr=1.00D-07 GrdErr=1.00D-06 EigMax=2.50D+02 EigMin=1.00D-04
 Number of steps in this run=    100 maximum allowed number of steps=    100.
 Search for a saddle point of order  1.
 GradGradGradGradGradGradGradGradGradGradGradGradGradGradGradGradGradGrad

                          Input orientation:                          
 ---------------------------------------------------------------------
 Center     Atomic      Atomic             Coordinates (Angstroms)
 Number     Number       Type             X           Y           Z
 ---------------------------------------------------------------------
      1          6           0        0.969089    1.360377   -2.340396
      2          6           0        0.490956    0.493995   -1.187378
      3          6           0        1.379081   -0.681599   -0.924809
      4          8           0        0.301799    2.322732   -2.748658
      5          8           0        1.020733    3.281435   -1.192805
      6          8           0        2.460440   -0.854013   -1.415825
      7          1           0        1.162661    4.189908   -1.467211
      8          1           0        2.151096    2.102531   -1.729606
      9          1           0        1.515252    0.778964   -3.114793
     10          1           0        0.942374   -1.422443   -0.227213
     11          1           0       -0.536245    0.168821   -1.364029
     12          1           0        0.479373    1.107652   -0.280695
 ---------------------------------------------------------------------
                    Distance matrix (angstroms):
                    1          2          3          4          5
     1  C    0.000000
     2  C    1.519434   0.000000
     3  C    2.518262   1.496573   0.000000
     4  O    1.240194   2.411981   3.675999   0.000000
     5  O    2.238324   2.837343   3.988217   1.963837   0.000000
     6  O    2.825329   2.397536   1.200067   4.065450   4.384567
     7  H    2.967519   3.766864   4.906385   2.422713   0.959565
     8  H    1.523482   2.374334   2.999181   2.122935   1.719212
     9  H    1.111767   2.201208   2.635871   1.997434   3.193892
    10  H    3.494330   2.190532   1.107341   4.560083   4.802601
    11  H    2.153864   1.091827   2.141168   2.694225   3.484518
    12  H    2.132149   1.094890   2.103753   2.756591   2.418749
                    6          7          8          9         10
     6  O    0.000000
     7  H    5.208456   0.000000
     8  H    2.989198   2.324435   0.000000
     9  H    2.538993   3.804390   2.018631   0.000000
    10  H    2.010083   5.751922   4.017914   3.675935   0.000000
    11  H    3.166859   4.366471   3.330868   2.765156   2.451690
    12  H    3.010195   3.372685   2.425651   3.035324   2.572666
                   11         12
    11  H    0.000000
    12  H    1.756843   0.000000
 Stoichiometry    C3H6O3
 Framework group  C1[X(C3H6O3)]
 Deg. of freedom    30
 Full point group                 C1      NOp   1
 Largest Abelian subgroup         C1      NOp   1
 Largest concise Abelian subgroup C1      NOp   1
                         Standard orientation:                         
 ---------------------------------------------------------------------
 Center     Atomic      Atomic             Coordinates (Angstroms)
 Number     Number       Type             X           Y           Z
 ---------------------------------------------------------------------
      1          6           0        0.437227    0.597207   -0.258309
      2          6           0       -0.474391    0.048059    0.826158
      3          6           0       -1.872760   -0.197723    0.352995
      4          8           0        1.603150    0.941263   -0.012689
      5          8           0        2.015848   -0.977971   -0.066304
      6          8           0       -2.230897   -0.163648   -0.791880
      7          1           0        2.888186   -1.064003   -0.456676
      8          1           0        0.703303   -0.630126   -1.120780
      9          1           0       -0.108944    1.214227   -1.004639
     10          1           0       -2.589304   -0.406514    1.171025
     11          1           0       -0.471938    0.714854    1.690718
     12          1           0       -0.066572   -0.910848    1.162261
 ---------------------------------------------------------------------
 Rotational constants (GHZ):           7.4654026           1.8217778           1.7544017
 Standard basis: 6-31+G(d) (6D, 7F)
 There are   126 symmetry adapted cartesian basis functions of A   symmetry.
 There are   126 symmetry adapted basis functions of A   symmetry.
   126 basis functions,   216 primitive gaussians,   126 cartesian basis functions
    24 alpha electrons       24 beta electrons
       nuclear repulsion energy       234.4337836815 Hartrees.
 NAtoms=   12 NActive=   12 NUniq=   12 SFac= 1.00D+00 NAtFMM=   60 NAOKFM=F Big=F
 Integral buffers will be    131072 words long.
 Raffenetti 2 integral format.
 Two-electron integral symmetry is turned on.
 One-electron integrals computed using PRISM.
 NBasis=   126 RedAO= T EigKep=  8.40D-05  NBF=   126
 NBsUse=   126 1.00D-06 EigRej= -1.00D+00 NBFU=   126
 ExpMin= 4.38D-02 ExpMax= 5.48D+03 ExpMxC= 8.25D+02 IAcc=3 IRadAn=         5 AccDes= 0.00D+00
 Harris functional with IExCor=  402 and IRadAn=       5 diagonalized for initial guess.
 HarFok:  IExCor=  402 AccDes= 0.00D+00 IRadAn=         5 IDoV= 1 UseB2=F ITyADJ=14
 ICtDFT=  3500011 ScaDFX=  1.000000  1.000000  1.000000  1.000000
 FoFCou: FMM=F IPFlag=           0 FMFlag=      100000 FMFlg1=           0
         NFxFlg=           0 DoJE=T BraDBF=F KetDBF=T FulRan=T
         wScrn=  0.000000 ICntrl=       500 IOpCl=  0 I1Cent=   200000004 NGrid=           0
         NMat0=    1 NMatS0=      1 NMatT0=    0 NMatD0=    1 NMtDS0=    0 NMtDT0=    0
 Petite list used in FoFCou.
 Keep R1 ints in memory in canonical form, NReq=47237537.
 Requested convergence on RMS density matrix=1.00D-08 within 128 cycles.
 Requested convergence on MAX density matrix=1.00D-06.
 Requested convergence on             energy=1.00D-06.
 No special actions if energy rises.
 EnCoef did     5 forward-backward iterations
 EnCoef did     2 forward-backward iterations
 SCF Done:  E(RB3LYP) =  -343.379802332     A.U. after   17 cycles
            NFock= 17  Conv=0.25D-08     -V/T= 2.0086
 DoSCS=F DFT=T ScalE2(SS,OS)=  1.000000  1.000000
 Range of M.O.s used for correlation:     1   126
 NBasis=   126 NAE=    24 NBE=    24 NFC=     0 NFV=     0
 NROrb=    126 NOA=    24 NOB=    24 NVA=   102 NVB=   102

 **** Warning!!: The largest alpha MO coefficient is  0.36056694D+02


 **** Warning!!: The smallest alpha delta epsilon is  0.94195089D-01

 Symmetrizing basis deriv contribution to polar:
 IMax=3 JMax=2 DiffMx= 0.00D+00
 G2DrvN: will do    13 centers at a time, making    1 passes.
 Calling FoFCou, ICntrl=  3107 FMM=F I1Cent=   0 AccDes= 0.00D+00.
 End of G2Drv F.D. properties file   721 does not exist.
 End of G2Drv F.D. properties file   722 does not exist.
 End of G2Drv F.D. properties file   788 does not exist.
          IDoAtm=111111111111
          Differentiating once with respect to electric field.
                with respect to dipole field.
          Differentiating once with respect to nuclear coordinates.
 Keep R1 ints in memory in canonical form, NReq=47193559.
          There are    39 degrees of freedom in the 1st order CPHF.  IDoFFX=6 NUNeed=     3.
     36 vectors produced by pass  0 Test12= 6.28D-15 2.56D-09 XBig12= 1.01D+02 6.08D+00.
 AX will form    36 AO Fock derivatives at one time.
     36 vectors produced by pass  1 Test12= 6.28D-15 2.56D-09 XBig12= 4.36D+01 1.14D+00.
     36 vectors produced by pass  2 Test12= 6.28D-15 2.56D-09 XBig12= 3.59D-01 7.90D-02.
     36 vectors produced by pass  3 Test12= 6.28D-15 2.56D-09 XBig12= 1.33D-03 5.47D-03.
     36 vectors produced by pass  4 Test12= 6.28D-15 2.56D-09 XBig12= 2.63D-06 2.54D-04.
     27 vectors produced by pass  5 Test12= 6.28D-15 2.56D-09 XBig12= 2.78D-09 6.73D-06.
      4 vectors produced by pass  6 Test12= 6.28D-15 2.56D-09 XBig12= 2.82D-12 2.05D-07.
      3 vectors produced by pass  7 Test12= 6.28D-15 2.56D-09 XBig12= 2.86D-15 9.52D-09.
 InvSVY:  IOpt=1 It=  1 EMax= 5.33D-15
 Solved reduced A of dimension   214 with    39 vectors.
 Isotropic polarizability for W=    0.000000       58.44 Bohr**3.
 End of Minotr F.D. properties file   721 does not exist.
 End of Minotr F.D. properties file   722 does not exist.
 End of Minotr F.D. properties file   788 does not exist.

 **********************************************************************

            Population analysis using the SCF Density.

 **********************************************************************

 Orbital symmetries:
       Occupied  (A) (A) (A) (A) (A) (A) (A) (A) (A) (A) (A) (A)
                 (A) (A) (A) (A) (A) (A) (A) (A) (A) (A) (A) (A)
       Virtual   (A) (A) (A) (A) (A) (A) (A) (A) (A) (A) (A) (A)
                 (A) (A) (A) (A) (A) (A) (A) (A) (A) (A) (A) (A)
                 (A) (A) (A) (A) (A) (A) (A) (A) (A) (A) (A) (A)
                 (A) (A) (A) (A) (A) (A) (A) (A) (A) (A) (A) (A)
                 (A) (A) (A) (A) (A) (A) (A) (A) (A) (A) (A) (A)
                 (A) (A) (A) (A) (A) (A) (A) (A) (A) (A) (A) (A)
                 (A) (A) (A) (A) (A) (A) (A) (A) (A) (A) (A) (A)
                 (A) (A) (A) (A) (A) (A) (A) (A) (A) (A) (A) (A)
                 (A) (A) (A) (A) (A) (A)
 The electronic state is 1-A.
 Alpha  occ. eigenvalues --  -19.22255 -19.18645 -19.17936 -10.30120 -10.28505
 Alpha  occ. eigenvalues --  -10.21545  -1.09374  -1.08098  -0.97133  -0.79766
 Alpha  occ. eigenvalues --   -0.65032  -0.58339  -0.53412  -0.51444  -0.48269
 Alpha  occ. eigenvalues --   -0.46594  -0.45217  -0.43441  -0.41810  -0.39027
 Alpha  occ. eigenvalues --   -0.34886  -0.30642  -0.28078  -0.26020
 Alpha virt. eigenvalues --   -0.16600  -0.04693  -0.00641   0.00726   0.02638
 Alpha virt. eigenvalues --    0.03375   0.05211   0.06211   0.06494   0.07412
 Alpha virt. eigenvalues --    0.08742   0.09818   0.11574   0.12590   0.13632
 Alpha virt. eigenvalues --    0.17294   0.19516   0.19674   0.20315   0.21412
 Alpha virt. eigenvalues --    0.22180   0.23719   0.24470   0.25326   0.25897
 Alpha virt. eigenvalues --    0.26866   0.28192   0.29182   0.30133   0.31973
 Alpha virt. eigenvalues --    0.33084   0.35153   0.35604   0.37155   0.42410
 Alpha virt. eigenvalues --    0.46705   0.63449   0.65483   0.65699   0.70047
 Alpha virt. eigenvalues --    0.73033   0.74750   0.77698   0.80821   0.86144
 Alpha virt. eigenvalues --    0.92890   0.93073   0.97231   1.03753   1.05694
 Alpha virt. eigenvalues --    1.08233   1.09727   1.13657   1.15267   1.15949
 Alpha virt. eigenvalues --    1.20493   1.22062   1.24333   1.26172   1.28413
 Alpha virt. eigenvalues --    1.30072   1.31461   1.37727   1.42873   1.50573
 Alpha virt. eigenvalues --    1.52396   1.57533   1.58449   1.60782   1.67949
 Alpha virt. eigenvalues --    1.70035   1.72443   1.75396   1.76471   1.82612
 Alpha virt. eigenvalues --    1.84428   1.87050   1.88483   1.95297   2.03973
 Alpha virt. eigenvalues --    2.07142   2.11646   2.24400   2.28165   2.29005
 Alpha virt. eigenvalues --    2.35916   2.44513   2.50153   2.54248   2.58337
 Alpha virt. eigenvalues --    2.59965   2.70750   2.81536   2.96402   3.08268
 Alpha virt. eigenvalues --    3.08851   4.03329   4.12360   4.19547   4.29814
 Alpha virt. eigenvalues --    4.35742   4.55244
          Condensed to atoms (all electrons):
               1          2          3          4          5          6
     1  C    5.928311  -0.632152   0.061378   0.453873  -0.454195   0.064380
     2  C   -0.632152   7.146626  -0.158403  -0.235339   0.218555  -0.194524
     3  C    0.061378  -0.158403   5.059574   0.026983   0.007389   0.461459
     4  O    0.453873  -0.235339   0.026983   8.136780  -0.173138   0.002646
     5  O   -0.454195   0.218555   0.007389  -0.173138   8.985851  -0.000882
     6  O    0.064380  -0.194524   0.461459   0.002646  -0.000882   8.095153
     7  H    0.038092  -0.014290  -0.001355   0.017483   0.127249   0.000034
     8  H    0.337963  -0.098935   0.004201  -0.017351  -0.040523  -0.002771
     9  H    0.418924  -0.131655   0.021726  -0.054716   0.006346  -0.006518
    10  H    0.032911  -0.172930   0.410566  -0.000466   0.000200  -0.061864
    11  H    0.005080   0.335588  -0.034850   0.001345  -0.004730   0.002923
    12  H   -0.041004   0.371119  -0.020916  -0.003384   0.000885  -0.001513
               7          8          9         10         11         12
     1  C    0.038092   0.337963   0.418924   0.032911   0.005080  -0.041004
     2  C   -0.014290  -0.098935  -0.131655  -0.172930   0.335588   0.371119
     3  C   -0.001355   0.004201   0.021726   0.410566  -0.034850  -0.020916
     4  O    0.017483  -0.017351  -0.054716  -0.000466   0.001345  -0.003384
     5  O    0.127249  -0.040523   0.006346   0.000200  -0.004730   0.000885
     6  O    0.000034  -0.002771  -0.006518  -0.061864   0.002923  -0.001513
     7  H    0.351259   0.005541  -0.000247   0.000000   0.000017  -0.000040
     8  H    0.005541   0.549721  -0.003385  -0.000131   0.002183  -0.004791
     9  H   -0.000247  -0.003385   0.500050  -0.000277   0.000423   0.003168
    10  H    0.000000  -0.000131  -0.000277   0.628990   0.001498   0.001111
    11  H    0.000017   0.002183   0.000423   0.001498   0.472455  -0.021606
    12  H   -0.000040  -0.004791   0.003168   0.001111  -0.021606   0.436508
 Mulliken charges:
               1
     1  C   -0.213562
     2  C   -0.433661
     3  C    0.162249
     4  O   -0.154717
     5  O   -0.673007
     6  O   -0.358524
     7  H    0.476256
     8  H    0.268277
     9  H    0.246161
    10  H    0.160391
    11  H    0.239672
    12  H    0.280464
 Sum of Mulliken charges =  -0.00000
 Mulliken charges with hydrogens summed into heavy atoms:
               1
     1  C    0.300877
     2  C    0.086475
     3  C    0.322640
     4  O   -0.154717
     5  O   -0.196751
     6  O   -0.358524
 APT charges:
               1
     1  C    0.252619
     2  C   -0.193546
     3  C    0.796792
     4  O   -0.123225
     5  O   -0.433536
     6  O   -0.636934
     7  H    0.295414
     8  H    0.031675
     9  H    0.046773
    10  H   -0.097180
    11  H   -0.002194
    12  H    0.063341
 Sum of APT charges =  -0.00000
 APT charges with hydrogens summed into heavy atoms:
               1
     1  C    0.331067
     2  C   -0.132398
     3  C    0.699612
     4  O   -0.123225
     5  O   -0.138122
     6  O   -0.636934
 Electronic spatial extent (au):  <R**2>=            698.6796
 Charge=              0.0000 electrons
 Dipole moment (field-independent basis, Debye):
    X=             -0.0296    Y=              0.0908    Z=              1.0563  Tot=              1.0606
 Quadrupole moment (field-independent basis, Debye-Ang):
   XX=            -39.1783   YY=            -36.6621   ZZ=            -35.7982
   XY=             -2.3335   XZ=             -8.0934   YZ=              0.5135
 Traceless Quadrupole moment (field-independent basis, Debye-Ang):
   XX=             -1.9654   YY=              0.5508   ZZ=              1.4147
   XY=             -2.3335   XZ=             -8.0934   YZ=              0.5135
 Octapole moment (field-independent basis, Debye-Ang**2):
  XXX=             31.9208  YYY=              2.2701  ZZZ=             -0.3382  XYY=             -2.4794
  XXY=             -7.2947  XXZ=              3.5613  XZZ=              4.3806  YZZ=              0.6179
  YYZ=             -2.1898  XYZ=              4.3988
 Hexadecapole moment (field-independent basis, Debye-Ang**3):
 XXXX=           -565.0122 YYYY=           -133.5925 ZZZZ=           -121.9393 XXXY=            -30.2923
 XXXZ=            -46.3589 YYYX=              0.9887 YYYZ=              1.4362 ZZZX=             -1.8131
 ZZZY=              1.8415 XXYY=           -124.8910 XXZZ=           -126.5273 YYZZ=            -39.9009
 XXYZ=              7.0298 YYXZ=             -2.8496 ZZXY=             -2.2709
 N-N= 2.344337836815D+02 E-N=-1.273572953679D+03  KE= 3.404579122159D+02
  Exact polarizability:  70.580  -8.360  52.238   3.025  -0.224  52.489
 Approx polarizability: 104.539 -18.466  96.075  20.151  -1.795  84.314
 Calling FoFJK, ICntrl=    100127 FMM=F ISym2X=0 I1Cent= 0 IOpClX= 0 NMat=1 NMatS=1 NMatT=0.
 ***** Axes restored to original set *****
 -------------------------------------------------------------------
 Center     Atomic                   Forces (Hartrees/Bohr)
 Number     Number              X              Y              Z
 -------------------------------------------------------------------
      1        6           0.044155682   -0.051559167    0.006721759
      2        6           0.002763662    0.008947127   -0.001596060
      3        6          -0.022663497   -0.002949747    0.008296292
      4        8          -0.030644689    0.031841509   -0.006939513
      5        8           0.009369797   -0.006026241    0.002313056
      6        8           0.022664022   -0.003776105   -0.008657161
      7        1           0.007861426    0.021664821   -0.000910137
      8        1          -0.033816289   -0.003282703   -0.006686907
      9        1           0.008190385    0.010821496   -0.000333223
     10        1           0.001570129   -0.003693014    0.003488275
     11        1          -0.005024237   -0.002677238    0.001035748
     12        1          -0.004426390    0.000689261    0.003267872
 -------------------------------------------------------------------
 Cartesian Forces:  Max     0.051559167 RMS     0.016729829
 FormGI is forming the generalized inverse of G from B-inverse, IUseBI=4.

 GradGradGradGradGradGradGradGradGradGradGradGradGradGradGradGradGradGrad
 Berny optimization.
 Internal  Forces:  Max     0.075887649 RMS     0.014622529
 Search for a saddle point.
 Step number   1 out of a maximum of  100
 All quantities printed in internal units (Hartrees-Bohrs-Radians)
 Swapping is turned off.
 Second derivative matrix not updated -- analytic derivatives used.
 ITU=  0
     Eigenvalues ---   -0.85009  -0.00096   0.00089   0.00221   0.00397
     Eigenvalues ---    0.01616   0.03001   0.03276   0.04186   0.04505
     Eigenvalues ---    0.05230   0.06965   0.07835   0.10116   0.10597
     Eigenvalues ---    0.12245   0.14372   0.16630   0.20696   0.23152
     Eigenvalues ---    0.28705   0.29836   0.31160   0.32357   0.32884
     Eigenvalues ---    0.34527   0.35020   0.55994   0.77650   0.94681
 Eigenvectors required to have negative eigenvalues:
                          A17       R3        R11       A4        R2
   1                   -0.60806  -0.44479   0.35064  -0.25601   0.20340
                          A2        D11       D12       D6        D4
   1                    0.20053  -0.17501  -0.14481  -0.12254  -0.12169
 RFO step:  Lambda0=1.184012520D-03 Lambda=-4.13714124D-02.
 Linear search not attempted -- option 19 set.
 Maximum step size (   0.300) exceeded in Quadratic search.
    -- Step size scaled by   0.418
 Iteration  1 RMS(Cart)=  0.13113446 RMS(Int)=  0.01048125
 Iteration  2 RMS(Cart)=  0.01470566 RMS(Int)=  0.00012806
 Iteration  3 RMS(Cart)=  0.00003233 RMS(Int)=  0.00012480
 Iteration  4 RMS(Cart)=  0.00000001 RMS(Int)=  0.00012480
 Variable       Old X    -DE/DX   Delta X   Delta X   Delta X     New X
                                 (Linear)    (Quad)   (Total)
    R1        2.87131   0.00801   0.00000   0.00912   0.00912   2.88044
    R2        2.34363   0.04348   0.00000   0.03205   0.03205   2.37568
    R3        2.87896  -0.00897   0.00000  -0.23959  -0.23959   2.63938
    R4        2.10094  -0.00140   0.00000  -0.00073  -0.00073   2.10020
    R5        2.82811   0.00966   0.00000   0.00725   0.00725   2.83537
    R6        2.06325   0.00536   0.00000   0.00422   0.00422   2.06747
    R7        2.06904   0.00314   0.00000   0.00561   0.00561   2.07465
    R8        2.26780   0.02451   0.00000   0.01100   0.01100   2.27880
    R9        2.09257   0.00405   0.00000   0.00263   0.00263   2.09520
   R10        1.81332   0.02193   0.00000   0.01546   0.01546   1.82878
   R11        3.24884  -0.00017   0.00000  -0.07998  -0.07998   3.16886
    A1        2.12111  -0.01117   0.00000  -0.02818  -0.02817   2.09294
    A2        1.79023   0.00945   0.00000   0.03293   0.03302   1.82325
    A3        1.96597   0.00886   0.00000   0.02547   0.02564   1.99161
    A4        1.74307   0.00257   0.00000   0.00718   0.00754   1.75061
    A5        2.02732   0.00247   0.00000   0.00109   0.00109   2.02841
    A6        1.72427  -0.01276   0.00000  -0.03932  -0.03960   1.68467
    A7        1.97610   0.00455   0.00000   0.00270   0.00269   1.97879
    A8        1.92101  -0.00017   0.00000   0.00305   0.00303   1.92404
    A9        1.88825   0.00043   0.00000  -0.00494  -0.00494   1.88331
   A10        1.93131  -0.00303   0.00000   0.00374   0.00372   1.93503
   A11        1.87681  -0.00076   0.00000  -0.00413  -0.00413   1.87268
   A12        1.86602  -0.00128   0.00000  -0.00106  -0.00106   1.86496
   A13        2.18439  -0.00068   0.00000  -0.00995  -0.00998   2.17441
   A14        1.98453   0.00357   0.00000   0.01533   0.01530   1.99983
   A15        2.11414  -0.00286   0.00000  -0.00517  -0.00520   2.10894
   A16        2.05180  -0.00153   0.00000   0.04522   0.04522   2.09703
   A17        1.51988   0.07589   0.00000   0.12787   0.12787   1.64776
    D1        3.05546  -0.00173   0.00000   0.10574   0.10586  -3.12187
    D2        0.88378  -0.00098   0.00000   0.09648   0.09659   0.98036
    D3       -1.14938   0.00040   0.00000   0.09891   0.09902  -1.05036
    D4       -1.30693   0.00329   0.00000   0.12598   0.12577  -1.18117
    D5        2.80457   0.00405   0.00000   0.11672   0.11650   2.92106
    D6        0.77141   0.00543   0.00000   0.11915   0.11893   0.89034
    D7        0.52972  -0.00350   0.00000   0.10630   0.10641   0.63613
    D8       -1.64197  -0.00275   0.00000   0.09704   0.09714  -1.54483
    D9        2.60806  -0.00137   0.00000   0.09947   0.09958   2.70763
   D10       -1.52794  -0.00352   0.00000  -0.02971  -0.03013  -1.55807
   D11        0.66485  -0.01115   0.00000  -0.04527  -0.04514   0.61971
   D12        2.73595  -0.01146   0.00000  -0.05329  -0.05302   2.68293
   D13        0.18034   0.00138   0.00000   0.09398   0.09397   0.27431
   D14       -2.94427  -0.00036   0.00000   0.07910   0.07910  -2.86517
   D15        2.34642   0.00221   0.00000   0.10291   0.10291   2.44933
   D16       -0.77819   0.00047   0.00000   0.08804   0.08804  -0.69015
   D17       -1.90458  -0.00139   0.00000   0.10127   0.10126  -1.80332
   D18        1.25399  -0.00313   0.00000   0.08639   0.08639   1.34038
   D19       -2.15032  -0.01139   0.00000  -0.06937  -0.06937  -2.21969
         Item               Value     Threshold  Converged?
 Maximum Force            0.075888     0.000450     NO 
 RMS     Force            0.014623     0.000300     NO 
 Maximum Displacement     0.402066     0.001800     NO 
 RMS     Displacement     0.130324     0.001200     NO 
 Predicted change in Energy=-1.617480D-02
 GradGradGradGradGradGradGradGradGradGradGradGradGradGradGradGradGradGrad

                          Input orientation:                          
 ---------------------------------------------------------------------
 Center     Atomic      Atomic             Coordinates (Angstroms)
 Number     Number       Type             X           Y           Z
 ---------------------------------------------------------------------
      1          6           0        0.917947    1.357127   -2.344498
      2          6           0        0.447611    0.458769   -1.206470
      3          6           0        1.409003   -0.647398   -0.884982
      4          8           0        0.215563    2.336865   -2.701165
      5          8           0        1.138751    3.299091   -1.203063
      6          8           0        2.557809   -0.683433   -1.249837
      7          1           0        1.375425    4.211132   -1.423750
      8          1           0        2.030798    2.023142   -1.826085
      9          1           0        1.458014    0.819706   -3.153616
     10          1           0        0.982674   -1.464352   -0.268444
     11          1           0       -0.546948    0.059225   -1.425983
     12          1           0        0.349961    1.078487   -0.305524
 ---------------------------------------------------------------------
                    Distance matrix (angstroms):
                    1          2          3          4          5
     1  C    0.000000
     2  C    1.524261   0.000000
     3  C    2.527735   1.500412   0.000000
     4  O    1.257157   2.411474   3.691700   0.000000
     5  O    2.263372   2.923203   3.968499   2.005609   0.000000
     6  O    2.837484   2.399884   1.205890   4.088358   4.228050
     7  H    3.033546   3.871470   4.888426   2.547537   0.967748
     8  H    1.396698   2.310340   2.898980   2.039428   1.676887
     9  H    1.111380   2.223189   2.702128   2.012504   3.170795
    10  H    3.503560   2.205579   1.108733   4.577756   4.856775
    11  H    2.161976   1.094060   2.148893   2.719405   3.658963
    12  H    2.134868   1.097857   2.106186   2.709368   2.521676
                    6          7          8          9         10
     6  O    0.000000
     7  H    5.038357   0.000000
     8  H    2.816975   2.319200   0.000000
     9  H    2.663334   3.808021   1.881138   0.000000
    10  H    2.013459   5.805178   3.960735   3.710403   0.000000
    11  H    3.197199   4.575353   3.265245   2.753710   2.449678
    12  H    2.978368   3.480728   2.455543   3.066982   2.620635
                   11         12
    11  H    0.000000
    12  H    1.760332   0.000000
 Stoichiometry    C3H6O3
 Framework group  C1[X(C3H6O3)]
 Deg. of freedom    30
 Full point group                 C1      NOp   1
 Largest Abelian subgroup         C1      NOp   1
 Largest concise Abelian subgroup C1      NOp   1
                         Standard orientation:                         
 ---------------------------------------------------------------------
 Center     Atomic      Atomic             Coordinates (Angstroms)
 Number     Number       Type             X           Y           Z
 ---------------------------------------------------------------------
      1          6           0        0.454508    0.459417   -0.503473
      2          6           0       -0.512665    0.553953    0.670840
      3          6           0       -1.883203    0.030191    0.356941
      4          8           0        1.643660    0.844456   -0.368910
      5          8           0        1.951577   -0.991074    0.378407
      6          8           0       -2.150167   -0.662595   -0.593295
      7          1           0        2.788827   -1.383768    0.093206
      8          1           0        0.654417   -0.911414   -0.681301
      9          1           0       -0.013686    0.648242   -1.493576
     10          1           0       -2.668758    0.331833    1.078886
     11          1           0       -0.563411    1.583520    1.037427
     12          1           0       -0.109788   -0.056075    1.489891
 ---------------------------------------------------------------------
 Rotational constants (GHZ):           6.9040594           1.8760775           1.7521310
 Standard basis: 6-31+G(d) (6D, 7F)
 There are   126 symmetry adapted cartesian basis functions of A   symmetry.
 There are   126 symmetry adapted basis functions of A   symmetry.
   126 basis functions,   216 primitive gaussians,   126 cartesian basis functions
    24 alpha electrons       24 beta electrons
       nuclear repulsion energy       233.4572268606 Hartrees.
 NAtoms=   12 NActive=   12 NUniq=   12 SFac= 1.00D+00 NAtFMM=   60 NAOKFM=F Big=F
 Integral buffers will be    131072 words long.
 Raffenetti 2 integral format.
 Two-electron integral symmetry is turned on.
 One-electron integrals computed using PRISM.
 NBasis=   126 RedAO= T EigKep=  8.64D-05  NBF=   126
 NBsUse=   126 1.00D-06 EigRej= -1.00D+00 NBFU=   126
 Initial guess from the checkpoint file:  "/scratch/bell/zhao922/YARP/paper-example/KHP-network/pp_0/TS-folder/Gau-5229.chk"
 B after Tr=     0.000000    0.000000    0.000000
         Rot=    0.967351    0.253270    0.008092    0.004578 Ang=  29.36 deg.
 ExpMin= 4.38D-02 ExpMax= 5.48D+03 ExpMxC= 8.25D+02 IAcc=3 IRadAn=         5 AccDes= 0.00D+00
 Harris functional with IExCor=  402 and IRadAn=       5 diagonalized for initial guess.
 HarFok:  IExCor=  402 AccDes= 0.00D+00 IRadAn=         5 IDoV= 1 UseB2=F ITyADJ=14
 ICtDFT=  3500011 ScaDFX=  1.000000  1.000000  1.000000  1.000000
 FoFCou: FMM=F IPFlag=           0 FMFlag=      100000 FMFlg1=           0
         NFxFlg=           0 DoJE=T BraDBF=F KetDBF=T FulRan=T
         wScrn=  0.000000 ICntrl=       500 IOpCl=  0 I1Cent=   200000004 NGrid=           0
         NMat0=    1 NMatS0=      1 NMatT0=    0 NMatD0=    1 NMtDS0=    0 NMtDT0=    0
 Petite list used in FoFCou.
 Keep R1 ints in memory in canonical form, NReq=47237537.
 Requested convergence on RMS density matrix=1.00D-08 within 128 cycles.
 Requested convergence on MAX density matrix=1.00D-06.
 Requested convergence on             energy=1.00D-06.
 No special actions if energy rises.
 SCF Done:  E(RB3LYP) =  -343.395707484     A.U. after   15 cycles
            NFock= 15  Conv=0.70D-08     -V/T= 2.0089
 DoSCS=F DFT=T ScalE2(SS,OS)=  1.000000  1.000000
 Range of M.O.s used for correlation:     1   126
 NBasis=   126 NAE=    24 NBE=    24 NFC=     0 NFV=     0
 NROrb=    126 NOA=    24 NOB=    24 NVA=   102 NVB=   102

 **** Warning!!: The largest alpha MO coefficient is  0.33366579D+02


 **** Warning!!: The smallest alpha delta epsilon is  0.99170917D-01

 Symmetrizing basis deriv contribution to polar:
 IMax=3 JMax=2 DiffMx= 0.00D+00
 G2DrvN: will do    13 centers at a time, making    1 passes.
 Calling FoFCou, ICntrl=  3107 FMM=F I1Cent=   0 AccDes= 0.00D+00.
 End of G2Drv F.D. properties file   721 does not exist.
 End of G2Drv F.D. properties file   722 does not exist.
 End of G2Drv F.D. properties file   788 does not exist.
          IDoAtm=111111111111
          Differentiating once with respect to electric field.
                with respect to dipole field.
          Differentiating once with respect to nuclear coordinates.
 Keep R1 ints in memory in canonical form, NReq=47193559.
          There are    39 degrees of freedom in the 1st order CPHF.  IDoFFX=6 NUNeed=     3.
     36 vectors produced by pass  0 Test12= 6.28D-15 2.56D-09 XBig12= 1.01D+02 6.47D+00.
 AX will form    36 AO Fock derivatives at one time.
     36 vectors produced by pass  1 Test12= 6.28D-15 2.56D-09 XBig12= 4.60D+01 1.19D+00.
     36 vectors produced by pass  2 Test12= 6.28D-15 2.56D-09 XBig12= 3.36D-01 8.59D-02.
     36 vectors produced by pass  3 Test12= 6.28D-15 2.56D-09 XBig12= 1.00D-03 4.75D-03.
     36 vectors produced by pass  4 Test12= 6.28D-15 2.56D-09 XBig12= 2.01D-06 1.65D-04.
     27 vectors produced by pass  5 Test12= 6.28D-15 2.56D-09 XBig12= 2.31D-09 6.71D-06.
      3 vectors produced by pass  6 Test12= 6.28D-15 2.56D-09 XBig12= 2.08D-12 1.91D-07.
      3 vectors produced by pass  7 Test12= 6.28D-15 2.56D-09 XBig12= 1.99D-15 6.87D-09.
 InvSVY:  IOpt=1 It=  1 EMax= 3.55D-15
 Solved reduced A of dimension   213 with    39 vectors.
 Isotropic polarizability for W=    0.000000       58.98 Bohr**3.
 End of Minotr F.D. properties file   721 does not exist.
 End of Minotr F.D. properties file   722 does not exist.
 End of Minotr F.D. properties file   788 does not exist.
 Calling FoFJK, ICntrl=    100127 FMM=F ISym2X=0 I1Cent= 0 IOpClX= 0 NMat=1 NMatS=1 NMatT=0.
 ***** Axes restored to original set *****
 -------------------------------------------------------------------
 Center     Atomic                   Forces (Hartrees/Bohr)
 Number     Number              X              Y              Z
 -------------------------------------------------------------------
      1        6           0.033117042   -0.035192170    0.003306085
      2        6           0.001963614    0.006240697   -0.000909568
      3        6          -0.014360116   -0.003701832    0.003375279
      4        8          -0.019345590    0.020807248   -0.001672290
      5        8           0.008004452   -0.004044276   -0.004031926
      6        8           0.014348624   -0.000372441   -0.003645256
      7        1           0.006588322    0.013212968    0.001695161
      8        1          -0.029694897   -0.000101386   -0.001612961
      9        1           0.004511329    0.007526786   -0.001116318
     10        1           0.001271281   -0.002296836    0.002223844
     11        1          -0.002960488   -0.002214541    0.000678485
     12        1          -0.003443573    0.000135783    0.001709465
 -------------------------------------------------------------------
 Cartesian Forces:  Max     0.035192170 RMS     0.011751307
 FormGI is forming the generalized inverse of G from B-inverse, IUseBI=4.

 GradGradGradGradGradGradGradGradGradGradGradGradGradGradGradGradGradGrad
 Berny optimization.
 Internal  Forces:  Max     0.052347995 RMS     0.009875482
 Search for a saddle point.
 Step number   2 out of a maximum of  100
 All quantities printed in internal units (Hartrees-Bohrs-Radians)
 Swapping is turned off.
 Second derivative matrix not updated -- analytic derivatives used.
 ITU=  0  0
     Eigenvalues ---   -0.71886  -0.00025   0.00114   0.00243   0.00696
     Eigenvalues ---    0.02438   0.03081   0.03783   0.04172   0.05028
     Eigenvalues ---    0.05252   0.06993   0.08199   0.09877   0.10067
     Eigenvalues ---    0.11669   0.14023   0.16494   0.19874   0.22916
     Eigenvalues ---    0.26249   0.28255   0.30414   0.30956   0.31625
     Eigenvalues ---    0.33620   0.34521   0.52856   0.70959   0.91189
 Eigenvectors required to have negative eigenvalues:
                          A17       R3        R11       A4        R2
   1                   -0.60474  -0.44848   0.34590  -0.26667   0.21389
                          A2        D11       A16       D12       D4
   1                    0.20699  -0.14425   0.13270  -0.12731  -0.12436
 RFO step:  Lambda0=5.841653053D-04 Lambda=-2.59203739D-02.
 Linear search not attempted -- option 19 set.
 Maximum step size (   0.300) exceeded in Quadratic search.
    -- Step size scaled by   0.597
 Iteration  1 RMS(Cart)=  0.14429752 RMS(Int)=  0.00964671
 Iteration  2 RMS(Cart)=  0.01323323 RMS(Int)=  0.00010843
 Iteration  3 RMS(Cart)=  0.00004154 RMS(Int)=  0.00010312
 Iteration  4 RMS(Cart)=  0.00000000 RMS(Int)=  0.00010312
 Variable       Old X    -DE/DX   Delta X   Delta X   Delta X     New X
                                 (Linear)    (Quad)   (Total)
    R1        2.88044   0.00485   0.00000   0.00829   0.00829   2.88873
    R2        2.37568   0.02750   0.00000   0.03618   0.03618   2.41187
    R3        2.63938  -0.00918   0.00000  -0.17857  -0.17857   2.46080
    R4        2.10020  -0.00063   0.00000  -0.00284  -0.00284   2.09736
    R5        2.83537   0.00592   0.00000   0.00844   0.00844   2.84381
    R6        2.06747   0.00336   0.00000   0.00455   0.00455   2.07202
    R7        2.07465   0.00179   0.00000   0.00405   0.00405   2.07870
    R8        2.27880   0.01478   0.00000   0.00970   0.00970   2.28850
    R9        2.09520   0.00244   0.00000   0.00189   0.00189   2.09709
   R10        1.82878   0.01368   0.00000   0.01697   0.01697   1.84575
   R11        3.16886  -0.00165   0.00000  -0.11892  -0.11892   3.04994
    A1        2.09294  -0.00697   0.00000  -0.02092  -0.02076   2.07218
    A2        1.82325   0.00658   0.00000   0.02661   0.02646   1.84971
    A3        1.99161   0.00575   0.00000   0.02309   0.02299   2.01460
    A4        1.75061   0.00080   0.00000  -0.02623  -0.02613   1.72448
    A5        2.02841   0.00156   0.00000   0.00212   0.00209   2.03049
    A6        1.68467  -0.00798   0.00000  -0.00598  -0.00648   1.67819
    A7        1.97879   0.00211   0.00000  -0.00733  -0.00733   1.97146
    A8        1.92404   0.00033   0.00000   0.01074   0.01074   1.93477
    A9        1.88331   0.00051   0.00000  -0.00066  -0.00069   1.88262
   A10        1.93503  -0.00183   0.00000   0.00052   0.00053   1.93556
   A11        1.87268  -0.00018   0.00000  -0.00262  -0.00264   1.87004
   A12        1.86496  -0.00107   0.00000  -0.00077  -0.00078   1.86418
   A13        2.17441  -0.00097   0.00000  -0.01243  -0.01245   2.16196
   A14        1.99983   0.00275   0.00000   0.01818   0.01816   2.01799
   A15        2.10894  -0.00179   0.00000  -0.00572  -0.00574   2.10320
   A16        2.09703   0.00065   0.00000   0.12545   0.12545   2.22248
   A17        1.64776   0.05235   0.00000   0.14422   0.14422   1.79198
    D1       -3.12187  -0.00055   0.00000   0.14883   0.14884  -2.97303
    D2        0.98036   0.00003   0.00000   0.14523   0.14525   1.12562
    D3       -1.05036   0.00084   0.00000   0.14070   0.14071  -0.90964
    D4       -1.18117   0.00169   0.00000   0.12448   0.12431  -1.05686
    D5        2.92106   0.00227   0.00000   0.12087   0.12072   3.04179
    D6        0.89034   0.00308   0.00000   0.11634   0.11618   1.00653
    D7        0.63613  -0.00191   0.00000   0.14029   0.14043   0.77655
    D8       -1.54483  -0.00133   0.00000   0.13669   0.13684  -1.40799
    D9        2.70763  -0.00053   0.00000   0.13216   0.13230   2.83994
   D10       -1.55807  -0.00425   0.00000  -0.08632  -0.08626  -1.64433
   D11        0.61971  -0.00898   0.00000  -0.11039  -0.11055   0.50917
   D12        2.68293  -0.00931   0.00000  -0.11574  -0.11564   2.56729
   D13        0.27431   0.00088   0.00000   0.07729   0.07730   0.35161
   D14       -2.86517  -0.00031   0.00000   0.06582   0.06582  -2.79935
   D15        2.44933   0.00149   0.00000   0.08639   0.08639   2.53573
   D16       -0.69015   0.00030   0.00000   0.07491   0.07492  -0.61523
   D17       -1.80332  -0.00088   0.00000   0.08423   0.08422  -1.71910
   D18        1.34038  -0.00207   0.00000   0.07275   0.07274   1.41312
   D19       -2.21969  -0.00918   0.00000  -0.11725  -0.11725  -2.33695
         Item               Value     Threshold  Converged?
 Maximum Force            0.052348     0.000450     NO 
 RMS     Force            0.009875     0.000300     NO 
 Maximum Displacement     0.451278     0.001800     NO 
 RMS     Displacement     0.144098     0.001200     NO 
 Predicted change in Energy=-1.257080D-02
 GradGradGradGradGradGradGradGradGradGradGradGradGradGradGradGradGradGrad

                          Input orientation:                          
 ---------------------------------------------------------------------
 Center     Atomic      Atomic             Coordinates (Angstroms)
 Number     Number       Type             X           Y           Z
 ---------------------------------------------------------------------
      1          6           0        0.859564    1.349286   -2.339789
      2          6           0        0.395163    0.408543   -1.227989
      3          6           0        1.436357   -0.609054   -0.847108
      4          8           0        0.143428    2.367740   -2.620598
      5          8           0        1.281145    3.325173   -1.271676
      6          8           0        2.617810   -0.486747   -1.083307
      7          1           0        1.614231    4.235330   -1.392779
      8          1           0        1.907956    1.965181   -1.873663
      9          1           0        1.377234    0.861310   -3.191683
     10          1           0        1.058617   -1.505101   -0.312389
     11          1           0       -0.548463   -0.079847   -1.498706
     12          1           0        0.193567    1.016545   -0.333731
 ---------------------------------------------------------------------
                    Distance matrix (angstroms):
                    1          2          3          4          5
     1  C    0.000000
     2  C    1.528649   0.000000
     3  C    2.529009   1.504879   0.000000
     4  O    1.276304   2.416854   3.698410   0.000000
     5  O    2.285328   3.048542   3.960113   2.007653   0.000000
     6  O    2.835699   2.400549   1.211024   4.078470   4.043870
     7  H    3.129792   4.019650   4.878264   2.675574   0.976728
     8  H    1.302201   2.264633   2.811212   1.957939   1.613957
     9  H    1.109876   2.241775   2.768122   2.029222   3.125104
    10  H    3.506779   2.222729   1.109735   4.600467   4.929635
    11  H    2.175405   1.096468   2.155030   2.779935   3.872102
    12  H    2.139752   1.100002   2.109658   2.656690   2.718884
                    6          7          8          9         10
     6  O    0.000000
     7  H    4.837453   0.000000
     8  H    2.672172   2.339038   0.000000
     9  H    2.793123   3.830957   1.799271   0.000000
    10  H    2.015550   5.867580   3.898950   3.740555   0.000000
    11  H    3.219225   4.827963   3.218188   2.731347   2.453855
    12  H    2.949356   3.674296   2.492073   3.097265   2.665982
                   11         12
    11  H    0.000000
    12  H    1.763477   0.000000
 Stoichiometry    C3H6O3
 Framework group  C1[X(C3H6O3)]
 Deg. of freedom    30
 Full point group                 C1      NOp   1
 Largest Abelian subgroup         C1      NOp   1
 Largest concise Abelian subgroup C1      NOp   1
                         Standard orientation:                         
 ---------------------------------------------------------------------
 Center     Atomic      Atomic             Coordinates (Angstroms)
 Number     Number       Type             X           Y           Z
 ---------------------------------------------------------------------
      1          6           0        0.462285    0.468406   -0.535671
      2          6           0       -0.575968    0.744520    0.551784
      3          6           0       -1.897288    0.075405    0.285213
      4          8           0        1.671577    0.822893   -0.333419
      5          8           0        1.905225   -1.022037    0.423092
      6          8           0       -2.037750   -0.867810   -0.461242
      7          1           0        2.692354   -1.577508    0.262220
      8          1           0        0.632589   -0.822539   -0.549253
      9          1           0        0.092967    0.550661   -1.579061
     10          1           0       -2.767033    0.496111    0.831162
     11          1           0       -0.706778    1.822769    0.701817
     12          1           0       -0.190684    0.336149    1.497719
 ---------------------------------------------------------------------
 Rotational constants (GHZ):           6.4595503           1.9621339           1.7359658
 Standard basis: 6-31+G(d) (6D, 7F)
 There are   126 symmetry adapted cartesian basis functions of A   symmetry.
 There are   126 symmetry adapted basis functions of A   symmetry.
   126 basis functions,   216 primitive gaussians,   126 cartesian basis functions
    24 alpha electrons       24 beta electrons
       nuclear repulsion energy       232.8519861496 Hartrees.
 NAtoms=   12 NActive=   12 NUniq=   12 SFac= 1.00D+00 NAtFMM=   60 NAOKFM=F Big=F
 Integral buffers will be    131072 words long.
 Raffenetti 2 integral format.
 Two-electron integral symmetry is turned on.
 One-electron integrals computed using PRISM.
 NBasis=   126 RedAO= T EigKep=  9.09D-05  NBF=   126
 NBsUse=   126 1.00D-06 EigRej= -1.00D+00 NBFU=   126
 Initial guess from the checkpoint file:  "/scratch/bell/zhao922/YARP/paper-example/KHP-network/pp_0/TS-folder/Gau-5229.chk"
 B after Tr=    -0.000000   -0.000000   -0.000000
         Rot=    0.998206    0.058886    0.010501   -0.002772 Ang=   6.87 deg.
 ExpMin= 4.38D-02 ExpMax= 5.48D+03 ExpMxC= 8.25D+02 IAcc=3 IRadAn=         5 AccDes= 0.00D+00
 Harris functional with IExCor=  402 and IRadAn=       5 diagonalized for initial guess.
 HarFok:  IExCor=  402 AccDes= 0.00D+00 IRadAn=         5 IDoV= 1 UseB2=F ITyADJ=14
 ICtDFT=  3500011 ScaDFX=  1.000000  1.000000  1.000000  1.000000
 FoFCou: FMM=F IPFlag=           0 FMFlag=      100000 FMFlg1=           0
         NFxFlg=           0 DoJE=T BraDBF=F KetDBF=T FulRan=T
         wScrn=  0.000000 ICntrl=       500 IOpCl=  0 I1Cent=   200000004 NGrid=           0
         NMat0=    1 NMatS0=      1 NMatT0=    0 NMatD0=    1 NMtDS0=    0 NMtDT0=    0
 Petite list used in FoFCou.
 Keep R1 ints in memory in canonical form, NReq=47237537.
 Requested convergence on RMS density matrix=1.00D-08 within 128 cycles.
 Requested convergence on MAX density matrix=1.00D-06.
 Requested convergence on             energy=1.00D-06.
 No special actions if energy rises.
 SCF Done:  E(RB3LYP) =  -343.407983240     A.U. after   15 cycles
            NFock= 15  Conv=0.89D-08     -V/T= 2.0091
 DoSCS=F DFT=T ScalE2(SS,OS)=  1.000000  1.000000
 Range of M.O.s used for correlation:     1   126
 NBasis=   126 NAE=    24 NBE=    24 NFC=     0 NFV=     0
 NROrb=    126 NOA=    24 NOB=    24 NVA=   102 NVB=   102

 **** Warning!!: The largest alpha MO coefficient is  0.36242139D+02

 Symmetrizing basis deriv contribution to polar:
 IMax=3 JMax=2 DiffMx= 0.00D+00
 G2DrvN: will do    13 centers at a time, making    1 passes.
 Calling FoFCou, ICntrl=  3107 FMM=F I1Cent=   0 AccDes= 0.00D+00.
 End of G2Drv F.D. properties file   721 does not exist.
 End of G2Drv F.D. properties file   722 does not exist.
 End of G2Drv F.D. properties file   788 does not exist.
          IDoAtm=111111111111
          Differentiating once with respect to electric field.
                with respect to dipole field.
          Differentiating once with respect to nuclear coordinates.
 Keep R1 ints in memory in canonical form, NReq=47193559.
          There are    39 degrees of freedom in the 1st order CPHF.  IDoFFX=6 NUNeed=     3.
     36 vectors produced by pass  0 Test12= 6.28D-15 2.56D-09 XBig12= 9.85D+01 6.34D+00.
 AX will form    36 AO Fock derivatives at one time.
     36 vectors produced by pass  1 Test12= 6.28D-15 2.56D-09 XBig12= 5.20D+01 1.28D+00.
     36 vectors produced by pass  2 Test12= 6.28D-15 2.56D-09 XBig12= 3.49D-01 9.05D-02.
     36 vectors produced by pass  3 Test12= 6.28D-15 2.56D-09 XBig12= 1.08D-03 4.42D-03.
     36 vectors produced by pass  4 Test12= 6.28D-15 2.56D-09 XBig12= 1.52D-06 1.75D-04.
     26 vectors produced by pass  5 Test12= 6.28D-15 2.56D-09 XBig12= 1.65D-09 5.05D-06.
      3 vectors produced by pass  6 Test12= 6.28D-15 2.56D-09 XBig12= 1.28D-12 1.52D-07.
      3 vectors produced by pass  7 Test12= 6.28D-15 2.56D-09 XBig12= 1.19D-15 5.91D-09.
 InvSVY:  IOpt=1 It=  1 EMax= 5.33D-15
 Solved reduced A of dimension   212 with    39 vectors.
 Isotropic polarizability for W=    0.000000       59.59 Bohr**3.
 End of Minotr F.D. properties file   721 does not exist.
 End of Minotr F.D. properties file   722 does not exist.
 End of Minotr F.D. properties file   788 does not exist.
 Calling FoFJK, ICntrl=    100127 FMM=F ISym2X=0 I1Cent= 0 IOpClX= 0 NMat=1 NMatS=1 NMatT=0.
 ***** Axes restored to original set *****
 -------------------------------------------------------------------
 Center     Atomic                   Forces (Hartrees/Bohr)
 Number     Number              X              Y              Z
 -------------------------------------------------------------------
      1        6           0.015537885   -0.020802123   -0.000090982
      2        6           0.001426943    0.003554777   -0.000329921
      3        6          -0.006012532   -0.002742821    0.000676397
      4        8          -0.008950848    0.009486619    0.000535770
      5        8           0.007022705   -0.002055005   -0.007353703
      6        8           0.006100933    0.000423911   -0.001155279
      7        1           0.003605718    0.005813505    0.003253304
      8        1          -0.017302621    0.004559569    0.004149966
      9        1           0.001169989    0.004373001   -0.001605686
     10        1           0.000769327   -0.000839796    0.001303707
     11        1          -0.001095086   -0.001344764    0.000172624
     12        1          -0.002272413   -0.000426873    0.000443802
 -------------------------------------------------------------------
 Cartesian Forces:  Max     0.020802123 RMS     0.006410174
 FormGI is forming the generalized inverse of G from B-inverse, IUseBI=4.

 GradGradGradGradGradGradGradGradGradGradGradGradGradGradGradGradGradGrad
 Berny optimization.
 Internal  Forces:  Max     0.031268624 RMS     0.005497455
 Search for a saddle point.
 Step number   3 out of a maximum of  100
 All quantities printed in internal units (Hartrees-Bohrs-Radians)
 Swapping is turned off.
 Second derivative matrix not updated -- analytic derivatives used.
 ITU=  0  0  0
     Eigenvalues ---   -0.55383   0.00095   0.00177   0.00404   0.01391
     Eigenvalues ---    0.02456   0.03074   0.03899   0.04144   0.05125
     Eigenvalues ---    0.06960   0.08129   0.08883   0.09239   0.10855
     Eigenvalues ---    0.11885   0.13626   0.16223   0.19253   0.21757
     Eigenvalues ---    0.23112   0.27924   0.29848   0.30852   0.31056
     Eigenvalues ---    0.33115   0.34048   0.49598   0.64669   0.88191
 Eigenvectors required to have negative eigenvalues:
                          A17       R3        R11       A4        R2
   1                   -0.60741  -0.43941   0.35438  -0.25750   0.23723
                          A2        A16       D19       D6        D4
   1                    0.20041   0.18501   0.16859  -0.11771  -0.11750
 RFO step:  Lambda0=4.421507651D-04 Lambda=-1.17596189D-02.
 Linear search not attempted -- option 19 set.
 Maximum step size (   0.300) exceeded in Quadratic search.
    -- Step size scaled by   0.836
 Iteration  1 RMS(Cart)=  0.09849436 RMS(Int)=  0.00650545
 Iteration  2 RMS(Cart)=  0.00968715 RMS(Int)=  0.00032947
 Iteration  3 RMS(Cart)=  0.00003541 RMS(Int)=  0.00032798
 Iteration  4 RMS(Cart)=  0.00000000 RMS(Int)=  0.00032798
 Variable       Old X    -DE/DX   Delta X   Delta X   Delta X     New X
                                 (Linear)    (Quad)   (Total)
    R1        2.88873   0.00198   0.00000   0.00204   0.00204   2.89077
    R2        2.41187   0.01247   0.00000   0.04056   0.04056   2.45242
    R3        2.46080  -0.00142   0.00000  -0.07948  -0.07948   2.38132
    R4        2.09736  -0.00014   0.00000  -0.00712  -0.00712   2.09025
    R5        2.84381   0.00294   0.00000   0.00876   0.00876   2.85257
    R6        2.07202   0.00150   0.00000   0.00446   0.00446   2.07648
    R7        2.07870   0.00054   0.00000   0.00156   0.00156   2.08026
    R8        2.28850   0.00622   0.00000   0.00473   0.00473   2.29323
    R9        2.09709   0.00104   0.00000   0.00208   0.00208   2.09918
   R10        1.84575   0.00624   0.00000   0.01447   0.01447   1.86022
   R11        3.04994  -0.00249   0.00000  -0.15135  -0.15135   2.89858
    A1        2.07218  -0.00300   0.00000  -0.01578  -0.01549   2.05668
    A2        1.84971   0.00282   0.00000   0.03446   0.03377   1.88347
    A3        2.01460   0.00282   0.00000   0.02014   0.01920   2.03380
    A4        1.72448   0.00040   0.00000  -0.06817  -0.06803   1.65645
    A5        2.03049   0.00024   0.00000  -0.00597  -0.00552   2.02497
    A6        1.67819  -0.00335   0.00000   0.03824   0.03699   1.71518
    A7        1.97146   0.00083   0.00000   0.00365   0.00361   1.97507
    A8        1.93477   0.00034   0.00000   0.00452   0.00452   1.93930
    A9        1.88262   0.00033   0.00000   0.01495   0.01489   1.89751
   A10        1.93556  -0.00104   0.00000  -0.01443  -0.01443   1.92114
   A11        1.87004   0.00017   0.00000   0.00294   0.00282   1.87286
   A12        1.86418  -0.00068   0.00000  -0.01167  -0.01172   1.85247
   A13        2.16196  -0.00044   0.00000   0.00108   0.00108   2.16304
   A14        2.01799   0.00135   0.00000   0.00309   0.00309   2.02108
   A15        2.10320  -0.00092   0.00000  -0.00421  -0.00421   2.09898
   A16        2.22248   0.00215   0.00000   0.17220   0.17220   2.39467
   A17        1.79198   0.03127   0.00000   0.13857   0.13857   1.93054
    D1       -2.97303  -0.00045   0.00000   0.02452   0.02447  -2.94856
    D2        1.12562   0.00003   0.00000   0.03733   0.03732   1.16293
    D3       -0.90964   0.00047   0.00000   0.04010   0.04010  -0.86954
    D4       -1.05686   0.00048   0.00000  -0.04469  -0.04501  -1.10187
    D5        3.04179   0.00096   0.00000  -0.03188  -0.03216   3.00963
    D6        1.00653   0.00140   0.00000  -0.02911  -0.02937   0.97715
    D7        0.77655  -0.00069   0.00000   0.02882   0.02909   0.80564
    D8       -1.40799  -0.00021   0.00000   0.04163   0.04194  -1.36605
    D9        2.83994   0.00023   0.00000   0.04440   0.04473   2.88466
   D10       -1.64433  -0.00398   0.00000  -0.15974  -0.15903  -1.80336
   D11        0.50917  -0.00607   0.00000  -0.19462  -0.19447   0.31470
   D12        2.56729  -0.00651   0.00000  -0.20581  -0.20668   2.36062
   D13        0.35161   0.00022   0.00000  -0.01437  -0.01437   0.33724
   D14       -2.79935  -0.00029   0.00000  -0.01871  -0.01871  -2.81806
   D15        2.53573   0.00049   0.00000  -0.01692  -0.01694   2.51879
   D16       -0.61523  -0.00002   0.00000  -0.02126  -0.02128  -0.63652
   D17       -1.71910  -0.00079   0.00000  -0.03684  -0.03683  -1.75593
   D18        1.41312  -0.00129   0.00000  -0.04119  -0.04117   1.37195
   D19       -2.33695  -0.00606   0.00000  -0.06398  -0.06398  -2.40092
         Item               Value     Threshold  Converged?
 Maximum Force            0.031269     0.000450     NO 
 RMS     Force            0.005497     0.000300     NO 
 Maximum Displacement     0.252931     0.001800     NO 
 RMS     Displacement     0.093294     0.001200     NO 
 Predicted change in Energy=-6.767015D-03
 GradGradGradGradGradGradGradGradGradGradGradGradGradGradGradGradGradGrad

                          Input orientation:                          
 ---------------------------------------------------------------------
 Center     Atomic      Atomic             Coordinates (Angstroms)
 Number     Number       Type             X           Y           Z
 ---------------------------------------------------------------------
      1          6           0        0.860147    1.351119   -2.293098
      2          6           0        0.384914    0.363490   -1.225949
      3          6           0        1.436470   -0.650138   -0.844606
      4          8           0        0.118483    2.389035   -2.531559
      5          8           0        1.355492    3.417135   -1.405522
      6          8           0        2.623251   -0.506235   -1.053148
      7          1           0        1.696956    4.337851   -1.474050
      8          1           0        1.818405    2.011962   -1.810415
      9          1           0        1.387060    0.920527   -3.165126
     10          1           0        1.064642   -1.563439   -0.333155
     11          1           0       -0.535005   -0.147946   -1.541548
     12          1           0        0.125794    0.924999   -0.315242
 ---------------------------------------------------------------------
                    Distance matrix (angstroms):
                    1          2          3          4          5
     1  C    0.000000
     2  C    1.529728   0.000000
     3  C    2.536792   1.509514   0.000000
     4  O    1.297766   2.424549   3.717455   0.000000
     5  O    2.302516   3.209209   4.106568   1.963452   0.000000
     6  O    2.845308   2.407578   1.213527   4.103919   4.138141
     7  H    3.208061   4.192679   5.034291   2.721725   0.984384
     8  H    1.260141   2.261407   2.857523   1.884667   1.533864
     9  H    1.106110   2.252775   2.802543   2.041375   3.054547
    10  H    3.518217   2.229835   1.110836   4.620633   5.103007
    11  H    2.181392   1.098826   2.150497   2.800614   4.037609
    12  H    2.152387   1.100829   2.116402   2.656222   2.985232
                    6          7          8          9         10
     6  O    0.000000
     7  H    4.949783   0.000000
     8  H    2.750008   2.353222   0.000000
     9  H    2.832714   3.825425   1.792353   0.000000
    10  H    2.016266   6.043731   3.941313   3.780754   0.000000
    11  H    3.215818   5.010846   3.205625   2.733491   2.454120
    12  H    2.971570   3.931786   2.506385   3.116513   2.659715
                   11         12
    11  H    0.000000
    12  H    1.758321   0.000000
 Stoichiometry    C3H6O3
 Framework group  C1[X(C3H6O3)]
 Deg. of freedom    30
 Full point group                 C1      NOp   1
 Largest Abelian subgroup         C1      NOp   1
 Largest concise Abelian subgroup C1      NOp   1
                         Standard orientation:                         
 ---------------------------------------------------------------------
 Center     Atomic      Atomic             Coordinates (Angstroms)
 Number     Number       Type             X           Y           Z
 ---------------------------------------------------------------------
      1          6           0        0.443647    0.417468   -0.534127
      2          6           0       -0.643888    0.811800    0.466792
      3          6           0       -1.943028    0.073257    0.253664
      4          8           0        1.654155    0.825923   -0.306020
      5          8           0        2.026929   -0.966345    0.403880
      6          8           0       -2.038369   -0.963891   -0.369137
      7          1           0        2.824267   -1.541396    0.353088
      8          1           0        0.706883   -0.802494   -0.359907
      9          1           0        0.141399    0.364876   -1.596840
     10          1           0       -2.841315    0.530531    0.720502
     11          1           0       -0.819983    1.896338    0.453122
     12          1           0       -0.293353    0.571499    1.482275
 ---------------------------------------------------------------------
 Rotational constants (GHZ):           6.5919960           1.9057018           1.6608675
 Standard basis: 6-31+G(d) (6D, 7F)
 There are   126 symmetry adapted cartesian basis functions of A   symmetry.
 There are   126 symmetry adapted basis functions of A   symmetry.
   126 basis functions,   216 primitive gaussians,   126 cartesian basis functions
    24 alpha electrons       24 beta electrons
       nuclear repulsion energy       231.4669196077 Hartrees.
 NAtoms=   12 NActive=   12 NUniq=   12 SFac= 1.00D+00 NAtFMM=   60 NAOKFM=F Big=F
 Integral buffers will be    131072 words long.
 Raffenetti 2 integral format.
 Two-electron integral symmetry is turned on.
 One-electron integrals computed using PRISM.
 NBasis=   126 RedAO= T EigKep=  9.21D-05  NBF=   126
 NBsUse=   126 1.00D-06 EigRej= -1.00D+00 NBFU=   126
 Initial guess from the checkpoint file:  "/scratch/bell/zhao922/YARP/paper-example/KHP-network/pp_0/TS-folder/Gau-5229.chk"
 B after Tr=    -0.000000    0.000000    0.000000
         Rot=    0.999316    0.034795    0.000831   -0.012487 Ang=   4.24 deg.
 ExpMin= 4.38D-02 ExpMax= 5.48D+03 ExpMxC= 8.25D+02 IAcc=3 IRadAn=         5 AccDes= 0.00D+00
 Harris functional with IExCor=  402 and IRadAn=       5 diagonalized for initial guess.
 HarFok:  IExCor=  402 AccDes= 0.00D+00 IRadAn=         5 IDoV= 1 UseB2=F ITyADJ=14
 ICtDFT=  3500011 ScaDFX=  1.000000  1.000000  1.000000  1.000000
 FoFCou: FMM=F IPFlag=           0 FMFlag=      100000 FMFlg1=           0
         NFxFlg=           0 DoJE=T BraDBF=F KetDBF=T FulRan=T
         wScrn=  0.000000 ICntrl=       500 IOpCl=  0 I1Cent=   200000004 NGrid=           0
         NMat0=    1 NMatS0=      1 NMatT0=    0 NMatD0=    1 NMtDS0=    0 NMtDT0=    0
 Petite list used in FoFCou.
 Keep R1 ints in memory in canonical form, NReq=47237537.
 Requested convergence on RMS density matrix=1.00D-08 within 128 cycles.
 Requested convergence on MAX density matrix=1.00D-06.
 Requested convergence on             energy=1.00D-06.
 No special actions if energy rises.
 SCF Done:  E(RB3LYP) =  -343.414527953     A.U. after   14 cycles
            NFock= 14  Conv=0.44D-08     -V/T= 2.0092
 DoSCS=F DFT=T ScalE2(SS,OS)=  1.000000  1.000000
 Range of M.O.s used for correlation:     1   126
 NBasis=   126 NAE=    24 NBE=    24 NFC=     0 NFV=     0
 NROrb=    126 NOA=    24 NOB=    24 NVA=   102 NVB=   102

 **** Warning!!: The largest alpha MO coefficient is  0.34493049D+02

 Symmetrizing basis deriv contribution to polar:
 IMax=3 JMax=2 DiffMx= 0.00D+00
 G2DrvN: will do    13 centers at a time, making    1 passes.
 Calling FoFCou, ICntrl=  3107 FMM=F I1Cent=   0 AccDes= 0.00D+00.
 End of G2Drv F.D. properties file   721 does not exist.
 End of G2Drv F.D. properties file   722 does not exist.
 End of G2Drv F.D. properties file   788 does not exist.
          IDoAtm=111111111111
          Differentiating once with respect to electric field.
                with respect to dipole field.
          Differentiating once with respect to nuclear coordinates.
 Keep R1 ints in memory in canonical form, NReq=47193559.
          There are    39 degrees of freedom in the 1st order CPHF.  IDoFFX=6 NUNeed=     3.
     36 vectors produced by pass  0 Test12= 6.28D-15 2.56D-09 XBig12= 9.27D+01 4.95D+00.
 AX will form    36 AO Fock derivatives at one time.
     36 vectors produced by pass  1 Test12= 6.28D-15 2.56D-09 XBig12= 4.94D+01 1.11D+00.
     36 vectors produced by pass  2 Test12= 6.28D-15 2.56D-09 XBig12= 3.43D-01 7.75D-02.
     36 vectors produced by pass  3 Test12= 6.28D-15 2.56D-09 XBig12= 1.10D-03 4.75D-03.
     36 vectors produced by pass  4 Test12= 6.28D-15 2.56D-09 XBig12= 1.62D-06 2.15D-04.
     27 vectors produced by pass  5 Test12= 6.28D-15 2.56D-09 XBig12= 1.51D-09 5.27D-06.
      3 vectors produced by pass  6 Test12= 6.28D-15 2.56D-09 XBig12= 1.10D-12 1.30D-07.
      3 vectors produced by pass  7 Test12= 6.28D-15 2.56D-09 XBig12= 9.18D-16 4.92D-09.
 InvSVY:  IOpt=1 It=  1 EMax= 2.66D-15
 Solved reduced A of dimension   213 with    39 vectors.
 Isotropic polarizability for W=    0.000000       59.30 Bohr**3.
 End of Minotr F.D. properties file   721 does not exist.
 End of Minotr F.D. properties file   722 does not exist.
 End of Minotr F.D. properties file   788 does not exist.
 Calling FoFJK, ICntrl=    100127 FMM=F ISym2X=0 I1Cent= 0 IOpClX= 0 NMat=1 NMatS=1 NMatT=0.
 ***** Axes restored to original set *****
 -------------------------------------------------------------------
 Center     Atomic                   Forces (Hartrees/Bohr)
 Number     Number              X              Y              Z
 -------------------------------------------------------------------
      1        6           0.001738229   -0.006278202   -0.000545697
      2        6           0.001325542    0.001049032    0.000295841
      3        6          -0.001137658   -0.000630953    0.000032063
      4        8          -0.003082259   -0.000557168   -0.000647756
      5        8           0.005097626    0.000030594   -0.003862326
      6        8           0.001051507   -0.000032945   -0.000556957
      7        1           0.000904449    0.001020034    0.002194652
      8        1          -0.004499309    0.004204459    0.004295501
      9        1          -0.000510698    0.001833717   -0.001323079
     10        1           0.000209274    0.000057608    0.000656503
     11        1           0.000024541   -0.000375660   -0.000445276
     12        1          -0.001121243   -0.000320517   -0.000093470
 -------------------------------------------------------------------
 Cartesian Forces:  Max     0.006278202 RMS     0.002176473
 FormGI is forming the generalized inverse of G from B-inverse, IUseBI=4.

 GradGradGradGradGradGradGradGradGradGradGradGradGradGradGradGradGradGrad
 Berny optimization.
 Internal  Forces:  Max     0.016482077 RMS     0.002745995
 Search for a saddle point.
 Step number   4 out of a maximum of  100
 All quantities printed in internal units (Hartrees-Bohrs-Radians)
 Swapping is turned off.
 Second derivative matrix not updated -- analytic derivatives used.
 ITU=  0  0  0  0
     Eigenvalues ---   -0.45324   0.00104   0.00190   0.00451   0.01451
     Eigenvalues ---    0.02730   0.03062   0.04109   0.04347   0.05046
     Eigenvalues ---    0.07008   0.08225   0.09029   0.10816   0.11679
     Eigenvalues ---    0.13395   0.15321   0.15974   0.18684   0.19610
     Eigenvalues ---    0.22723   0.27788   0.29285   0.30750   0.31550
     Eigenvalues ---    0.32806   0.33665   0.46980   0.59885   0.86669
 Eigenvectors required to have negative eigenvalues:
                          A17       R3        R11       R2        A16
   1                   -0.62723  -0.42015   0.35422   0.27204   0.26535
                          A4        D19       A2        D6        D4
   1                   -0.20519   0.20283   0.16147  -0.10021  -0.09689
 RFO step:  Lambda0=4.355236125D-04 Lambda=-2.87468702D-03.
 Linear search not attempted -- option 19 set.
 Iteration  1 RMS(Cart)=  0.05955183 RMS(Int)=  0.00835659
 Iteration  2 RMS(Cart)=  0.00667851 RMS(Int)=  0.00024486
 Iteration  3 RMS(Cart)=  0.00025404 RMS(Int)=  0.00004668
 Iteration  4 RMS(Cart)=  0.00000022 RMS(Int)=  0.00004668
 Variable       Old X    -DE/DX   Delta X   Delta X   Delta X     New X
                                 (Linear)    (Quad)   (Total)
    R1        2.89077  -0.00002   0.00000   0.00022   0.00022   2.89099
    R2        2.45242   0.00143   0.00000   0.01854   0.01854   2.47096
    R3        2.38132   0.00491   0.00000  -0.03793  -0.03793   2.34339
    R4        2.09025   0.00009   0.00000  -0.00245  -0.00245   2.08779
    R5        2.85257   0.00053   0.00000   0.00150   0.00150   2.85407
    R6        2.07648   0.00028   0.00000   0.00208   0.00208   2.07856
    R7        2.08026   0.00002   0.00000  -0.00026  -0.00026   2.08001
    R8        2.29323   0.00112   0.00000   0.00056   0.00056   2.29379
    R9        2.09918   0.00019   0.00000   0.00054   0.00054   2.09972
   R10        1.86022   0.00111   0.00000   0.00612   0.00612   1.86633
   R11        2.89858  -0.00129   0.00000  -0.01837  -0.01837   2.88022
    A1        2.05668  -0.00128   0.00000  -0.00735  -0.00745   2.04924
    A2        1.88347  -0.00167   0.00000  -0.00602  -0.00606   1.87742
    A3        2.03380   0.00134   0.00000   0.00595   0.00578   2.03958
    A4        1.65645   0.00319   0.00000   0.00477   0.00475   1.66121
    A5        2.02497  -0.00067   0.00000  -0.01784  -0.01804   2.00693
    A6        1.71518  -0.00052   0.00000   0.03233   0.03226   1.74744
    A7        1.97507   0.00017   0.00000   0.00190   0.00186   1.97693
    A8        1.93930  -0.00009   0.00000  -0.00269  -0.00270   1.93660
    A9        1.89751   0.00013   0.00000   0.00920   0.00916   1.90667
   A10        1.92114  -0.00019   0.00000  -0.00884  -0.00884   1.91229
   A11        1.87286   0.00017   0.00000   0.00615   0.00609   1.87896
   A12        1.85247  -0.00019   0.00000  -0.00555  -0.00552   1.84694
   A13        2.16304  -0.00017   0.00000   0.00241   0.00241   2.16545
   A14        2.02108   0.00031   0.00000  -0.00204  -0.00204   2.01904
   A15        2.09898  -0.00014   0.00000  -0.00040  -0.00040   2.09859
   A16        2.39467   0.00116   0.00000   0.18938   0.18938   2.58405
   A17        1.93054   0.01648   0.00000   0.03616   0.03616   1.96670
    D1       -2.94856  -0.00115   0.00000   0.04398   0.04399  -2.90457
    D2        1.16293  -0.00095   0.00000   0.05638   0.05640   1.21934
    D3       -0.86954  -0.00074   0.00000   0.05914   0.05917  -0.81037
    D4       -1.10187   0.00109   0.00000   0.04243   0.04241  -1.05946
    D5        3.00963   0.00128   0.00000   0.05483   0.05481   3.06444
    D6        0.97715   0.00149   0.00000   0.05758   0.05759   1.03474
    D7        0.80564   0.00006   0.00000   0.08145   0.08142   0.88706
    D8       -1.36605   0.00026   0.00000   0.09385   0.09383  -1.27222
    D9        2.88466   0.00047   0.00000   0.09660   0.09660   2.98126
   D10       -1.80336  -0.00193   0.00000  -0.14599  -0.14594  -1.94930
   D11        0.31470  -0.00245   0.00000  -0.15375  -0.15383   0.16087
   D12        2.36062  -0.00256   0.00000  -0.16551  -0.16548   2.19513
   D13        0.33724  -0.00008   0.00000  -0.06029  -0.06029   0.27695
   D14       -2.81806  -0.00022   0.00000  -0.06291  -0.06291  -2.88097
   D15        2.51879  -0.00023   0.00000  -0.06930  -0.06929   2.44949
   D16       -0.63652  -0.00037   0.00000  -0.07192  -0.07191  -0.70843
   D17       -1.75593  -0.00046   0.00000  -0.07704  -0.07705  -1.83298
   D18        1.37195  -0.00060   0.00000  -0.07966  -0.07967   1.29228
   D19       -2.40092  -0.00284   0.00000  -0.12461  -0.12461  -2.52553
         Item               Value     Threshold  Converged?
 Maximum Force            0.016482     0.000450     NO 
 RMS     Force            0.002746     0.000300     NO 
 Maximum Displacement     0.170784     0.001800     NO 
 RMS     Displacement     0.060116     0.001200     NO 
 Predicted change in Energy=-1.505943D-03
 GradGradGradGradGradGradGradGradGradGradGradGradGradGradGradGradGradGrad

                          Input orientation:                          
 ---------------------------------------------------------------------
 Center     Atomic      Atomic             Coordinates (Angstroms)
 Number     Number       Type             X           Y           Z
 ---------------------------------------------------------------------
      1          6           0        0.851906    1.356595   -2.272598
      2          6           0        0.374775    0.338805   -1.234870
      3          6           0        1.443357   -0.650446   -0.834187
      4          8           0        0.098798    2.405709   -2.477393
[...]
    D5       -3.05645  -0.00000   0.00000   0.00000   0.00000  -3.05645
    D6        1.19973  -0.00000   0.00000   0.00000   0.00000   1.19973
    D7        1.04001   0.00000   0.00000   0.00000   0.00000   1.04001
    D8       -1.10683   0.00000   0.00000   0.00000   0.00000  -1.10683
    D9       -3.13384   0.00000   0.00000   0.00000   0.00000  -3.13383
   D10       -2.01304  -0.00000   0.00000  -0.00001  -0.00001  -2.01305
   D11        0.09623  -0.00000   0.00000  -0.00001  -0.00001   0.09622
   D12        2.13286  -0.00000   0.00000  -0.00001  -0.00001   2.13285
   D13        0.17765  -0.00000   0.00000   0.00000   0.00000   0.17765
   D14       -2.97750  -0.00000   0.00000   0.00000   0.00000  -2.97750
   D15        2.34008   0.00000   0.00000   0.00000   0.00000   2.34008
   D16       -0.81507   0.00000   0.00000   0.00000   0.00000  -0.81506
   D17       -1.94368  -0.00000   0.00000   0.00000   0.00000  -1.94367
   D18        1.18436  -0.00000   0.00000   0.00000   0.00000   1.18437
   D19       -2.98904  -0.00000   0.00000  -0.00007  -0.00007  -2.98911
         Item               Value     Threshold  Converged?
 Maximum Force            0.000002     0.000450     YES
 RMS     Force            0.000000     0.000300     YES
 Maximum Displacement     0.000025     0.001800     YES
 RMS     Displacement     0.000006     0.001200     YES
 Predicted change in Energy=-9.316383D-12
 Optimization completed.
    -- Stationary point found.
                           ----------------------------
                           !   Optimized Parameters   !
                           ! (Angstroms and Degrees)  !
 --------------------------                            --------------------------
 ! Name  Definition              Value          Derivative Info.                !
 --------------------------------------------------------------------------------
 ! R1    R(1,2)                  1.5303         -DE/DX =    0.0                 !
 ! R2    R(1,4)                  1.3082         -DE/DX =    0.0                 !
 ! R3    R(1,8)                  1.2377         -DE/DX =    0.0                 !
 ! R4    R(1,9)                  1.1044         -DE/DX =    0.0                 !
 ! R5    R(2,3)                  1.5101         -DE/DX =    0.0                 !
 ! R6    R(2,11)                 1.1008         -DE/DX =    0.0                 !
 ! R7    R(2,12)                 1.1002         -DE/DX =    0.0                 !
 ! R8    R(3,6)                  1.2136         -DE/DX =    0.0                 !
 ! R9    R(3,10)                 1.1111         -DE/DX =    0.0                 !
 ! R10   R(5,7)                  0.9885         -DE/DX =    0.0                 !
 ! R11   R(5,8)                  1.5299         -DE/DX =    0.0                 !
 ! A1    A(2,1,4)              117.3215         -DE/DX =    0.0                 !
 ! A2    A(2,1,8)              106.8228         -DE/DX =    0.0                 !
 ! A3    A(2,1,9)              116.8183         -DE/DX =    0.0                 !
 ! A4    A(4,1,8)               95.8228         -DE/DX =    0.0                 !
 ! A5    A(4,1,9)              114.8537         -DE/DX =    0.0                 !
 ! A6    A(8,1,9)              100.6816         -DE/DX =    0.0                 !
 ! A7    A(1,2,3)              113.5455         -DE/DX =    0.0                 !
 ! A8    A(1,2,11)             110.672          -DE/DX =    0.0                 !
 ! A9    A(1,2,12)             109.3568         -DE/DX =    0.0                 !
 ! A10   A(3,2,11)             109.0374         -DE/DX =    0.0                 !
 ! A11   A(3,2,12)             108.1316         -DE/DX =    0.0                 !
 ! A12   A(11,2,12)            105.776          -DE/DX =    0.0                 !
 ! A13   A(2,3,6)              124.1886         -DE/DX =    0.0                 !
 ! A14   A(2,3,10)             115.5485         -DE/DX =    0.0                 !
 ! A15   A(6,3,10)             120.2584         -DE/DX =    0.0                 !
 ! A16   A(7,5,8)              152.9578         -DE/DX =    0.0                 !
 ! A17   A(1,8,5)              112.0257         -DE/DX =    0.0                 !
 ! D1    D(4,1,2,3)           -158.1083         -DE/DX =    0.0                 !
 ! D2    D(4,1,2,11)            78.8869         -DE/DX =    0.0                 !
 ! D3    D(4,1,2,12)           -37.252          -DE/DX =    0.0                 !
 ! D4    D(8,1,2,3)            -52.1168         -DE/DX =    0.0                 !
 ! D5    D(8,1,2,11)          -175.1216         -DE/DX =    0.0                 !
 ! D6    D(8,1,2,12)            68.7396         -DE/DX =    0.0                 !
 ! D7    D(9,1,2,3)             59.5881         -DE/DX =    0.0                 !
 ! D8    D(9,1,2,11)           -63.4167         -DE/DX =    0.0                 !
 ! D9    D(9,1,2,12)          -179.5555         -DE/DX =    0.0                 !
 ! D10   D(2,1,8,5)           -115.3384         -DE/DX =    0.0                 !
 ! D11   D(4,1,8,5)              5.5137         -DE/DX =    0.0                 !
 ! D12   D(9,1,8,5)            122.2041         -DE/DX =    0.0                 !
 ! D13   D(1,2,3,6)             10.1783         -DE/DX =    0.0                 !
 ! D14   D(1,2,3,10)          -170.5981         -DE/DX =    0.0                 !
 ! D15   D(11,2,3,6)           134.0766         -DE/DX =    0.0                 !
 ! D16   D(11,2,3,10)          -46.6999         -DE/DX =    0.0                 !
 ! D17   D(12,2,3,6)          -111.3645         -DE/DX =    0.0                 !
 ! D18   D(12,2,3,10)           67.859          -DE/DX =    0.0                 !
 ! D19   D(7,5,8,1)           -171.2592         -DE/DX =    0.0                 !
 --------------------------------------------------------------------------------
 GradGradGradGradGradGradGradGradGradGradGradGradGradGradGradGradGradGrad


 ----------------------------------------------------------------------

 Electric dipole moment (input orientation):
 (Debye = 10**-18 statcoulomb cm , SI units = C m)
                  (au)            (Debye)         (10**-30 SI)
   Tot        0.841967D+00      0.214007D+01      0.713849D+01
   x         -0.580240D+00     -0.147482D+01     -0.491948D+01
   y         -0.517232D+00     -0.131467D+01     -0.438527D+01
   z          0.323575D+00      0.822446D+00      0.274338D+01

 Dipole polarizability, Alpha (input orientation).
 (esu units = cm**3 , SI units = C**2 m**2 J**-1)
 Alpha(0;0):
               (au)            (10**-24 esu)      (10**-40 SI)
   iso        0.593236D+02      0.879084D+01      0.978113D+01
   aniso      0.312827D+02      0.463561D+01      0.515781D+01
   xx         0.556934D+02      0.825292D+01      0.918261D+01
   yx         0.617083D+01      0.914423D+00      0.101743D+01
   yy         0.775958D+02      0.114985D+02      0.127938D+02
   zx         0.254603D+01      0.377282D+00      0.419783D+00
   zy        -0.957291D+00     -0.141856D+00     -0.157836D+00
   zz         0.446814D+02      0.662110D+01      0.736697D+01

 ----------------------------------------------------------------------

 Dipole orientation:
     6         -2.76973756         -1.26842723         -4.29863034
     6         -1.39136358         -1.22976200         -1.75677733
     6          1.11926745         -2.58560894         -1.80067600
     8         -4.47020161          0.48182969         -4.69400218
     8         -2.10763942          2.00372560         -7.08361431
     8          2.15071779         -3.32626333         -3.71051265
     1         -1.97542236          3.38243514         -8.33704902
     1         -1.25398105         -0.49325497         -5.90249096
     1         -3.24092397         -3.14295934         -5.08580085
     1          2.03024569         -2.86516742          0.07024236
     1         -2.58178218         -2.05424916         -0.26323049
     1         -1.05269363          0.74068938         -1.18641169

 Electric dipole moment (dipole orientation):
 (Debye = 10**-18 statcoulomb cm , SI units = C m)
                  (au)            (Debye)         (10**-30 SI)
   Tot        0.841967D+00      0.214007D+01      0.713849D+01
   x          0.000000D+00      0.000000D+00      0.000000D+00
   y          0.000000D+00      0.000000D+00      0.000000D+00
   z          0.841967D+00      0.214007D+01      0.713849D+01

 Dipole polarizability, Alpha (dipole orientation).
 (esu units = cm**3 , SI units = C**2 m**2 J**-1)
 Alpha(0;0):
               (au)            (10**-24 esu)      (10**-40 SI)
   iso        0.593236D+02      0.879084D+01      0.978113D+01
   aniso      0.312827D+02      0.463561D+01      0.515781D+01
   xx         0.527413D+02      0.781546D+01      0.869587D+01
   yx        -0.581757D+01     -0.862075D+00     -0.959188D+00
   yy         0.585685D+02      0.867895D+01      0.965664D+01
   zx        -0.400074D-01     -0.592849D-02     -0.659633D-02
   zy        -0.156042D+02     -0.231230D+01     -0.257278D+01
   zz         0.666609D+02      0.987812D+01      0.109909D+02

 ----------------------------------------------------------------------
 1\1\GINC-BELL-A103\Freq\RB3LYP\6-31+G(d)\C3H6O3\ZHAO922\23-Dec-2020\0\
 \#N Geom=AllCheck Guess=TCheck SCRF=Check GenChk RB3LYP/6-31+G(d) Freq
 \\pp_14_0 TS\\0,1\C,0.8100686851,1.3574027199,-2.296614841\C,0.3560054
 863,0.3229096289,-1.2644478983\C,1.4642033901,-0.5910142903,-0.7985538
 52\O,0.0798723938,2.4348268724,-2.4281739457\O,1.5263180753,3.41510220
 49,-1.5578205563\O,2.6391105899,-0.4221774961,-1.0515735316\H,1.806262
 3733,4.331860269,-1.3163191337\H,1.7964373387,1.9318616321,-1.81802534
 \H,1.2367018126,0.9680128198,-3.2379069352\H,1.1438374955,-1.454248192
 5,-0.1767321746\H,-0.46905628,-0.2873214223,-1.6628581423\H,-0.0531523
 607,0.8411452542,-0.3843916492\\Version=ES64L-G16RevB.01\State=1-A\HF=
 -343.4165604\RMSD=3.983e-09\RMSF=5.092e-07\ZeroPoint=0.0849745\Thermal
 =0.0920788\Dipole=-0.5802402,-0.5172316,0.323575\DipoleDeriv=0.1167838
 ,0.6357246,-0.0232384,-0.0265238,0.4259093,-0.0491693,-0.0718069,0.170
 0709,0.2941618,-0.1652287,0.1193187,0.0255587,0.2146316,-0.1329422,0.1
 179782,-0.0069354,-0.0639147,0.0322495,1.1348435,-0.2075213,-0.0598282
 ,-0.139985,0.6804509,-0.3129455,-0.0613187,-0.3209591,0.3536546,-0.370
 244,0.1184042,-0.0954685,0.0822033,0.3682206,0.1090141,-0.0517302,0.21
 66527,-0.2347698,-0.447064,-0.161928,0.0552967,-0.0630358,-0.6886497,0
 .0321487,0.036101,-0.0760113,-0.5856855,-0.9961068,0.1294876,0.0538882
 ,0.0143824,-0.5382657,0.1168449,0.1024913,0.0958545,-0.3731261,0.32530
 5,-0.2503379,-0.0390455,-0.0549073,0.1985451,-0.0558256,-0.03763,-0.14
 0181,0.362011,0.2401956,-0.1952911,0.0334582,0.0308232,-0.0027087,-0.0
 426191,0.0214139,-0.125704,0.2380622,0.0835768,-0.0949952,0.0275626,0.
 0301259,-0.1065455,-0.0546682,0.0859496,-0.019176,-0.0636404,-0.015896
 3,-0.0365727,0.037915,-0.0629892,-0.1802888,0.1577641,0.0442543,0.1835
 462,-0.0474665,0.0043675,-0.0506113,-0.0375049,-0.0738054,-0.0917887,0
 .0120518,-0.0724858,0.0815038,0.042913,0.0894677,-0.0056774,0.0214062,
 0.04908,0.0680634,-0.0305742,0.0116971,-0.001682,-0.0183638\Polar=55.6
 934382,6.1708321,77.5958494,2.5460259,-0.9572913,44.6813905\Quadrupole
 =-3.6487948,2.9674929,0.6813019,5.8934744,-1.4026893,1.3147261\PG=C01 
 [X(C3H6O3)]\NImag=1\\0.25483202,-0.08905884,0.57545133,-0.12444543,0.0
 1794712,0.46374266,-0.07344427,-0.03058311,0.04568187,0.51343400,-0.01
 955217,-0.10643496,0.03856218,0.01933543,0.49953182,0.04355690,0.02427
 811,-0.11673033,-0.01268766,0.03313032,0.49748884,0.00958214,0.0041835
 5,-0.00707434,-0.11758004,0.03751091,-0.02365064,0.91987250,0.01043913
 ,-0.02230946,0.00804701,0.04201561,-0.14052025,0.03502313,0.07026328,0
 .46427752,-0.01340490,0.01750451,-0.00690534,-0.02724885,0.03164629,-0
 .10752243,-0.13169408,-0.18169283,0.34399536,-0.15266147,0.16569055,-0
 .00654806,0.00665943,0.00038387,-0.00693194,-0.00029854,0.00054900,0.0
 0003412,0.24800001,0.05485221,-0.27604163,-0.00739051,0.03579140,-0.03
 736427,0.03177480,-0.00900663,-0.00529393,0.00464215,-0.19831746,0.277
 42362,-0.02536220,0.03111030,-0.07495907,-0.01880332,0.02344428,-0.000
 03241,0.00430094,0.00360401,-0.00209030,0.04744824,-0.05244916,0.07412
 858,0.00883245,0.00453277,0.00681961,-0.00107724,0.00004140,-0.0021695
 2,-0.00168484,0.00014704,0.00025520,-0.06659947,-0.00944232,-0.0344264
 4,0.16439130,-0.02842454,-0.06040826,-0.02401833,-0.00028105,0.0010755
 0,-0.00509720,-0.00174838,0.00033665,0.00036032,0.01975801,-0.00126757
 ,0.01119407,0.07626146,0.47070187,-0.00015684,-0.00858866,-0.00780753,
 0.00012159,0.00208694,0.00129653,0.00065405,-0.00000543,-0.00023320,-0
 .02542178,-0.00540867,-0.01531959,0.07249980,0.09911620,0.05396313,0.0
 0034733,-0.00575259,0.00366435,-0.05598982,0.00848468,0.00561353,-0.71
 805611,-0.08995815,0.13793648,0.00041837,0.00073432,-0.00063533,0.0015
 5221,0.00153403,-0.00015197,0.80707353,0.00343369,-0.00086404,0.000294
 27,0.02356307,0.02196529,-0.00071138,-0.09394304,-0.10802614,0.0418671
 1,0.00023142,0.00450502,-0.00041391,-0.00010768,-0.00129865,-0.0001254
 0,0.09950235,0.07931148,-0.00098215,-0.00198221,-0.00201188,-0.0028326
 9,0.00150896,0.02388543,0.13929465,0.04166915,-0.10667107,-0.00074140,
 -0.00125972,0.00072528,-0.00002752,-0.00007791,0.00060749,-0.15954893,
 -0.05128249,0.07533964,0.04026902,-0.01688957,0.01051451,-0.00415995,-
 0.00023490,-0.00395940,0.00095770,0.00094956,-0.00065965,0.01735356,0.
 03373459,0.01589843,-0.09027045,-0.08773469,-0.04507452,-0.00028197,-0
 .00090649,0.00047770,0.05167693,-0.02012339,0.00319705,-0.00805789,0.0
 0126607,0.00018243,0.00146395,-0.00056098,-0.00009871,0.00016880,-0.00
 684560,-0.02318118,-0.00846057,-0.08805708,-0.38949627,-0.08744275,0.0
 0019724,0.00055939,-0.00007609,0.11263603,0.39328992,0.01166523,-0.008
 64008,0.00539677,-0.00207435,-0.00019307,-0.00149492,0.00021863,0.0005
 4048,-0.00022720,0.00710932,0.01084740,0.00469258,-0.04612353,-0.08830
 017,-0.03332480,0.00002378,-0.00030837,0.00007590,0.03476439,0.0994453
 8,0.03074106,-0.02703046,-0.05016848,-0.01432889,-0.01255146,-0.007140
 43,-0.00153525,0.00390634,0.00204978,-0.00184644,-0.03675064,0.0492166
 1,-0.00658926,-0.01504819,0.02275989,0.00091062,-0.00159357,-0.0018003
 9,0.00034729,-0.01038700,-0.00018716,-0.00386773,0.10300671,0.07299520
 ,-0.03563908,0.02550266,-0.02122608,-0.01137818,-0.00589189,0.00012295
 ,0.00122686,-0.00139175,-0.00059821,0.07407749,0.01155432,0.01534331,-
 0.01760550,0.00260576,0.00003736,-0.00000954,0.00031533,-0.03898453,0.
 01449448,-0.01202067,-0.01258884,-0.01760068,0.00421234,-0.02158839,-0
 .01373745,0.00921779,0.00648247,-0.00366248,0.00041420,0.00090359,0.00
 071638,-0.01467274,0.03031303,-0.00229965,0.00238965,0.00388870,-0.000
 70991,-0.00002741,-0.00131049,-0.00120876,-0.01257061,0.00328468,-0.00
 615953,0.02390924,-0.01566419,0.04030424,-0.04697793,0.01662402,0.0771
 2789,-0.00318260,0.00213453,0.01043616,0.00032913,0.00110719,-0.000847
 41,-0.01679604,0.03916298,0.02126071,-0.00074454,-0.00192668,-0.003083
 03,-0.00020235,-0.00040761,0.00028689,-0.00489000,0.00166567,-0.001536
 51,-0.00221901,-0.01500792,-0.01459958,0.07475909,0.03300941,-0.074839
 61,-0.06528916,-0.00706706,0.00944051,0.01846135,-0.00118078,0.0014805
 7,-0.00060154,0.01859094,-0.01760813,-0.01982397,0.00177304,-0.0000760
 5,-0.00195601,0.00087575,0.00013897,0.00045687,-0.00134171,0.00089645,
 -0.00062215,-0.00099165,-0.00624769,-0.00764552,-0.04231206,0.08981440
 ,0.08582609,-0.05757197,-0.23516743,0.00195368,-0.00819081,-0.01263875
 ,0.00402921,-0.00013578,-0.00091819,-0.00043200,-0.00359618,0.01387347
 ,0.00032451,0.00075625,0.00089774,-0.00186662,-0.00073845,0.00140006,-
 0.00124395,-0.00002527,-0.00049944,0.00097911,-0.00832439,-0.01372143,
 -0.09018824,0.07450051,0.24812859,-0.00275572,0.00150210,0.00106258,0.
 00940673,0.01710963,-0.01241742,-0.06371277,-0.03172503,0.02199453,-0.
 00015172,0.00221290,-0.00126717,0.00015778,0.00012950,-0.00012404,-0.0
 2846972,-0.03570723,0.02957472,-0.00012512,0.00008633,-0.00004788,-0.0
 0097774,-0.00014446,0.00014187,0.00004105,-0.00005076,-0.00055154,0.08
 510128,0.00375331,0.00197288,-0.00052729,-0.00612520,-0.00745207,0.018
 22018,-0.02705644,-0.19918219,0.09706485,0.00024857,-0.00207835,0.0009
 6231,-0.00012139,-0.00033573,-0.00011578,-0.02005306,0.00825068,0.0097
 5055,-0.00001105,-0.00005859,0.00001990,0.00014147,0.00050504,-0.00009
 052,-0.00013079,-0.00035023,0.00022277,0.04848242,0.19844737,-0.001849
 90,0.00122908,0.00247918,0.00420083,0.01344853,0.00698749,0.01882821,0
 .09728285,-0.12836931,0.00025899,0.00038057,-0.00089552,0.00011453,0.0
 0038954,-0.00010115,0.01895835,0.01209551,0.00907821,0.00006066,-0.000
 09846,-0.00000740,0.00027528,-0.00022241,0.00048540,0.00008234,-0.0003
 4387,-0.00003617,-0.03977896,-0.12527825,0.11112415,-0.00534906,-0.004
 48468,-0.00145375,-0.18656214,-0.10649708,-0.07641596,-0.02037496,-0.0
 1715505,-0.00758314,0.00029016,0.00054114,-0.00019667,0.00047130,-0.00
 019678,0.00032671,-0.00286448,0.00539924,-0.00102567,-0.00028931,-0.00
 002584,-0.00016762,-0.00047261,-0.00061330,0.00074972,-0.00005221,-0.0
 0017134,0.00021259,0.00111151,0.00187157,0.00133253,0.20435576,-0.0122
 8301,-0.01488174,-0.00497666,-0.10496365,-0.12260162,-0.04917247,0.015
 09917,0.01565019,0.00848548,0.00020011,0.00487338,0.00069979,-0.000500
 84,-0.00178677,0.00025337,0.00367875,-0.00407464,-0.00156985,-0.001121
 64,0.00028847,-0.00066876,-0.00111197,-0.00217466,0.00102804,0.0003094
 7,0.00069260,0.00016693,-0.00145328,-0.00057076,-0.00138316,0.11530472
 ,0.13315211,0.01304191,0.01639307,0.00540369,-0.07208798,-0.04801991,-
 0.08007367,-0.00314011,-0.00924853,-0.00360624,0.00080419,-0.00586483,
 -0.00012173,0.00061529,0.00157616,0.00018217,-0.00141275,0.00135311,0.
 00066557,0.00140194,-0.00023464,0.00063921,0.00153590,0.00353306,-0.00
 002008,-0.00030978,-0.00084083,0.00041418,0.00040406,0.00094557,0.0003
 6609,0.07925829,0.05426270,0.08680570,-0.00564405,0.00440428,0.0089796
 6,-0.07495264,0.04842413,0.08016119,-0.01294054,0.01131764,0.02306414,
 0.00053635,0.00052027,-0.00162793,0.00001970,-0.00013075,-0.00050058,-
 0.00193342,0.00074268,-0.00482291,0.00014659,-0.00005128,0.00003627,0.
 00011763,0.00066452,0.00083553,-0.00006458,-0.00113378,0.00095715,0.00
 037445,-0.00099942,-0.00248286,0.00973602,-0.01315783,-0.02011095,0.08
 460449,-0.00904099,0.01079752,0.01990660,0.04827459,-0.10644420,-0.101
 47891,0.00631641,-0.00754109,-0.01805340,0.00010879,0.00195555,-0.0014
 2146,0.00013028,0.00016078,-0.00041958,0.00071931,-0.00045781,0.002547
 39,-0.00009559,-0.00007342,-0.00009990,-0.00017884,0.00035145,0.000398
 61,-0.00121878,-0.00334179,0.00293638,-0.00044212,0.00085195,0.0025000
 6,0.00602741,-0.00856655,-0.01385495,-0.05060045,0.11230759,0.00789894
 ,-0.01009089,-0.01970327,0.07455908,-0.09390620,-0.20750331,-0.0021807
 2,0.00401234,0.01183154,-0.00090695,-0.00198889,0.00229836,-0.00027157
 ,0.00021237,0.00054912,-0.00255350,-0.00071953,-0.00188588,0.00039050,
 0.00003287,0.00016778,0.00021013,0.00000416,0.00001326,0.00137058,0.00
 370433,-0.00173264,0.00100925,-0.00117430,-0.00111097,0.00496299,-0.00
 712541,-0.01065488,-0.08448872,0.10703915,0.22773089\\-0.00000075,0.00
 000073,-0.00000010,0.,0.00000002,-0.00000010,-0.00000035,-0.00000020,-
 0.00000026,-0.00000024,-0.00000055,-0.00000043,0.00000143,-0.00000096,
 0.00000119,-0.00000028,-0.00000028,-0.00000006,0.00000017,0.00000011,0
 .00000057,0.00000051,0.00000085,0.00000045,0.00000038,0.00000036,0.000
 00003,-0.00000051,-0.00000027,-0.00000050,-0.00000014,0.00000027,-0.00
 000055,-0.00000020,-0.00000008,-0.00000024\\\@


 REPARTEE - WHAT YOU THINK OF AFTER YOU BECOME A DEPARTEE.
 Job cpu time:       0 days  0 hours  4 minutes 19.2 seconds.
 Elapsed time:       0 days  0 hours  0 minutes 16.4 seconds.
 File lengths (MBytes):  RWF=     27 Int=      0 D2E=      0 Chk=      3 Scr=      1
 Normal termination of Gaussian 16 at Wed Dec 23 22:04:37 2020.
