 Entering Gaussian System, Link 0=g16
 Initial command:
 /apps/cent7/gaussian/g16-B.01/g16-haswell/g16/l1.exe "/scratch/bell/zhao922/YARP/paper-example/KHP-network/pp_0/TS-folder/Gau-20582.inp" -scrdir="/scratch/bell/zhao922/YARP/paper-example/KHP-network/pp_0/TS-folder/"
 Entering Link 1 = /apps/cent7/gaussian/g16-B.01/g16-haswell/g16/l1.exe PID=     20583.
  
 Copyright (c) 1988-2017, Gaussian, Inc.  All Rights Reserved.
  
 This is part of the Gaussian(R) 16 program.  It is based on
 the Gaussian(R) 09 system (copyright 2009, Gaussian, Inc.),
 the Gaussian(R) 03 system (copyright 2003, Gaussian, Inc.),
 the Gaussian(R) 98 system (copyright 1998, Gaussian, Inc.),
 the Gaussian(R) 94 system (copyright 1995, Gaussian, Inc.),
 the Gaussian 92(TM) system (copyright 1992, Gaussian, Inc.),
 the Gaussian 90(TM) system (copyright 1990, Gaussian, Inc.),
 the Gaussian 88(TM) system (copyright 1988, Gaussian, Inc.),
 the Gaussian 86(TM) system (copyright 1986, Carnegie Mellon
 University), and the Gaussian 82(TM) system (copyright 1983,
 Carnegie Mellon University). Gaussian is a federally registered
 trademark of Gaussian, Inc.
  
 This software contains proprietary and confidential information,
 including trade secrets, belonging to Gaussian, Inc.
  
 This software is provided under written license and may be
 used, copied, transmitted, or stored only in accord with that
 written license.
  
 The following legend is applicable only to US Government
 contracts under FAR:
  
                    RESTRICTED RIGHTS LEGEND
  
 Use, reproduction and disclosure by the US Government is
 subject to restrictions as set forth in subparagraphs (a)
 and (c) of the Commercial Computer Software - Restricted
 Rights clause in FAR 52.227-19.
  
 Gaussian, Inc.
 340 Quinnipiac St., Bldg. 40, Wallingford CT 06492
  
  
 ---------------------------------------------------------------
 Warning -- This program may not be used in any manner that
 competes with the business of Gaussian, Inc. or will provide
 assistance to any competitor of Gaussian, Inc.  The licensee
 of this program is prohibited from giving any competitor of
 Gaussian, Inc. access to this program.  By using this program,
 the user acknowledges that Gaussian, Inc. is engaged in the
 business of creating and licensing software in the field of
 computational chemistry and represents and warrants to the
 licensee that it is not a competitor of Gaussian, Inc. and that
 it will not use this program in any manner prohibited above.
 ---------------------------------------------------------------
  

 Cite this work as:
 Gaussian 16, Revision B.01,
 M. J. Frisch, G. W. Trucks, H. B. Schlegel, G. E. Scuseria, 
 M. A. Robb, J. R. Cheeseman, G. Scalmani, V. Barone, 
 G. A. Petersson, H. Nakatsuji, X. Li, M. Caricato, A. V. Marenich, 
 J. Bloino, B. G. Janesko, R. Gomperts, B. Mennucci, H. P. Hratchian, 
 J. V. Ortiz, A. F. Izmaylov, J. L. Sonnenberg, D. Williams-Young, 
 F. Ding, F. Lipparini, F. Egidi, J. Goings, B. Peng, A. Petrone, 
 T. Henderson, D. Ranasinghe, V. G. Zakrzewski, J. Gao, N. Rega, 
 G. Zheng, W. Liang, M. Hada, M. Ehara, K. Toyota, R. Fukuda, 
 J. Hasegawa, M. Ishida, T. Nakajima, Y. Honda, O. Kitao, H. Nakai, 
 T. Vreven, K. Throssell, J. A. Montgomery, Jr., J. E. Peralta, 
 F. Ogliaro, M. J. Bearpark, J. J. Heyd, E. N. Brothers, K. N. Kudin, 
 V. N. Staroverov, T. A. Keith, R. Kobayashi, J. Normand, 
 K. Raghavachari, A. P. Rendell, J. C. Burant, S. S. Iyengar, 
 J. Tomasi, M. Cossi, J. M. Millam, M. Klene, C. Adamo, R. Cammi, 
 J. W. Ochterski, R. L. Martin, K. Morokuma, O. Farkas, 
 J. B. Foresman, and D. J. Fox, Gaussian, Inc., Wallingford CT, 2016.
 
 ******************************************
 Gaussian 16:  ES64L-G16RevB.01 20-Dec-2017
                23-Dec-2020 
 ******************************************
 %NProcShared=16
 Will use up to   16 processors via shared memory.
 %Mem=6GB
 --------------------------------------------------------------
 # B3LYP/6-31+G* OPT=(TS, CALCALL, NOEIGEN, maxcycles=100) Freq
 --------------------------------------------------------------
 1/5=1,6=100,10=4,11=1,18=20,26=3,38=1/1,3;
 2/9=110,12=2,17=6,18=5,40=1/2;
 3/5=1,6=6,7=11,11=2,25=1,30=1,71=2,74=-5,140=1/1,2,3;
 4//1;
 5/5=2,38=5/2;
 8/6=4,10=90,11=11/1;
 11/6=1,8=1,9=11,15=111,16=1/1,2,10;
 10/6=1/2;
 6/7=2,8=2,9=2,10=2,18=1,28=1/1;
 7/10=1,25=1/1,2,3,16;
 1/5=1,6=100,10=4,11=1,18=20,26=3/3(3);
 2/9=110/2;
 7/8=1,9=1,25=1,44=-1/16;
 99//99;
 2/9=110/2;
 3/5=1,6=6,7=11,11=2,25=1,30=1,71=2,74=-5,140=1/1,2,3;
 4/5=5,16=3,69=1/1;
 5/5=2,38=5/2;
 8/6=4,10=90,11=11/1;
 11/6=1,8=1,9=11,15=111,16=1/1,2,10;
 10/6=1/2;
 7/10=1,25=1/1,2,3,16;
 1/5=1,6=100,10=4,11=1,18=20,26=3/3(-8);
 2/9=110/2;
 6/7=2,8=2,9=2,10=2,18=1,19=2,28=1/1;
 7/8=1,9=1,25=1,44=-1/16;
 99//99;
 ---------
 pp_1_0 TS
 ---------
 Symbolic Z-matrix:
 Charge =  0 Multiplicity = 1
 C                     1.60979   1.457    -2.21021 
 C                     0.04163   0.35749  -1.1836 
 C                     1.08332  -0.53267  -0.81739 
 O                     0.92999   2.6321   -2.39004 
 O                     1.24965   3.61025  -1.40366 
 O                     2.23542  -0.43628  -1.18081 
 H                     0.54768   4.26642  -1.51304 
 H                     1.38649   0.9571   -3.15445 
 H                     2.68212   1.54802  -2.09057 
 H                     0.80198  -1.45094  -0.26328 
 H                    -0.28246   1.33042  -0.87753 
 H                    -0.74683  -0.37483  -1.34132 
 
 Add virtual bond connecting atoms C2         and C1         Dist= 4.11D+00.
 Add virtual bond connecting atoms O6         and C1         Dist= 4.24D+00.
 Add virtual bond connecting atoms O6         and H9         Dist= 4.21D+00.
 Add virtual bond connecting atoms H11        and C1         Dist= 4.38D+00.

 GradGradGradGradGradGradGradGradGradGradGradGradGradGradGradGradGradGrad
 Berny optimization.
 Initialization pass.
                           ----------------------------
                           !    Initial Parameters    !
                           ! (Angstroms and Degrees)  !
 --------------------------                            --------------------------
 ! Name  Definition              Value          Derivative Info.                !
 --------------------------------------------------------------------------------
 ! R1    R(1,2)                  2.173          calculate D2E/DX2 analytically  !
 ! R2    R(1,4)                  1.3694         calculate D2E/DX2 analytically  !
 ! R3    R(1,6)                  2.244          calculate D2E/DX2 analytically  !
 ! R4    R(1,8)                  1.0915         calculate D2E/DX2 analytically  !
 ! R5    R(1,9)                  1.0828         calculate D2E/DX2 analytically  !
 ! R6    R(1,11)                 2.3179         calculate D2E/DX2 analytically  !
 ! R7    R(2,3)                  1.4183         calculate D2E/DX2 analytically  !
 ! R8    R(2,11)                 1.0702         calculate D2E/DX2 analytically  !
 ! R9    R(2,12)                 1.0876         calculate D2E/DX2 analytically  !
 ! R10   R(3,6)                  1.2119         calculate D2E/DX2 analytically  !
 ! R11   R(3,10)                 1.1088         calculate D2E/DX2 analytically  !
 ! R12   R(4,5)                  1.4254         calculate D2E/DX2 analytically  !
 ! R13   R(5,7)                  0.9671         calculate D2E/DX2 analytically  !
 ! R14   R(6,9)                  2.2281         calculate D2E/DX2 analytically  !
 ! A1    A(2,1,4)               97.9309         calculate D2E/DX2 analytically  !
 ! A2    A(2,1,6)               63.7411         calculate D2E/DX2 analytically  !
 ! A3    A(2,1,8)               91.6802         calculate D2E/DX2 analytically  !
 ! A4    A(2,1,9)              134.8291         calculate D2E/DX2 analytically  !
 ! A5    A(4,1,6)              157.3115         calculate D2E/DX2 analytically  !
 ! A6    A(4,1,8)              100.2444         calculate D2E/DX2 analytically  !
 ! A7    A(4,1,9)              115.721          calculate D2E/DX2 analytically  !
 ! A8    A(4,1,11)              73.5668         calculate D2E/DX2 analytically  !
 ! A9    A(6,1,8)               93.8687         calculate D2E/DX2 analytically  !
 ! A10   A(6,1,11)              85.2836         calculate D2E/DX2 analytically  !
 ! A11   A(8,1,9)              109.6754         calculate D2E/DX2 analytically  !
 ! A12   A(8,1,11)             107.7796         calculate D2E/DX2 analytically  !
 ! A13   A(9,1,11)             138.5488         calculate D2E/DX2 analytically  !
 ! A14   A(1,2,3)               84.8093         calculate D2E/DX2 analytically  !
 ! A15   A(1,2,12)             142.6891         calculate D2E/DX2 analytically  !
 ! A16   A(3,2,11)             135.9852         calculate D2E/DX2 analytically  !
 ! A17   A(3,2,12)              98.47           calculate D2E/DX2 analytically  !
 ! A18   A(11,2,12)            115.7269         calculate D2E/DX2 analytically  !
 ! A19   A(2,3,6)              124.8107         calculate D2E/DX2 analytically  !
 ! A20   A(2,3,10)             117.546          calculate D2E/DX2 analytically  !
 ! A21   A(6,3,10)             117.1902         calculate D2E/DX2 analytically  !
 ! A22   A(1,4,5)              112.7457         calculate D2E/DX2 analytically  !
 ! A23   A(4,5,7)              102.9765         calculate D2E/DX2 analytically  !
 ! A24   A(1,6,3)               86.5389         calculate D2E/DX2 analytically  !
 ! A25   A(3,6,9)              112.5732         calculate D2E/DX2 analytically  !
 ! D1    D(4,1,2,3)           -164.2936         calculate D2E/DX2 analytically  !
 ! D2    D(4,1,2,12)            98.5374         calculate D2E/DX2 analytically  !
 ! D3    D(6,1,2,3)              1.634          calculate D2E/DX2 analytically  !
 ! D4    D(6,1,2,12)           -95.535          calculate D2E/DX2 analytically  !
 ! D5    D(8,1,2,3)             95.1194         calculate D2E/DX2 analytically  !
 ! D6    D(8,1,2,12)            -2.0496         calculate D2E/DX2 analytically  !
 ! D7    D(9,1,2,3)            -25.1524         calculate D2E/DX2 analytically  !
 ! D8    D(9,1,2,12)          -122.3214         calculate D2E/DX2 analytically  !
 ! D9    D(2,1,4,5)             98.105          calculate D2E/DX2 analytically  !
 ! D10   D(6,1,4,5)             63.6805         calculate D2E/DX2 analytically  !
 ! D11   D(8,1,4,5)           -168.7271         calculate D2E/DX2 analytically  !
 ! D12   D(9,1,4,5)            -50.8981         calculate D2E/DX2 analytically  !
 ! D13   D(11,1,4,5)            85.5959         calculate D2E/DX2 analytically  !
 ! D14   D(2,1,6,3)             -1.9081         calculate D2E/DX2 analytically  !
 ! D15   D(4,1,6,3)             36.726          calculate D2E/DX2 analytically  !
 ! D16   D(8,1,6,3)            -91.8742         calculate D2E/DX2 analytically  !
 ! D17   D(11,1,6,3)            15.6744         calculate D2E/DX2 analytically  !
 ! D18   D(1,2,3,6)             -3.3062         calculate D2E/DX2 analytically  !
 ! D19   D(1,2,3,10)          -175.3427         calculate D2E/DX2 analytically  !
 ! D20   D(11,2,3,6)           -78.9649         calculate D2E/DX2 analytically  !
 ! D21   D(11,2,3,10)          108.9985         calculate D2E/DX2 analytically  !
 ! D22   D(12,2,3,6)           139.2465         calculate D2E/DX2 analytically  !
 ! D23   D(12,2,3,10)          -32.7901         calculate D2E/DX2 analytically  !
 ! D24   D(2,3,6,1)              3.1942         calculate D2E/DX2 analytically  !
 ! D25   D(2,3,6,9)             13.8031         calculate D2E/DX2 analytically  !
 ! D26   D(10,3,6,1)           175.2564         calculate D2E/DX2 analytically  !
 ! D27   D(10,3,6,9)          -174.1346         calculate D2E/DX2 analytically  !
 ! D28   D(1,4,5,7)           -165.631          calculate D2E/DX2 analytically  !
 --------------------------------------------------------------------------------
 Trust Radius=3.00D-01 FncErr=1.00D-07 GrdErr=1.00D-06 EigMax=2.50D+02 EigMin=1.00D-04
 Number of steps in this run=    100 maximum allowed number of steps=    100.
 Search for a saddle point of order  1.
 GradGradGradGradGradGradGradGradGradGradGradGradGradGradGradGradGradGrad

                          Input orientation:                          
 ---------------------------------------------------------------------
 Center     Atomic      Atomic             Coordinates (Angstroms)
 Number     Number       Type             X           Y           Z
 ---------------------------------------------------------------------
      1          6           0        1.609794    1.456998   -2.210209
      2          6           0        0.041634    0.357490   -1.183596
      3          6           0        1.083316   -0.532673   -0.817390
      4          8           0        0.929987    2.632098   -2.390035
      5          8           0        1.249649    3.610249   -1.403664
      6          8           0        2.235418   -0.436280   -1.180807
      7          1           0        0.547680    4.266421   -1.513043
      8          1           0        1.386489    0.957096   -3.154450
      9          1           0        2.682121    1.548017   -2.090565
     10          1           0        0.801982   -1.450938   -0.263276
     11          1           0       -0.282458    1.330418   -0.877529
     12          1           0       -0.746826   -0.374831   -1.341324
 ---------------------------------------------------------------------
                    Distance matrix (angstroms):
                    1          2          3          4          5
     1  C    0.000000
     2  C    2.173011   0.000000
     3  C    2.485139   1.418308   0.000000
     4  O    1.369429   2.723694   3.537301   0.000000
     5  O    2.327382   3.476805   4.187504   1.425444   0.000000
     6  O    2.244009   2.332974   1.211900   3.547016   4.170828
     7  H    3.083340   3.955295   4.878744   1.893749   0.967102
     8  H    1.091494   2.460168   2.788041   1.896933   3.181697
     9  H    1.082813   3.035147   2.916577   2.082039   2.603192
    10  H    3.591546   2.166917   1.108784   4.605505   5.207351
    11  H    2.317903   1.070188   2.310858   2.334966   2.796748
    12  H    3.108732   1.087585   1.910194   3.599044   4.457652
                    6          7          8          9         10
     6  O    0.000000
     7  H    5.007418   0.000000
     8  H    2.560751   3.788067   0.000000
     9  H    2.228147   3.504153   1.777555   0.000000
    10  H    1.981447   5.857882   3.807777   3.983420   0.000000
    11  H    3.090776   3.116588   2.847652   3.210535   3.047828
    12  H    2.987193   4.821458   3.100401   4.002047   2.172326
                   11         12
    11  H    0.000000
    12  H    1.827188   0.000000
 Stoichiometry    C3H6O3
 Framework group  C1[X(C3H6O3)]
 Deg. of freedom    30
 Full point group                 C1      NOp   1
 Largest Abelian subgroup         C1      NOp   1
 Largest concise Abelian subgroup C1      NOp   1
                         Standard orientation:                         
 ---------------------------------------------------------------------
 Center     Atomic      Atomic             Coordinates (Angstroms)
 Number     Number       Type             X           Y           Z
 ---------------------------------------------------------------------
      1          6           0       -0.317713   -0.593027    0.468449
      2          6           0        0.906778    1.172111    0.141512
      3          6           0        1.901728    0.248065   -0.268138
      4          8           0       -1.533381    0.032404    0.547958
      5          8           0       -2.257426   -0.012197   -0.679095
      6          8           0        1.780849   -0.957411   -0.237837
      7          1           0       -2.952845    0.646352   -0.544962
      8          1           0       -0.046348   -0.624946    1.525190
      9          1           0       -0.331668   -1.597823    0.065119
     10          1           0        2.904958    0.650618   -0.514880
     11          1           0        0.010284    1.575593   -0.281338
     12          1           0        1.550522    1.884942    0.651716
 ---------------------------------------------------------------------
 Rotational constants (GHZ):           7.6432487           1.9114235           1.7419323
 Standard basis: 6-31+G(d) (6D, 7F)
 There are   126 symmetry adapted cartesian basis functions of A   symmetry.
 There are   126 symmetry adapted basis functions of A   symmetry.
   126 basis functions,   216 primitive gaussians,   126 cartesian basis functions
    24 alpha electrons       24 beta electrons
       nuclear repulsion energy       236.1447272238 Hartrees.
 NAtoms=   12 NActive=   12 NUniq=   12 SFac= 1.00D+00 NAtFMM=   60 NAOKFM=F Big=F
 Integral buffers will be    131072 words long.
 Raffenetti 2 integral format.
 Two-electron integral symmetry is turned on.
 One-electron integrals computed using PRISM.
 NBasis=   126 RedAO= T EigKep=  1.63D-04  NBF=   126
 NBsUse=   126 1.00D-06 EigRej= -1.00D+00 NBFU=   126
 ExpMin= 4.38D-02 ExpMax= 5.48D+03 ExpMxC= 8.25D+02 IAcc=3 IRadAn=         5 AccDes= 0.00D+00
 Harris functional with IExCor=  402 and IRadAn=       5 diagonalized for initial guess.
 HarFok:  IExCor=  402 AccDes= 0.00D+00 IRadAn=         5 IDoV= 1 UseB2=F ITyADJ=14
 ICtDFT=  3500011 ScaDFX=  1.000000  1.000000  1.000000  1.000000
 FoFCou: FMM=F IPFlag=           0 FMFlag=      100000 FMFlg1=           0
         NFxFlg=           0 DoJE=T BraDBF=F KetDBF=T FulRan=T
         wScrn=  0.000000 ICntrl=       500 IOpCl=  0 I1Cent=   200000004 NGrid=           0
         NMat0=    1 NMatS0=      1 NMatT0=    0 NMatD0=    1 NMtDS0=    0 NMtDT0=    0
 Petite list used in FoFCou.
 Keep R1 ints in memory in canonical form, NReq=47237585.
 Requested convergence on RMS density matrix=1.00D-08 within 128 cycles.
 Requested convergence on MAX density matrix=1.00D-06.
 Requested convergence on             energy=1.00D-06.
 No special actions if energy rises.
 SCF Done:  E(RB3LYP) =  -343.346273082     A.U. after   15 cycles
            NFock= 15  Conv=0.22D-08     -V/T= 2.0083
 DoSCS=F DFT=T ScalE2(SS,OS)=  1.000000  1.000000
 Range of M.O.s used for correlation:     1   126
 NBasis=   126 NAE=    24 NBE=    24 NFC=     0 NFV=     0
 NROrb=    126 NOA=    24 NOB=    24 NVA=   102 NVB=   102

 **** Warning!!: The largest alpha MO coefficient is  0.28171715D+02

 Symmetrizing basis deriv contribution to polar:
 IMax=3 JMax=2 DiffMx= 0.00D+00
 G2DrvN: will do    13 centers at a time, making    1 passes.
 Calling FoFCou, ICntrl=  3107 FMM=F I1Cent=   0 AccDes= 0.00D+00.
 End of G2Drv F.D. properties file   721 does not exist.
 End of G2Drv F.D. properties file   722 does not exist.
 End of G2Drv F.D. properties file   788 does not exist.
          IDoAtm=111111111111
          Differentiating once with respect to electric field.
                with respect to dipole field.
          Differentiating once with respect to nuclear coordinates.
 Keep R1 ints in memory in canonical form, NReq=47193607.
          There are    39 degrees of freedom in the 1st order CPHF.  IDoFFX=6 NUNeed=     3.
     36 vectors produced by pass  0 Test12= 6.28D-15 2.56D-09 XBig12= 1.34D+02 9.59D+00.
 AX will form    36 AO Fock derivatives at one time.
     36 vectors produced by pass  1 Test12= 6.28D-15 2.56D-09 XBig12= 2.48D+01 7.38D-01.
     36 vectors produced by pass  2 Test12= 6.28D-15 2.56D-09 XBig12= 3.97D-01 1.23D-01.
     36 vectors produced by pass  3 Test12= 6.28D-15 2.56D-09 XBig12= 1.65D-03 5.17D-03.
     36 vectors produced by pass  4 Test12= 6.28D-15 2.56D-09 XBig12= 2.40D-06 2.17D-04.
     28 vectors produced by pass  5 Test12= 6.28D-15 2.56D-09 XBig12= 2.23D-09 6.07D-06.
      3 vectors produced by pass  6 Test12= 6.28D-15 2.56D-09 XBig12= 2.20D-12 2.00D-07.
      3 vectors produced by pass  7 Test12= 6.28D-15 2.56D-09 XBig12= 1.77D-15 4.96D-09.
 InvSVY:  IOpt=1 It=  1 EMax= 7.11D-15
 Solved reduced A of dimension   214 with    39 vectors.
 Isotropic polarizability for W=    0.000000       63.05 Bohr**3.
 End of Minotr F.D. properties file   721 does not exist.
 End of Minotr F.D. properties file   722 does not exist.
 End of Minotr F.D. properties file   788 does not exist.

 **********************************************************************

            Population analysis using the SCF Density.

 **********************************************************************

 Orbital symmetries:
       Occupied  (A) (A) (A) (A) (A) (A) (A) (A) (A) (A) (A) (A)
                 (A) (A) (A) (A) (A) (A) (A) (A) (A) (A) (A) (A)
       Virtual   (A) (A) (A) (A) (A) (A) (A) (A) (A) (A) (A) (A)
                 (A) (A) (A) (A) (A) (A) (A) (A) (A) (A) (A) (A)
                 (A) (A) (A) (A) (A) (A) (A) (A) (A) (A) (A) (A)
                 (A) (A) (A) (A) (A) (A) (A) (A) (A) (A) (A) (A)
                 (A) (A) (A) (A) (A) (A) (A) (A) (A) (A) (A) (A)
                 (A) (A) (A) (A) (A) (A) (A) (A) (A) (A) (A) (A)
                 (A) (A) (A) (A) (A) (A) (A) (A) (A) (A) (A) (A)
                 (A) (A) (A) (A) (A) (A) (A) (A) (A) (A) (A) (A)
                 (A) (A) (A) (A) (A) (A)
 The electronic state is 1-A.
 Alpha  occ. eigenvalues --  -19.24907 -19.23561 -19.15075 -10.28282 -10.27252
 Alpha  occ. eigenvalues --  -10.19788  -1.16620  -1.05514  -0.95864  -0.75320
 Alpha  occ. eigenvalues --   -0.67769  -0.57484  -0.56778  -0.51635  -0.48859
 Alpha  occ. eigenvalues --   -0.46653  -0.44628  -0.44206  -0.41478  -0.37070
 Alpha  occ. eigenvalues --   -0.36370  -0.31313  -0.26107  -0.22240
 Alpha virt. eigenvalues --   -0.08271  -0.01081  -0.00333   0.00930   0.02392
 Alpha virt. eigenvalues --    0.03960   0.04590   0.05900   0.06854   0.07706
 Alpha virt. eigenvalues --    0.08910   0.09899   0.12007   0.12236   0.14477
 Alpha virt. eigenvalues --    0.15722   0.16631   0.18047   0.20086   0.21772
 Alpha virt. eigenvalues --    0.22580   0.23291   0.24186   0.26126   0.27073
 Alpha virt. eigenvalues --    0.27433   0.27795   0.29922   0.30946   0.31468
 Alpha virt. eigenvalues --    0.32916   0.35297   0.37530   0.38092   0.38849
 Alpha virt. eigenvalues --    0.45022   0.64514   0.64646   0.68890   0.71583
 Alpha virt. eigenvalues --    0.73452   0.80548   0.81877   0.82419   0.83513
 Alpha virt. eigenvalues --    0.93534   0.95656   0.98518   1.00207   1.03393
 Alpha virt. eigenvalues --    1.04926   1.05633   1.09335   1.11322   1.14434
 Alpha virt. eigenvalues --    1.18342   1.19979   1.23318   1.24483   1.26940
 Alpha virt. eigenvalues --    1.29605   1.30712   1.37532   1.46025   1.49304
 Alpha virt. eigenvalues --    1.50958   1.52738   1.54035   1.60331   1.64972
 Alpha virt. eigenvalues --    1.70889   1.73466   1.80684   1.81572   1.87372
 Alpha virt. eigenvalues --    1.89395   1.94551   1.95878   2.03878   2.08680
 Alpha virt. eigenvalues --    2.12323   2.15089   2.20101   2.26783   2.34752
 Alpha virt. eigenvalues --    2.39379   2.42053   2.44953   2.49145   2.60034
 Alpha virt. eigenvalues --    2.64468   2.70149   2.88305   2.96489   3.04942
 Alpha virt. eigenvalues --    3.08744   3.96163   4.12976   4.26130   4.29720
 Alpha virt. eigenvalues --    4.33529   4.41855
          Condensed to atoms (all electrons):
               1          2          3          4          5          6
     1  C    5.354613   0.057145  -0.065227   0.143033  -0.029664   0.017537
     2  C    0.057145   6.161755   0.064723  -0.110628  -0.011293  -0.253242
     3  C   -0.065227   0.064723   5.051762   0.038077   0.006571   0.446061
     4  O    0.143033  -0.110628   0.038077   8.087257   0.061832   0.008539
     5  O   -0.029664  -0.011293   0.006571   0.061832   8.276881   0.001600
     6  O    0.017537  -0.253242   0.446061   0.008539   0.001600   8.239251
     7  H    0.008146  -0.001813   0.001110  -0.026798   0.191697  -0.000007
     8  H    0.389610  -0.020586  -0.019409  -0.059264   0.013677   0.002165
     9  H    0.398281   0.001555  -0.001523  -0.040333  -0.003628  -0.043851
    10  H    0.017878  -0.149363   0.417673  -0.000323  -0.000017  -0.071893
    11  H   -0.027931   0.357964   0.003437  -0.001374   0.005026   0.001519
    12  H    0.016522   0.293613  -0.012546   0.001694  -0.000053   0.006090
               7          8          9         10         11         12
     1  C    0.008146   0.389610   0.398281   0.017878  -0.027931   0.016522
     2  C   -0.001813  -0.020586   0.001555  -0.149363   0.357964   0.293613
     3  C    0.001110  -0.019409  -0.001523   0.417673   0.003437  -0.012546
     4  O   -0.026798  -0.059264  -0.040333  -0.000323  -0.001374   0.001694
     5  O    0.191697   0.013677  -0.003628  -0.000017   0.005026  -0.000053
     6  O   -0.000007   0.002165  -0.043851  -0.071893   0.001519   0.006090
     7  H    0.342966  -0.000361  -0.000056   0.000000  -0.000289   0.000001
     8  H   -0.000361   0.487645  -0.031845  -0.000265   0.000304  -0.000176
     9  H   -0.000056  -0.031845   0.467522  -0.000385  -0.000045   0.000032
    10  H    0.000000  -0.000265  -0.000385   0.625977   0.002231   0.002299
    11  H   -0.000289   0.000304  -0.000045   0.002231   0.436270  -0.023672
    12  H    0.000001  -0.000176   0.000032   0.002299  -0.023672   0.528530
 Mulliken charges:
               1
     1  C   -0.279943
     2  C   -0.389830
     3  C    0.069289
     4  O   -0.101714
     5  O   -0.512630
     6  O   -0.353768
     7  H    0.485403
     8  H    0.238504
     9  H    0.254277
    10  H    0.156187
    11  H    0.246560
    12  H    0.187665
 Sum of Mulliken charges =  -0.00000
 Mulliken charges with hydrogens summed into heavy atoms:
               1
     1  C    0.212838
     2  C    0.044395
     3  C    0.225476
     4  O   -0.101714
     5  O   -0.027227
     6  O   -0.353768
 APT charges:
               1
     1  C    0.869678
     2  C   -0.455589
     3  C    0.706225
     4  O   -0.450398
     5  O   -0.343108
     6  O   -0.604802
     7  H    0.289301
     8  H   -0.037051
     9  H   -0.006960
    10  H   -0.073487
    11  H    0.124047
    12  H   -0.017858
 Sum of APT charges =  -0.00000
 APT charges with hydrogens summed into heavy atoms:
               1
     1  C    0.825668
     2  C   -0.349400
     3  C    0.632738
     4  O   -0.450398
     5  O   -0.053807
     6  O   -0.604802
 Electronic spatial extent (au):  <R**2>=            691.1970
 Charge=             -0.0000 electrons
 Dipole moment (field-independent basis, Debye):
    X=             -1.5838    Y=              2.2765    Z=              0.6361  Tot=              2.8452
 Quadrupole moment (field-independent basis, Debye-Ang):
   XX=            -32.5159   YY=            -35.9384   ZZ=            -37.2108
   XY=              0.8393   XZ=              1.6056   YZ=             -1.7080
 Traceless Quadrupole moment (field-independent basis, Debye-Ang):
   XX=              2.7058   YY=             -0.7167   ZZ=             -1.9891
   XY=              0.8393   XZ=              1.6056   YZ=             -1.7080
 Octapole moment (field-independent basis, Debye-Ang**2):
  XXX=            -34.6294  YYY=             -3.1275  ZZZ=              0.9743  XYY=            -10.9498
  XXY=             21.9336  XXZ=             -3.8944  XZZ=             -2.0596  YZZ=             -2.0954
  YYZ=              0.8896  XYZ=              2.1909
 Hexadecapole moment (field-independent basis, Debye-Ang**3):
 XXXX=           -509.4675 YYYY=           -166.9763 ZZZZ=            -86.4455 XXXY=            -27.5186
 XXXZ=             18.9683 YYYX=             -4.9784 YYYZ=              1.6108 ZZZX=              2.1043
 ZZZY=             -1.5185 XXYY=           -130.6092 XXZZ=           -118.0708 YYZZ=            -45.0202
 XXYZ=             -8.6254 YYXZ=              5.7700 ZZXY=             -4.1881
 N-N= 2.361447272238D+02 E-N=-1.276983371067D+03  KE= 3.405213191784D+02
  Exact polarizability:  85.781   9.836  61.970  -1.218  -1.130  41.390
 Approx polarizability: 124.832  24.007 108.675  -3.126  -0.321  59.412
 Calling FoFJK, ICntrl=    100127 FMM=F ISym2X=0 I1Cent= 0 IOpClX= 0 NMat=1 NMatS=1 NMatT=0.
 ***** Axes restored to original set *****
 -------------------------------------------------------------------
 Center     Atomic                   Forces (Hartrees/Bohr)
 Number     Number              X              Y              Z
 -------------------------------------------------------------------
      1        6          -0.041990342    0.003896961   -0.049984482
      2        6           0.022918574   -0.000228682   -0.007051310
      3        6          -0.005278726   -0.012792096    0.033964497
      4        8          -0.006964569    0.008289368   -0.018739278
      5        8           0.020370065    0.002922546    0.022860559
      6        8           0.036691268   -0.009174312    0.002727674
      7        1          -0.007467042    0.000052978   -0.006414716
      8        1           0.005530597   -0.003646200    0.002054235
      9        1          -0.001773596    0.001430384    0.021187445
     10        1          -0.002209896   -0.003144005   -0.000060397
     11        1           0.000508713    0.002029555    0.021321662
     12        1          -0.020335043    0.010363504   -0.021865890
 -------------------------------------------------------------------
 Cartesian Forces:  Max     0.049984482 RMS     0.017576165
 FormGI is forming the generalized inverse of G from B-inverse, IUseBI=4.

 GradGradGradGradGradGradGradGradGradGradGradGradGradGradGradGradGradGrad
 Berny optimization.
 Internal  Forces:  Max     0.022446476 RMS     0.008345343
 Search for a saddle point.
 Step number   1 out of a maximum of  100
 All quantities printed in internal units (Hartrees-Bohrs-Radians)
 Swapping is turned off.
 Second derivative matrix not updated -- analytic derivatives used.
 ITU=  0
     Eigenvalues ---   -0.05200  -0.00970  -0.00193   0.00077   0.00374
     Eigenvalues ---    0.00795   0.01068   0.01423   0.02236   0.02780
     Eigenvalues ---    0.02897   0.03474   0.04612   0.06108   0.06862
     Eigenvalues ---    0.09399   0.14835   0.15556   0.19222   0.24312
     Eigenvalues ---    0.30255   0.32477   0.33417   0.35071   0.35560
     Eigenvalues ---    0.36136   0.37784   0.41698   0.52127   0.73867
 Eigenvectors required to have negative eigenvalues:
                          R1        D20       R3        D21       A15
   1                    0.53081   0.33894  -0.28501   0.26497   0.26469
                          D22       R6        D23       A14       A25
   1                    0.23301   0.20973   0.15904  -0.15354   0.14926
 RFO step:  Lambda0=1.714335437D-02 Lambda=-2.89708502D-02.
 Linear search not attempted -- option 19 set.
 Maximum step size (   0.300) exceeded in Quadratic search.
    -- Step size scaled by   0.409
 Iteration  1 RMS(Cart)=  0.07633144 RMS(Int)=  0.00986312
 Iteration  2 RMS(Cart)=  0.01035017 RMS(Int)=  0.00361142
 Iteration  3 RMS(Cart)=  0.00021243 RMS(Int)=  0.00360978
 Iteration  4 RMS(Cart)=  0.00000146 RMS(Int)=  0.00360978
 Iteration  5 RMS(Cart)=  0.00000003 RMS(Int)=  0.00360978
 Variable       Old X    -DE/DX   Delta X   Delta X   Delta X     New X
                                 (Linear)    (Quad)   (Total)
    R1        4.10640  -0.00244   0.00000   0.18187   0.18144   4.28783
    R2        2.58785   0.00702   0.00000  -0.01525  -0.01525   2.57259
    R3        4.24056   0.02226   0.00000   0.03452   0.03689   4.27745
    R4        2.06262  -0.00124   0.00000  -0.00738  -0.00738   2.05524
    R5        2.04622   0.00231   0.00000  -0.00133   0.00065   2.04687
    R6        4.38020   0.00168   0.00000   0.09778   0.09625   4.47646
    R7        2.68021   0.02245   0.00000   0.00704   0.01073   2.69094
    R8        2.02236   0.00520   0.00000   0.00476   0.00622   2.02858
    R9        2.05524   0.01093   0.00000   0.00591   0.00591   2.06115
   R10        2.29016   0.02095   0.00000   0.01822   0.02108   2.31124
   R11        2.09530   0.00313   0.00000   0.00110   0.00110   2.09639
   R12        2.69370   0.01631   0.00000   0.01618   0.01618   2.70988
   R13        1.82756   0.00618   0.00000   0.00609   0.00609   1.83365
   R14        4.21059  -0.00214   0.00000  -0.00495  -0.01090   4.19969
    A1        1.70922   0.00113   0.00000  -0.02185  -0.01281   1.69641
    A2        1.11249   0.00481   0.00000  -0.02398  -0.02199   1.09050
    A3        1.60012  -0.00081   0.00000  -0.02166  -0.01968   1.58044
    A4        2.35321  -0.00775   0.00000  -0.03000  -0.03189   2.32133
    A5        2.74560   0.00426   0.00000  -0.10907  -0.11214   2.63347
    A6        1.74959   0.00191   0.00000   0.06309   0.06815   1.81774
    A7        2.01971   0.00337   0.00000  -0.00391  -0.01813   2.00158
    A8        1.28398   0.00300   0.00000  -0.02198  -0.01469   1.26929
    A9        1.63832  -0.00135   0.00000   0.05298   0.05559   1.69391
   A10        1.48848   0.00162   0.00000  -0.05324  -0.05095   1.43753
   A11        1.91420   0.00383   0.00000   0.04526   0.04476   1.95895
   A12        1.88111   0.00587   0.00000  -0.02454  -0.02419   1.85692
   A13        2.41813  -0.01329   0.00000  -0.03589  -0.03601   2.38212
   A14        1.48020   0.00646   0.00000  -0.01623  -0.01741   1.46279
   A15        2.49040  -0.01225   0.00000   0.03146   0.03024   2.52064
   A16        2.37339  -0.01212   0.00000  -0.08094  -0.08007   2.29332
   A17        1.71862   0.00055   0.00000   0.05470   0.05572   1.77435
   A18        2.01982   0.00777   0.00000   0.01511   0.01413   2.03395
   A19        2.17836  -0.00911   0.00000   0.00338   0.00486   2.18322
   A20        2.05157   0.00366   0.00000   0.00107   0.00053   2.05209
   A21        2.04535   0.00478   0.00000  -0.00306  -0.00386   2.04149
   A22        1.96778  -0.02241   0.00000  -0.02528  -0.02528   1.94251
   A23        1.79728  -0.01400   0.00000  -0.02065  -0.02065   1.77663
   A24        1.51039  -0.00214   0.00000   0.03739   0.03515   1.54554
   A25        1.96477  -0.00360   0.00000   0.03915   0.03797   2.00274
    D1       -2.86746   0.00074   0.00000   0.12451   0.13295  -2.73451
    D2        1.71980  -0.00773   0.00000   0.05313   0.05885   1.77865
    D3        0.02852  -0.00002   0.00000  -0.00464  -0.00550   0.02302
    D4       -1.66740  -0.00849   0.00000  -0.07601  -0.07960  -1.74700
    D5        1.66015  -0.00113   0.00000   0.06512   0.06751   1.72766
    D6       -0.03577  -0.00960   0.00000  -0.00626  -0.00658  -0.04236
    D7       -0.43899  -0.00131   0.00000   0.03925   0.04132  -0.39767
    D8       -2.13491  -0.00978   0.00000  -0.03213  -0.03278  -2.16769
    D9        1.71226   0.00195   0.00000   0.07438   0.06937   1.78162
   D10        1.11143  -0.00875   0.00000  -0.09181  -0.08164   1.02979
   D11       -2.94484   0.00161   0.00000   0.05744   0.05595  -2.88889
   D12       -0.88834   0.00899   0.00000   0.15038   0.14714  -0.74120
   D13        1.49393  -0.00437   0.00000   0.10158   0.10117   1.59510
   D14       -0.03330   0.00003   0.00000   0.00572   0.00665  -0.02665
   D15        0.64099   0.01048   0.00000   0.21142   0.20192   0.84291
   D16       -1.60351  -0.00006   0.00000   0.05769   0.05959  -1.54391
   D17        0.27357   0.00600   0.00000   0.02720   0.02706   0.30063
   D18       -0.05770   0.00049   0.00000   0.00993   0.01152  -0.04618
   D19       -3.06031   0.00592   0.00000  -0.00203  -0.00222  -3.06253
   D20       -1.37820  -0.01243   0.00000   0.05018   0.05060  -1.32760
   D21        1.90238  -0.00701   0.00000   0.03822   0.03685   1.93924
   D22        2.43031  -0.01106   0.00000   0.04218   0.04352   2.47383
   D23       -0.57230  -0.00564   0.00000   0.03023   0.02977  -0.54252
   D24        0.05575  -0.00076   0.00000  -0.00778  -0.00971   0.04604
   D25        0.24091   0.00093   0.00000  -0.01714  -0.02070   0.22021
   D26        3.05880  -0.00625   0.00000   0.00443   0.00427   3.06307
   D27       -3.03922  -0.00455   0.00000  -0.00492  -0.00672  -3.04594
   D28       -2.89081  -0.00021   0.00000   0.18113   0.18113  -2.70968
         Item               Value     Threshold  Converged?
 Maximum Force            0.022446     0.000450     NO 
 RMS     Force            0.008345     0.000300     NO 
 Maximum Displacement     0.319814     0.001800     NO 
 RMS     Displacement     0.081772     0.001200     NO 
 Predicted change in Energy=-6.303118D-03
 GradGradGradGradGradGradGradGradGradGradGradGradGradGradGradGradGradGrad

                          Input orientation:                          
 ---------------------------------------------------------------------
 Center     Atomic      Atomic             Coordinates (Angstroms)
 Number     Number       Type             X           Y           Z
 ---------------------------------------------------------------------
      1          6           0        1.606354    1.475707   -2.298453
      2          6           0       -0.016014    0.305707   -1.227246
      3          6           0        1.072675   -0.494407   -0.777457
      4          8           0        0.925752    2.649587   -2.408365
      5          8           0        1.365769    3.600411   -1.429236
      6          8           0        2.241557   -0.337302   -1.101340
      7          1           0        0.586463    4.172175   -1.343805
      8          1           0        1.385739    0.952628   -3.226118
      9          1           0        2.671170    1.584099   -2.132173
     10          1           0        0.833567   -1.396954   -0.178355
     11          1           0       -0.333037    1.293273   -0.950537
     12          1           0       -0.801209   -0.440859   -1.352803
 ---------------------------------------------------------------------
                    Distance matrix (angstroms):
                    1          2          3          4          5
     1  C    0.000000
     2  C    2.269023   0.000000
     3  C    2.545504   1.423986   0.000000
     4  O    1.361358   2.788502   3.544876   0.000000
     5  O    2.308200   3.578436   4.156712   1.434007   0.000000
     6  O    2.263529   2.350732   1.223056   3.515845   4.047235
     7  H    3.036852   3.914862   4.725901   1.888565   0.970324
     8  H    1.087587   2.525650   2.861443   1.939067   3.199991
     9  H    1.083158   3.110328   2.951377   2.063500   2.502741
    10  H    3.652971   2.172789   1.109363   4.621249   5.178958
    11  H    2.368839   1.073479   2.280742   2.355717   2.904820
    12  H    3.219292   1.090713   1.960952   3.694248   4.586230
                    6          7          8          9         10
     6  O    0.000000
     7  H    4.809731   0.000000
     8  H    2.628883   3.814109   0.000000
     9  H    2.222379   3.415504   1.802167   0.000000
    10  H    1.989271   5.695132   3.887710   4.010096   0.000000
    11  H    3.051238   3.047657   2.872020   3.241312   3.032252
    12  H    3.054895   4.817240   3.199040   4.094544   2.228438
                   11         12
    11  H    0.000000
    12  H    1.840711   0.000000
 Stoichiometry    C3H6O3
 Framework group  C1[X(C3H6O3)]
 Deg. of freedom    30
 Full point group                 C1      NOp   1
 Largest Abelian subgroup         C1      NOp   1
 Largest concise Abelian subgroup C1      NOp   1
                         Standard orientation:                         
 ---------------------------------------------------------------------
 Center     Atomic      Atomic             Coordinates (Angstroms)
 Number     Number       Type             X           Y           Z
 ---------------------------------------------------------------------
      1          6           0       -0.371076   -0.532162    0.599052
      2          6           0        1.008108    1.201768    0.109356
      3          6           0        1.902779    0.173107   -0.301930
      4          8           0       -1.542871    0.157424    0.530773
      5          8           0       -2.225591   -0.096765   -0.704401
      6          8           0        1.682691   -1.026763   -0.213952
      7          1           0       -2.766843    0.702879   -0.800034
      8          1           0       -0.089091   -0.473984    1.647835
      9          1           0       -0.426641   -1.554512    0.245578
     10          1           0        2.920969    0.475703   -0.621949
     11          1           0        0.113595    1.586962   -0.342119
     12          1           0        1.695316    1.935515    0.532460
 ---------------------------------------------------------------------
 Rotational constants (GHZ):           7.1182597           1.9273894           1.7578930
 Standard basis: 6-31+G(d) (6D, 7F)
 There are   126 symmetry adapted cartesian basis functions of A   symmetry.
 There are   126 symmetry adapted basis functions of A   symmetry.
   126 basis functions,   216 primitive gaussians,   126 cartesian basis functions
    24 alpha electrons       24 beta electrons
       nuclear repulsion energy       234.8395981038 Hartrees.
 NAtoms=   12 NActive=   12 NUniq=   12 SFac= 1.00D+00 NAtFMM=   60 NAOKFM=F Big=F
 Integral buffers will be    131072 words long.
 Raffenetti 2 integral format.
 Two-electron integral symmetry is turned on.
 One-electron integrals computed using PRISM.
 NBasis=   126 RedAO= T EigKep=  1.66D-04  NBF=   126
 NBsUse=   126 1.00D-06 EigRej= -1.00D+00 NBFU=   126
 Initial guess from the checkpoint file:  "/scratch/bell/zhao922/YARP/paper-example/KHP-network/pp_0/TS-folder/Gau-20583.chk"
 B after Tr=     0.000000   -0.000000    0.000000
         Rot=    0.998900    0.044316    0.002082    0.015181 Ang=   5.38 deg.
 ExpMin= 4.38D-02 ExpMax= 5.48D+03 ExpMxC= 8.25D+02 IAcc=3 IRadAn=         5 AccDes= 0.00D+00
 Harris functional with IExCor=  402 and IRadAn=       5 diagonalized for initial guess.
 HarFok:  IExCor=  402 AccDes= 0.00D+00 IRadAn=         5 IDoV= 1 UseB2=F ITyADJ=14
 ICtDFT=  3500011 ScaDFX=  1.000000  1.000000  1.000000  1.000000
 FoFCou: FMM=F IPFlag=           0 FMFlag=      100000 FMFlg1=           0
         NFxFlg=           0 DoJE=T BraDBF=F KetDBF=T FulRan=T
         wScrn=  0.000000 ICntrl=       500 IOpCl=  0 I1Cent=   200000004 NGrid=           0
         NMat0=    1 NMatS0=      1 NMatT0=    0 NMatD0=    1 NMtDS0=    0 NMtDT0=    0
 Petite list used in FoFCou.
 Keep R1 ints in memory in canonical form, NReq=47237585.
 Requested convergence on RMS density matrix=1.00D-08 within 128 cycles.
 Requested convergence on MAX density matrix=1.00D-06.
 Requested convergence on             energy=1.00D-06.
 No special actions if energy rises.
 SCF Done:  E(RB3LYP) =  -343.352281378     A.U. after   13 cycles
            NFock= 13  Conv=0.72D-08     -V/T= 2.0086
 DoSCS=F DFT=T ScalE2(SS,OS)=  1.000000  1.000000
 Range of M.O.s used for correlation:     1   126
 NBasis=   126 NAE=    24 NBE=    24 NFC=     0 NFV=     0
 NROrb=    126 NOA=    24 NOB=    24 NVA=   102 NVB=   102

 **** Warning!!: The largest alpha MO coefficient is  0.26462751D+02

 Symmetrizing basis deriv contribution to polar:
 IMax=3 JMax=2 DiffMx= 0.00D+00
 G2DrvN: will do    13 centers at a time, making    1 passes.
 Calling FoFCou, ICntrl=  3107 FMM=F I1Cent=   0 AccDes= 0.00D+00.
 End of G2Drv F.D. properties file   721 does not exist.
 End of G2Drv F.D. properties file   722 does not exist.
 End of G2Drv F.D. properties file   788 does not exist.
          IDoAtm=111111111111
          Differentiating once with respect to electric field.
                with respect to dipole field.
          Differentiating once with respect to nuclear coordinates.
 Keep R1 ints in memory in canonical form, NReq=47193614.
          There are    39 degrees of freedom in the 1st order CPHF.  IDoFFX=6 NUNeed=     3.
     36 vectors produced by pass  0 Test12= 6.28D-15 2.56D-09 XBig12= 1.60D+02 1.05D+01.
 AX will form    36 AO Fock derivatives at one time.
     36 vectors produced by pass  1 Test12= 6.28D-15 2.56D-09 XBig12= 3.34D+01 9.44D-01.
     36 vectors produced by pass  2 Test12= 6.28D-15 2.56D-09 XBig12= 5.06D-01 1.63D-01.
     36 vectors produced by pass  3 Test12= 6.28D-15 2.56D-09 XBig12= 2.12D-03 7.21D-03.
     36 vectors produced by pass  4 Test12= 6.28D-15 2.56D-09 XBig12= 3.06D-06 2.24D-04.
     31 vectors produced by pass  5 Test12= 6.28D-15 2.56D-09 XBig12= 2.88D-09 6.64D-06.
      3 vectors produced by pass  6 Test12= 6.28D-15 2.56D-09 XBig12= 2.50D-12 2.25D-07.
      3 vectors produced by pass  7 Test12= 6.28D-15 2.56D-09 XBig12= 1.83D-15 5.08D-09.
 InvSVY:  IOpt=1 It=  1 EMax= 5.33D-15
 Solved reduced A of dimension   217 with    39 vectors.
 Isotropic polarizability for W=    0.000000       65.21 Bohr**3.
 End of Minotr F.D. properties file   721 does not exist.
 End of Minotr F.D. properties file   722 does not exist.
 End of Minotr F.D. properties file   788 does not exist.
 Calling FoFJK, ICntrl=    100127 FMM=F ISym2X=0 I1Cent= 0 IOpClX= 0 NMat=1 NMatS=1 NMatT=0.
 ***** Axes restored to original set *****
 -------------------------------------------------------------------
 Center     Atomic                   Forces (Hartrees/Bohr)
 Number     Number              X              Y              Z
 -------------------------------------------------------------------
      1        6          -0.026601924    0.004330068   -0.039260455
      2        6           0.019462497   -0.006927698   -0.003210043
      3        6          -0.001829632   -0.006940270    0.020253671
      4        8          -0.006701129    0.005209862   -0.010267956
      5        8           0.015610013    0.002595059    0.011763218
      6        8           0.022378656   -0.004438236    0.007527965
      7        1          -0.005397641   -0.000393356   -0.002966858
      8        1           0.003057853   -0.001907862    0.001142708
      9        1          -0.003069167   -0.000400739    0.016549642
     10        1          -0.001348432   -0.002386716   -0.000679729
     11        1           0.000543895    0.001358919    0.014950365
     12        1          -0.016104989    0.009900969   -0.015802527
 -------------------------------------------------------------------
 Cartesian Forces:  Max     0.039260455 RMS     0.012345320
 FormGI is forming the generalized inverse of G from B-inverse, IUseBI=4.

 GradGradGradGradGradGradGradGradGradGradGradGradGradGradGradGradGradGrad
 Berny optimization.
 Internal  Forces:  Max     0.016710219 RMS     0.005761041
 Search for a saddle point.
 Step number   2 out of a maximum of  100
 All quantities printed in internal units (Hartrees-Bohrs-Radians)
 Swapping is turned off.
 Second derivative matrix not updated -- analytic derivatives used.
 ITU=  0  0
     Eigenvalues ---   -0.05412  -0.00633  -0.00146   0.00125   0.00371
     Eigenvalues ---    0.01031   0.01194   0.01513   0.01940   0.02624
     Eigenvalues ---    0.02845   0.03294   0.04365   0.05954   0.06738
     Eigenvalues ---    0.08238   0.14360   0.15085   0.19432   0.24245
     Eigenvalues ---    0.30164   0.32009   0.33700   0.35073   0.35553
     Eigenvalues ---    0.36477   0.36903   0.43028   0.50953   0.68345
 Eigenvectors required to have negative eigenvalues:
                          R1        R3        D20       A15       D21
   1                    0.51146  -0.34221   0.32658   0.25762   0.25631
                          D22       R6        A25       A14       D23
   1                    0.22393   0.17215   0.16078  -0.15869   0.15366
 RFO step:  Lambda0=1.080049716D-02 Lambda=-1.94070574D-02.
 Linear search not attempted -- option 19 set.
 Maximum step size (   0.300) exceeded in Quadratic search.
    -- Step size scaled by   0.447
 Iteration  1 RMS(Cart)=  0.09113994 RMS(Int)=  0.01045470
 Iteration  2 RMS(Cart)=  0.01012602 RMS(Int)=  0.00325106
 Iteration  3 RMS(Cart)=  0.00015475 RMS(Int)=  0.00324977
 Iteration  4 RMS(Cart)=  0.00000052 RMS(Int)=  0.00324977
 Variable       Old X    -DE/DX   Delta X   Delta X   Delta X     New X
                                 (Linear)    (Quad)   (Total)
    R1        4.28783  -0.00204   0.00000   0.17305   0.17255   4.46039
    R2        2.57259   0.00475   0.00000  -0.01430  -0.01430   2.55829
    R3        4.27745   0.01671   0.00000   0.03698   0.03782   4.31527
    R4        2.05524  -0.00068   0.00000  -0.00560  -0.00560   2.04964
    R5        2.04687   0.00090   0.00000  -0.00344  -0.00175   2.04512
    R6        4.47646   0.00152   0.00000   0.07672   0.07524   4.55170
    R7        2.69094   0.01391   0.00000  -0.00026   0.00331   2.69426
    R8        2.02858   0.00339   0.00000   0.00445   0.00611   2.03469
    R9        2.06115   0.00664   0.00000   0.00262   0.00262   2.06377
   R10        2.31124   0.01118   0.00000   0.01652   0.01925   2.33049
   R11        2.09639   0.00187   0.00000   0.00001   0.00001   2.09640
   R12        2.70988   0.01060   0.00000   0.01080   0.01080   2.72068
   R13        1.83365   0.00384   0.00000   0.00471   0.00471   1.83835
   R14        4.19969  -0.00215   0.00000  -0.02725  -0.03146   4.16823
    A1        1.69641   0.00131   0.00000  -0.01672  -0.00891   1.68750
    A2        1.09050   0.00221   0.00000  -0.02420  -0.02218   1.06832
    A3        1.58044  -0.00051   0.00000  -0.03019  -0.02818   1.55226
    A4        2.32133  -0.00688   0.00000  -0.03078  -0.03295   2.28838
    A5        2.63347   0.00081   0.00000  -0.13373  -0.13613   2.49734
    A6        1.81774   0.00178   0.00000   0.05800   0.06127   1.87901
    A7        2.00158   0.00199   0.00000  -0.00711  -0.01806   1.98352
    A8        1.26929   0.00223   0.00000  -0.02415  -0.01575   1.25354
    A9        1.69391   0.00035   0.00000   0.07545   0.07649   1.77039
   A10        1.43753  -0.00052   0.00000  -0.04882  -0.04621   1.39132
   A11        1.95895   0.00329   0.00000   0.04478   0.04401   2.00297
   A12        1.85692   0.00391   0.00000  -0.04875  -0.04820   1.80872
   A13        2.38212  -0.01042   0.00000  -0.01222  -0.01300   2.36912
   A14        1.46279   0.00505   0.00000  -0.01426  -0.01566   1.44712
   A15        2.52064  -0.00924   0.00000   0.02304   0.02199   2.54263
   A16        2.29332  -0.00855   0.00000  -0.06443  -0.06339   2.22993
   A17        1.77435   0.00105   0.00000   0.06079   0.06153   1.83588
   A18        2.03395   0.00478   0.00000   0.00548   0.00467   2.03861
   A19        2.18322  -0.00577   0.00000   0.00561   0.00665   2.18986
   A20        2.05209   0.00233   0.00000   0.00035  -0.00006   2.05203
   A21        2.04149   0.00306   0.00000  -0.00391  -0.00458   2.03691
   A22        1.94251  -0.01455   0.00000  -0.01663  -0.01663   1.92587
   A23        1.77663  -0.00886   0.00000  -0.01192  -0.01192   1.76471
   A24        1.54554  -0.00145   0.00000   0.03393   0.03204   1.57758
   A25        2.00274  -0.00257   0.00000   0.04276   0.04089   2.04363
    D1       -2.73451   0.00193   0.00000   0.14540   0.15153  -2.58299
    D2        1.77865  -0.00539   0.00000   0.05646   0.06053   1.83918
    D3        0.02302  -0.00039   0.00000  -0.01089  -0.01130   0.01171
    D4       -1.74700  -0.00771   0.00000  -0.09983  -0.10230  -1.84931
    D5        1.72766   0.00015   0.00000   0.09160   0.09357   1.82124
    D6       -0.04236  -0.00717   0.00000   0.00267   0.00257  -0.03978
    D7       -0.39767  -0.00015   0.00000   0.07636   0.07785  -0.31982
    D8       -2.16769  -0.00747   0.00000  -0.01257  -0.01315  -2.18084
    D9        1.78162   0.00143   0.00000   0.09794   0.09300   1.87463
   D10        1.02979  -0.00637   0.00000  -0.02734  -0.01668   1.01311
   D11       -2.88889   0.00148   0.00000   0.07017   0.06887  -2.82002
   D12       -0.74120   0.00807   0.00000   0.16335   0.15976  -0.58144
   D13        1.59510  -0.00263   0.00000   0.14166   0.14083   1.73593
   D14       -0.02665   0.00042   0.00000   0.01287   0.01321  -0.01344
   D15        0.84291   0.00874   0.00000   0.18898   0.17887   1.02178
   D16       -1.54391   0.00085   0.00000   0.09075   0.09282  -1.45110
   D17        0.30063   0.00473   0.00000   0.02904   0.02827   0.32890
   D18       -0.04618   0.00095   0.00000   0.02219   0.02284  -0.02334
   D19       -3.06253   0.00446   0.00000   0.00260   0.00172  -3.06081
   D20       -1.32760  -0.00870   0.00000   0.06870   0.06898  -1.25862
   D21        1.93924  -0.00520   0.00000   0.04911   0.04786   1.98709
   D22        2.47383  -0.00739   0.00000   0.04914   0.05033   2.52416
   D23       -0.54252  -0.00389   0.00000   0.02955   0.02921  -0.51331
   D24        0.04604  -0.00112   0.00000  -0.02077  -0.02210   0.02394
   D25        0.22021  -0.00046   0.00000  -0.04975  -0.05385   0.16636
   D26        3.06307  -0.00465   0.00000  -0.00102  -0.00085   3.06222
   D27       -3.04594  -0.00399   0.00000  -0.03000  -0.03260  -3.07854
   D28       -2.70968  -0.00006   0.00000   0.19914   0.19914  -2.51054
         Item               Value     Threshold  Converged?
 Maximum Force            0.016710     0.000450     NO 
 RMS     Force            0.005761     0.000300     NO 
 Maximum Displacement     0.355373     0.001800     NO 
 RMS     Displacement     0.095623     0.001200     NO 
 Predicted change in Energy=-4.680874D-03
 GradGradGradGradGradGradGradGradGradGradGradGradGradGradGradGradGradGrad

                          Input orientation:                          
 ---------------------------------------------------------------------
 Center     Atomic      Atomic             Coordinates (Angstroms)
 Number     Number       Type             X           Y           Z
 ---------------------------------------------------------------------
      1          6           0        1.593007    1.496757   -2.381315
      2          6           0       -0.067509    0.238060   -1.272464
      3          6           0        1.061163   -0.446171   -0.733333
      4          8           0        0.911135    2.665912   -2.410811
      5          8           0        1.480046    3.600895   -1.475423
      6          8           0        2.240140   -0.205194   -1.003215
      7          1           0        0.681634    4.055555   -1.155750
      8          1           0        1.362767    0.958454   -3.294348
      9          1           0        2.649561    1.615415   -2.179231
     10          1           0        0.867357   -1.328803   -0.089832
     11          1           0       -0.399151    1.238489   -1.052321
     12          1           0       -0.841365   -0.525304   -1.377845
 ---------------------------------------------------------------------
                    Distance matrix (angstroms):
                    1          2          3          4          5
     1  C    0.000000
     2  C    2.360335   0.000000
     3  C    2.602628   1.425740   0.000000
     4  O    1.353788   2.854478   3.538573   0.000000
     5  O    2.293642   3.707394   4.135807   1.439723   0.000000
     6  O    2.283545   2.365208   1.233245   3.462778   3.909863
     7  H    2.979943   3.892056   4.537401   1.886520   0.972815
     8  H    1.084624   2.579277   2.936449   1.974847   3.210099
     9  H    1.082232   3.178334   2.977208   2.044333   2.409407
    10  H    3.709616   2.174317   1.109367   4.620239   5.157244
    11  H    2.408655   1.076711   2.252188   2.366407   3.048173
    12  H    3.319917   1.092100   2.010291   3.784460   4.735397
                    6          7          8          9         10
     6  O    0.000000
     7  H    4.539404   0.000000
     8  H    2.715355   3.824863   0.000000
     9  H    2.205733   3.297656   1.825082   0.000000
    10  H    1.995319   5.491993   3.968110   4.026197   0.000000
    11  H    3.008735   3.019049   2.865215   3.272102   3.020168
    12  H    3.120655   4.832506   3.276083   4.172705   2.285677
                   11         12
    11  H    0.000000
    12  H    1.847291   0.000000
 Stoichiometry    C3H6O3
 Framework group  C1[X(C3H6O3)]
 Deg. of freedom    30
 Full point group                 C1      NOp   1
 Largest Abelian subgroup         C1      NOp   1
 Largest concise Abelian subgroup C1      NOp   1
                         Standard orientation:                         
 ---------------------------------------------------------------------
 Center     Atomic      Atomic             Coordinates (Angstroms)
 Number     Number       Type             X           Y           Z
 ---------------------------------------------------------------------
      1          6           0       -0.426837   -0.403885    0.738656
      2          6           0        1.137456    1.214330    0.027638
      3          6           0        1.901489    0.063764   -0.326178
      4          8           0       -1.537706    0.320273    0.466061
      5          8           0       -2.209013   -0.209732   -0.692060
      6          8           0        1.557270   -1.106786   -0.146683
      7          1           0       -2.534695    0.606255   -1.109751
      8          1           0       -0.143296   -0.197668    1.765052
      9          1           0       -0.523477   -1.454454    0.497426
     10          1           0        2.929595    0.227965   -0.709231
     11          1           0        0.243581    1.583436   -0.445707
     12          1           0        1.871247    1.959181    0.342963
 ---------------------------------------------------------------------
 Rotational constants (GHZ):           6.7181860           1.9478975           1.7706251
 Standard basis: 6-31+G(d) (6D, 7F)
 There are   126 symmetry adapted cartesian basis functions of A   symmetry.
 There are   126 symmetry adapted basis functions of A   symmetry.
   126 basis functions,   216 primitive gaussians,   126 cartesian basis functions
    24 alpha electrons       24 beta electrons
       nuclear repulsion energy       233.8742646539 Hartrees.
 NAtoms=   12 NActive=   12 NUniq=   12 SFac= 1.00D+00 NAtFMM=   60 NAOKFM=F Big=F
 Integral buffers will be    131072 words long.
 Raffenetti 2 integral format.
 Two-electron integral symmetry is turned on.
 One-electron integrals computed using PRISM.
 NBasis=   126 RedAO= T EigKep=  1.68D-04  NBF=   126
 NBsUse=   126 1.00D-06 EigRej= -1.00D+00 NBFU=   126
 Initial guess from the checkpoint file:  "/scratch/bell/zhao922/YARP/paper-example/KHP-network/pp_0/TS-folder/Gau-20583.chk"
 B after Tr=     0.000000    0.000000    0.000000
         Rot=    0.997573    0.066863    0.002728    0.019258 Ang=   7.99 deg.
 ExpMin= 4.38D-02 ExpMax= 5.48D+03 ExpMxC= 8.25D+02 IAcc=3 IRadAn=         5 AccDes= 0.00D+00
 Harris functional with IExCor=  402 and IRadAn=       5 diagonalized for initial guess.
 HarFok:  IExCor=  402 AccDes= 0.00D+00 IRadAn=         5 IDoV= 1 UseB2=F ITyADJ=14
 ICtDFT=  3500011 ScaDFX=  1.000000  1.000000  1.000000  1.000000
 FoFCou: FMM=F IPFlag=           0 FMFlag=      100000 FMFlg1=           0
         NFxFlg=           0 DoJE=T BraDBF=F KetDBF=T FulRan=T
         wScrn=  0.000000 ICntrl=       500 IOpCl=  0 I1Cent=   200000004 NGrid=           0
         NMat0=    1 NMatS0=      1 NMatT0=    0 NMatD0=    1 NMtDS0=    0 NMtDT0=    0
 Petite list used in FoFCou.
 Keep R1 ints in memory in canonical form, NReq=47237585.
 Requested convergence on RMS density matrix=1.00D-08 within 128 cycles.
 Requested convergence on MAX density matrix=1.00D-06.
 Requested convergence on             energy=1.00D-06.
 No special actions if energy rises.
 SCF Done:  E(RB3LYP) =  -343.356688255     A.U. after   14 cycles
            NFock= 14  Conv=0.38D-08     -V/T= 2.0089
 DoSCS=F DFT=T ScalE2(SS,OS)=  1.000000  1.000000
 Range of M.O.s used for correlation:     1   126
 NBasis=   126 NAE=    24 NBE=    24 NFC=     0 NFV=     0
 NROrb=    126 NOA=    24 NOB=    24 NVA=   102 NVB=   102

 **** Warning!!: The largest alpha MO coefficient is  0.23767175D+02

 Symmetrizing basis deriv contribution to polar:
 IMax=3 JMax=2 DiffMx= 0.00D+00
 G2DrvN: will do    13 centers at a time, making    1 passes.
 Calling FoFCou, ICntrl=  3107 FMM=F I1Cent=   0 AccDes= 0.00D+00.
 End of G2Drv F.D. properties file   721 does not exist.
 End of G2Drv F.D. properties file   722 does not exist.
 End of G2Drv F.D. properties file   788 does not exist.
          IDoAtm=111111111111
          Differentiating once with respect to electric field.
                with respect to dipole field.
          Differentiating once with respect to nuclear coordinates.
 Keep R1 ints in memory in canonical form, NReq=47193614.
          There are    39 degrees of freedom in the 1st order CPHF.  IDoFFX=6 NUNeed=     3.
     36 vectors produced by pass  0 Test12= 6.28D-15 2.56D-09 XBig12= 1.90D+02 1.14D+01.
 AX will form    36 AO Fock derivatives at one time.
     36 vectors produced by pass  1 Test12= 6.28D-15 2.56D-09 XBig12= 4.17D+01 1.14D+00.
     36 vectors produced by pass  2 Test12= 6.28D-15 2.56D-09 XBig12= 5.81D-01 1.80D-01.
     36 vectors produced by pass  3 Test12= 6.28D-15 2.56D-09 XBig12= 2.41D-03 7.14D-03.
     36 vectors produced by pass  4 Test12= 6.28D-15 2.56D-09 XBig12= 3.48D-06 2.35D-04.
     29 vectors produced by pass  5 Test12= 6.28D-15 2.56D-09 XBig12= 3.35D-09 6.91D-06.
      3 vectors produced by pass  6 Test12= 6.28D-15 2.56D-09 XBig12= 2.97D-12 2.33D-07.
      3 vectors produced by pass  7 Test12= 6.28D-15 2.56D-09 XBig12= 2.60D-15 6.64D-09.
 InvSVY:  IOpt=1 It=  1 EMax= 7.11D-15
 Solved reduced A of dimension   215 with    39 vectors.
 Isotropic polarizability for W=    0.000000       67.16 Bohr**3.
 End of Minotr F.D. properties file   721 does not exist.
 End of Minotr F.D. properties file   722 does not exist.
 End of Minotr F.D. properties file   788 does not exist.
 Calling FoFJK, ICntrl=    100127 FMM=F ISym2X=0 I1Cent= 0 IOpClX= 0 NMat=1 NMatS=1 NMatT=0.
 ***** Axes restored to original set *****
 -------------------------------------------------------------------
 Center     Atomic                   Forces (Hartrees/Bohr)
 Number     Number              X              Y              Z
 -------------------------------------------------------------------
      1        6          -0.012728173    0.005347346   -0.028943017
      2        6           0.015959181   -0.009223498   -0.000007428
      3        6          -0.000124248   -0.003762740    0.010328500
      4        8          -0.006985913    0.002078489   -0.004141582
      5        8           0.010785441    0.002525714    0.004454408
      6        8           0.010983269   -0.000445351    0.009498407
      7        1          -0.003426151   -0.000610020   -0.000879210
      8        1           0.000885880   -0.000848087    0.000591425
      9        1          -0.003034842   -0.002338425    0.011613671
     10        1          -0.000680151   -0.002071899   -0.001312954
     11        1           0.000519376    0.000893487    0.009297794
     12        1          -0.012153670    0.008454985   -0.010500014
 -------------------------------------------------------------------
 Cartesian Forces:  Max     0.028943017 RMS     0.008334216
 FormGI is forming the generalized inverse of G from B-inverse, IUseBI=4.

 GradGradGradGradGradGradGradGradGradGradGradGradGradGradGradGradGradGrad
 Berny optimization.
 Internal  Forces:  Max     0.011818727 RMS     0.003749571
 Search for a saddle point.
 Step number   3 out of a maximum of  100
 All quantities printed in internal units (Hartrees-Bohrs-Radians)
 Swapping is turned off.
 Second derivative matrix not updated -- analytic derivatives used.
 ITU=  0  0  0
     Eigenvalues ---   -0.05619  -0.00404  -0.00036   0.00172   0.00364
     Eigenvalues ---    0.01013   0.01298   0.01570   0.01710   0.02466
     Eigenvalues ---    0.02729   0.03245   0.04237   0.06142   0.06789
     Eigenvalues ---    0.07315   0.13944   0.14682   0.19371   0.24900
     Eigenvalues ---    0.30184   0.31778   0.34022   0.34896   0.35801
     Eigenvalues ---    0.36490   0.37092   0.44727   0.50046   0.63647
 Eigenvectors required to have negative eigenvalues:
                          R1        R3        D20       D21       A15
   1                   -0.48392   0.39928  -0.30979  -0.24694  -0.24577
                          D22       A25       A14       A13       D10
   1                   -0.20493  -0.17325   0.16044  -0.15125  -0.15065
 RFO step:  Lambda0=5.447747490D-03 Lambda=-1.29542307D-02.
 Linear search not attempted -- option 19 set.
 Maximum step size (   0.300) exceeded in Quadratic search.
    -- Step size scaled by   0.510
 Iteration  1 RMS(Cart)=  0.07258793 RMS(Int)=  0.00392530
 Iteration  2 RMS(Cart)=  0.00388407 RMS(Int)=  0.00132004
 Iteration  3 RMS(Cart)=  0.00001954 RMS(Int)=  0.00131994
 Iteration  4 RMS(Cart)=  0.00000001 RMS(Int)=  0.00131994
 Variable       Old X    -DE/DX   Delta X   Delta X   Delta X     New X
                                 (Linear)    (Quad)   (Total)
    R1        4.46039  -0.00134   0.00000   0.16647   0.16622   4.62660
    R2        2.55829   0.00327   0.00000  -0.00981  -0.00981   2.54848
    R3        4.31527   0.01182   0.00000  -0.01421  -0.01622   4.29905
    R4        2.04964  -0.00027   0.00000  -0.00458  -0.00458   2.04507
    R5        2.04512   0.00007   0.00000  -0.00357  -0.00327   2.04185
    R6        4.55170   0.00099   0.00000   0.09470   0.09367   4.64537
    R7        2.69426   0.00750   0.00000  -0.01251  -0.01134   2.68292
    R8        2.03469   0.00190   0.00000   0.00341   0.00515   2.03984
    R9        2.06377   0.00372   0.00000  -0.00003  -0.00003   2.06374
   R10        2.33049   0.00490   0.00000   0.01703   0.01794   2.34844
   R11        2.09640   0.00101   0.00000  -0.00091  -0.00091   2.09549
   R12        2.72068   0.00648   0.00000   0.00729   0.00729   2.72797
   R13        1.83835   0.00224   0.00000   0.00342   0.00342   1.84177
   R14        4.16823  -0.00206   0.00000  -0.03436  -0.03311   4.13512
    A1        1.68750   0.00118   0.00000   0.00114   0.00219   1.68968
    A2        1.06832   0.00056   0.00000  -0.01960  -0.01940   1.04892
    A3        1.55226  -0.00045   0.00000  -0.03664  -0.03549   1.51677
    A4        2.28838  -0.00563   0.00000  -0.05473  -0.05732   2.23106
    A5        2.49734  -0.00095   0.00000   0.04058   0.03822   2.53556
    A6        1.87901   0.00123   0.00000   0.03199   0.03211   1.91112
    A7        1.98352   0.00138   0.00000   0.00748   0.00606   1.98958
    A8        1.25354   0.00147   0.00000   0.03176   0.03563   1.28917
    A9        1.77039   0.00111   0.00000  -0.10247  -0.10105   1.66934
   A10        1.39132  -0.00147   0.00000  -0.04919  -0.04876   1.34257
   A11        2.00297   0.00249   0.00000   0.05146   0.04932   2.05229
   A12        1.80872   0.00220   0.00000   0.02185   0.01732   1.82603
   A13        2.36912  -0.00745   0.00000  -0.12079  -0.12167   2.24745
   A14        1.44712   0.00370   0.00000  -0.02295  -0.02453   1.42259
   A15        2.54263  -0.00655   0.00000   0.00198   0.00223   2.54486
   A16        2.22993  -0.00534   0.00000  -0.05185  -0.05258   2.17735
   A17        1.83588   0.00129   0.00000   0.05510   0.05609   1.89196
   A18        2.03861   0.00250   0.00000   0.00900   0.00902   2.04763
   A19        2.18986  -0.00344   0.00000   0.00382   0.00305   2.19292
   A20        2.05203   0.00139   0.00000   0.00100   0.00144   2.05347
   A21        2.03691   0.00187   0.00000  -0.00336  -0.00311   2.03380
   A22        1.92587  -0.00857   0.00000  -0.00747  -0.00747   1.91841
   A23        1.76471  -0.00516   0.00000  -0.00832  -0.00832   1.75639
   A24        1.57758  -0.00080   0.00000   0.04057   0.03982   1.61740
   A25        2.04363  -0.00155   0.00000   0.03462   0.03271   2.07634
    D1       -2.58299   0.00206   0.00000  -0.10236  -0.10198  -2.68497
    D2        1.83918  -0.00377   0.00000  -0.16792  -0.16742   1.67176
    D3        0.01171  -0.00060   0.00000  -0.03623  -0.03687  -0.02515
    D4       -1.84931  -0.00643   0.00000  -0.10179  -0.10231  -1.95161
    D5        1.82124   0.00085   0.00000  -0.13030  -0.13032   1.69091
    D6       -0.03978  -0.00498   0.00000  -0.19587  -0.19577  -0.23555
    D7       -0.31982   0.00076   0.00000  -0.13701  -0.13668  -0.45650
    D8       -2.18084  -0.00506   0.00000  -0.20257  -0.20212  -2.38296
    D9        1.87463   0.00095   0.00000   0.06853   0.06644   1.94107
   D10        1.01311  -0.00302   0.00000   0.14469   0.14529   1.15839
   D11       -2.82002   0.00101   0.00000   0.03411   0.03331  -2.78672
   D12       -0.58144   0.00634   0.00000   0.13378   0.13445  -0.44700
   D13        1.73593  -0.00143   0.00000   0.01080   0.01244   1.74837
   D14       -0.01344   0.00068   0.00000   0.04176   0.04189   0.02845
   D15        1.02178   0.00567   0.00000  -0.05046  -0.05305   0.96873
   D16       -1.45110   0.00169   0.00000   0.03065   0.02849  -1.42261
   D17        0.32890   0.00355   0.00000   0.05948   0.05908   0.38798
   D18       -0.02334   0.00124   0.00000   0.07263   0.07247   0.04914
   D19       -3.06081   0.00320   0.00000   0.05557   0.05476  -3.00605
   D20       -1.25862  -0.00525   0.00000   0.10937   0.10901  -1.14962
   D21        1.98709  -0.00328   0.00000   0.09231   0.09129   2.07839
   D22        2.52416  -0.00431   0.00000   0.07771   0.07802   2.60217
   D23       -0.51331  -0.00234   0.00000   0.06065   0.06031  -0.45301
   D24        0.02394  -0.00133   0.00000  -0.07359  -0.07630  -0.05236
   D25        0.16636  -0.00160   0.00000  -0.04512  -0.04585   0.12052
   D26        3.06222  -0.00330   0.00000  -0.05643  -0.05853   3.00369
   D27       -3.07854  -0.00357   0.00000  -0.02796  -0.02807  -3.10662
   D28       -2.51054   0.00015   0.00000   0.12946   0.12946  -2.38108
         Item               Value     Threshold  Converged?
 Maximum Force            0.011819     0.000450     NO 
 RMS     Force            0.003750     0.000300     NO 
 Maximum Displacement     0.230107     0.001800     NO 
 RMS     Displacement     0.072394     0.001200     NO 
 Predicted change in Energy=-4.430833D-03
 GradGradGradGradGradGradGradGradGradGradGradGradGradGradGradGradGradGrad

                          Input orientation:                          
 ---------------------------------------------------------------------
 Center     Atomic      Atomic             Coordinates (Angstroms)
 Number     Number       Type             X           Y           Z
 ---------------------------------------------------------------------
      1          6           0        1.616294    1.532226   -2.370151
      2          6           0       -0.099697    0.212537   -1.226503
      3          6           0        1.045665   -0.488484   -0.765665
      4          8           0        0.907058    2.675980   -2.456939
      5          8           0        1.486595    3.680420   -1.597191
      6          8           0        2.226041   -0.191678   -1.016706
      7          1           0        0.683510    4.054792   -1.191247
      8          1           0        1.422858    0.920234   -3.241477
      9          1           0        2.646629    1.675232   -2.077849
     10          1           0        0.880962   -1.425855   -0.196599
     11          1           0       -0.359947    1.220692   -0.941765
     12          1           0       -0.917181   -0.502030   -1.343799
 ---------------------------------------------------------------------
                    Distance matrix (angstroms):
                    1          2          3          4          5
     1  C    0.000000
     2  C    2.448292   0.000000
     3  C    2.642586   1.419739   0.000000
     4  O    1.348599   2.931907   3.590745   0.000000
     5  O    2.286706   3.831441   4.273828   1.443582   0.000000
     6  O    2.274961   2.369908   1.242740   3.469502   3.984580
     7  H    2.936535   3.921425   4.577513   1.884959   0.974623
     8  H    1.082202   2.622810   2.873396   1.991028   3.213466
     9  H    1.080501   3.225922   2.994424   2.042379   2.365901
    10  H    3.743700   2.169499   1.108886   4.683468   5.329399
    11  H    2.458224   1.079435   2.219918   2.453348   3.144767
    12  H    3.407358   1.092083   2.046262   3.829709   4.830655
                    6          7          8          9         10
     6  O    0.000000
     7  H    4.521324   0.000000
     8  H    2.613629   3.817792   0.000000
     9  H    2.188212   3.209704   1.849775   0.000000
    10  H    2.001251   5.573671   3.881890   4.034034   0.000000
    11  H    2.947496   3.030374   2.925294   3.246042   3.016511
    12  H    3.175398   4.832195   3.331636   4.240288   2.324400
                   11         12
    11  H    0.000000
    12  H    1.854700   0.000000
 Stoichiometry    C3H6O3
 Framework group  C1[X(C3H6O3)]
 Deg. of freedom    30
 Full point group                 C1      NOp   1
 Largest Abelian subgroup         C1      NOp   1
 Largest concise Abelian subgroup C1      NOp   1
                         Standard orientation:                         
 ---------------------------------------------------------------------
 Center     Atomic      Atomic             Coordinates (Angstroms)
 Number     Number       Type             X           Y           Z
 ---------------------------------------------------------------------
      1          6           0       -0.454942   -0.444016    0.680703
      2          6           0        1.210771    1.223905    0.019207
      3          6           0        1.955593    0.053173   -0.281266
      4          8           0       -1.542449    0.328182    0.481307
      5          8           0       -2.297008   -0.166621   -0.645520
      6          8           0        1.544249   -1.114523   -0.173175
      7          1           0       -2.505333    0.668331   -1.103062
      8          1           0       -0.098944   -0.311848    1.694092
      9          1           0       -0.561263   -1.455390    0.315600
     10          1           0        3.020541    0.178989   -0.563553
     11          1           0        0.334368    1.550803   -0.519528
     12          1           0        1.903768    1.994443    0.363692
 ---------------------------------------------------------------------
 Rotational constants (GHZ):           6.8572738           1.8829437           1.6974271
 Standard basis: 6-31+G(d) (6D, 7F)
 There are   126 symmetry adapted cartesian basis functions of A   symmetry.
 There are   126 symmetry adapted basis functions of A   symmetry.
   126 basis functions,   216 primitive gaussians,   126 cartesian basis functions
    24 alpha electrons       24 beta electrons
       nuclear repulsion energy       232.3258179833 Hartrees.
 NAtoms=   12 NActive=   12 NUniq=   12 SFac= 1.00D+00 NAtFMM=   60 NAOKFM=F Big=F
 Integral buffers will be    131072 words long.
 Raffenetti 2 integral format.
 Two-electron integral symmetry is turned on.
 One-electron integrals computed using PRISM.
 NBasis=   126 RedAO= T EigKep=  1.64D-04  NBF=   126
 NBsUse=   126 1.00D-06 EigRej= -1.00D+00 NBFU=   126
 Initial guess from the checkpoint file:  "/scratch/bell/zhao922/YARP/paper-example/KHP-network/pp_0/TS-folder/Gau-20583.chk"
 B after Tr=    -0.000000   -0.000000   -0.000000
         Rot=    0.999896   -0.012381   -0.001392    0.007201 Ang=  -1.65 deg.
 ExpMin= 4.38D-02 ExpMax= 5.48D+03 ExpMxC= 8.25D+02 IAcc=3 IRadAn=         5 AccDes= 0.00D+00
 Harris functional with IExCor=  402 and IRadAn=       5 diagonalized for initial guess.
 HarFok:  IExCor=  402 AccDes= 0.00D+00 IRadAn=         5 IDoV= 1 UseB2=F ITyADJ=14
 ICtDFT=  3500011 ScaDFX=  1.000000  1.000000  1.000000  1.000000
 FoFCou: FMM=F IPFlag=           0 FMFlag=      100000 FMFlg1=           0
         NFxFlg=           0 DoJE=T BraDBF=F KetDBF=T FulRan=T
         wScrn=  0.000000 ICntrl=       500 IOpCl=  0 I1Cent=   200000004 NGrid=           0
         NMat0=    1 NMatS0=      1 NMatT0=    0 NMatD0=    1 NMtDS0=    0 NMtDT0=    0
 Petite list used in FoFCou.
 Keep R1 ints in memory in canonical form, NReq=47237585.
 Requested convergence on RMS density matrix=1.00D-08 within 128 cycles.
 Requested convergence on MAX density matrix=1.00D-06.
 Requested convergence on             energy=1.00D-06.
 No special actions if energy rises.
 SCF Done:  E(RB3LYP) =  -343.360999027     A.U. after   14 cycles
            NFock= 14  Conv=0.40D-08     -V/T= 2.0090
 DoSCS=F DFT=T ScalE2(SS,OS)=  1.000000  1.000000
 Range of M.O.s used for correlation:     1   126
 NBasis=   126 NAE=    24 NBE=    24 NFC=     0 NFV=     0
 NROrb=    126 NOA=    24 NOB=    24 NVA=   102 NVB=   102

 **** Warning!!: The largest alpha MO coefficient is  0.22443782D+02

 Symmetrizing basis deriv contribution to polar:
 IMax=3 JMax=2 DiffMx= 0.00D+00
 G2DrvN: will do    13 centers at a time, making    1 passes.
 Calling FoFCou, ICntrl=  3107 FMM=F I1Cent=   0 AccDes= 0.00D+00.
 End of G2Drv F.D. properties file   721 does not exist.
 End of G2Drv F.D. properties file   722 does not exist.
 End of G2Drv F.D. properties file   788 does not exist.
          IDoAtm=111111111111
          Differentiating once with respect to electric field.
                with respect to dipole field.
          Differentiating once with respect to nuclear coordinates.
 Keep R1 ints in memory in canonical form, NReq=47193614.
          There are    39 degrees of freedom in the 1st order CPHF.  IDoFFX=6 NUNeed=     3.
     36 vectors produced by pass  0 Test12= 6.28D-15 2.56D-09 XBig12= 2.27D+02 1.24D+01.
 AX will form    36 AO Fock derivatives at one time.
     36 vectors produced by pass  1 Test12= 6.28D-15 2.56D-09 XBig12= 5.22D+01 1.35D+00.
     36 vectors produced by pass  2 Test12= 6.28D-15 2.56D-09 XBig12= 6.85D-01 1.88D-01.
     36 vectors produced by pass  3 Test12= 6.28D-15 2.56D-09 XBig12= 2.94D-03 8.03D-03.
     36 vectors produced by pass  4 Test12= 6.28D-15 2.56D-09 XBig12= 4.29D-06 2.99D-04.
     31 vectors produced by pass  5 Test12= 6.28D-15 2.56D-09 XBig12= 4.56D-09 7.59D-06.
      4 vectors produced by pass  6 Test12= 6.28D-15 2.56D-09 XBig12= 4.47D-12 2.74D-07.
      2 vectors produced by pass  7 Test12= 6.28D-15 2.56D-09 XBig12= 3.78D-15 9.24D-09.
 InvSVY:  IOpt=1 It=  1 EMax= 8.88D-15
 Solved reduced A of dimension   217 with    39 vectors.
 Isotropic polarizability for W=    0.000000       69.23 Bohr**3.
 End of Minotr F.D. properties file   721 does not exist.
 End of Minotr F.D. properties file   722 does not exist.
 End of Minotr F.D. properties file   788 does not exist.
 Calling FoFJK, ICntrl=    100127 FMM=F ISym2X=0 I1Cent= 0 IOpClX= 0 NMat=1 NMatS=1 NMatT=0.
 ***** Axes restored to original set *****
 -------------------------------------------------------------------
 Center     Atomic                   Forces (Hartrees/Bohr)
 Number     Number              X              Y              Z
 -------------------------------------------------------------------
      1        6          -0.006018848    0.005104769   -0.020658105
      2        6           0.011786890   -0.010215818    0.002117896
      3        6           0.000455731   -0.003742932    0.003413000
      4        8          -0.004571822   -0.000054672   -0.001105185
      5        8           0.006239399    0.002272772    0.001682874
      6        8           0.005178702    0.001787855    0.009057189
      7        1          -0.001774775   -0.000414715   -0.000355740
      8        1           0.000457956   -0.001068906    0.000561676
      9        1          -0.002902743   -0.001195050    0.007792949
     10        1          -0.000339542   -0.001791707   -0.002104466
     11        1           0.001068920    0.000323520    0.004886696
     12        1          -0.009579870    0.008994882   -0.005288783
 -------------------------------------------------------------------
 Cartesian Forces:  Max     0.020658105 RMS     0.005899679
 FormGI is forming the generalized inverse of G from B-inverse, IUseBI=4.

 GradGradGradGradGradGradGradGradGradGradGradGradGradGradGradGradGradGrad
 Berny optimization.
 Internal  Forces:  Max     0.007292048 RMS     0.002341316
[...]
 --------------------------                            --------------------------
 ! Name  Definition              Value          Derivative Info.                !
 --------------------------------------------------------------------------------
 ! R1    R(1,2)                  2.7267         -DE/DX =    0.0                 !
 ! R2    R(1,4)                  1.315          -DE/DX =    0.0                 !
 ! R3    R(1,6)                  2.311          -DE/DX =    0.0                 !
 ! R4    R(1,8)                  1.0793         -DE/DX =    0.0                 !
 ! R5    R(1,9)                  1.0792         -DE/DX =    0.0                 !
 ! R6    R(1,11)                 2.5105         -DE/DX =    0.0                 !
 ! R7    R(2,3)                  1.3851         -DE/DX =    0.0                 !
 ! R8    R(2,11)                 1.0869         -DE/DX =    0.0                 !
 ! R9    R(2,12)                 1.0872         -DE/DX =    0.0                 !
 ! R10   R(3,6)                  1.2748         -DE/DX =    0.0                 !
 ! R11   R(3,10)                 1.1054         -DE/DX =    0.0                 !
 ! R12   R(4,5)                  1.458          -DE/DX =    0.0                 !
 ! R13   R(5,7)                  0.9774         -DE/DX =    0.0                 !
 ! R14   R(6,9)                  2.2239         -DE/DX =    0.0                 !
 ! A1    A(2,1,4)               96.5127         -DE/DX =    0.0                 !
 ! A2    A(2,1,6)               55.0793         -DE/DX =    0.0                 !
 ! A3    A(2,1,8)               81.9357         -DE/DX =    0.0                 !
 ! A4    A(2,1,9)              112.5645         -DE/DX =    0.0                 !
 ! A5    A(4,1,6)              149.747          -DE/DX =    0.0                 !
 ! A6    A(4,1,8)              113.3554         -DE/DX =    0.0                 !
 ! A7    A(4,1,9)              117.4685         -DE/DX =    0.0                 !
 ! A8    A(4,1,11)              82.3241         -DE/DX =    0.0                 !
 ! A9    A(6,1,8)               76.0159         -DE/DX =    0.0                 !
 ! A10   A(6,1,11)              67.4231         -DE/DX =    0.0                 !
 ! A11   A(8,1,9)              124.2849         -DE/DX =    0.0                 !
 ! A12   A(8,1,11)             104.7189         -DE/DX =    0.0                 !
 ! A13   A(9,1,11)             103.1515         -DE/DX =    0.0                 !
 ! A14   A(1,2,3)               76.8145         -DE/DX =    0.0                 !
 ! A15   A(1,2,12)             144.262          -DE/DX =    0.0                 !
 ! A16   A(3,2,11)             118.495          -DE/DX =    0.0                 !
 ! A17   A(3,2,12)             121.2666         -DE/DX =    0.0                 !
 ! A18   A(11,2,12)            117.063          -DE/DX =    0.0                 !
 ! A19   A(2,3,6)              124.8475         -DE/DX =    0.0                 !
 ! A20   A(2,3,10)             118.4713         -DE/DX =    0.0                 !
 ! A21   A(6,3,10)             116.6803         -DE/DX =    0.0                 !
 ! A22   A(1,4,5)              109.8137         -DE/DX =    0.0                 !
 ! A23   A(4,5,7)               99.3588         -DE/DX =    0.0                 !
 ! A24   A(1,6,3)               96.4791         -DE/DX =    0.0                 !
 ! A25   A(3,6,9)              119.9824         -DE/DX =    0.0                 !
 ! D1    D(4,1,2,3)            177.7026         -DE/DX =    0.0                 !
 ! D2    D(4,1,2,12)            51.7515         -DE/DX =    0.0                 !
 ! D3    D(6,1,2,3)            -13.5905         -DE/DX =    0.0                 !
 ! D4    D(6,1,2,12)          -139.5416         -DE/DX =    0.0                 !
 ! D5    D(8,1,2,3)             64.946          -DE/DX =    0.0                 !
 ! D6    D(8,1,2,12)           -61.0051         -DE/DX =    0.0                 !
 ! D7    D(9,1,2,3)            -58.918          -DE/DX =    0.0                 !
 ! D8    D(9,1,2,12)           175.1309         -DE/DX =    0.0                 !
 ! D9    D(2,1,4,5)            114.1699         -DE/DX =    0.0                 !
 ! D10   D(6,1,4,5)             95.5853         -DE/DX =    0.0                 !
 ! D11   D(8,1,4,5)           -161.8285         -DE/DX =    0.0                 !
 ! D12   D(9,1,4,5)             -5.4759         -DE/DX =    0.0                 !
 ! D13   D(11,1,4,5)            95.4003         -DE/DX =    0.0                 !
 ! D14   D(2,1,6,3)             14.4884         -DE/DX =    0.0                 !
 ! D15   D(4,1,6,3)             37.2054         -DE/DX =    0.0                 !
 ! D16   D(8,1,6,3)            -75.371          -DE/DX =    0.0                 !
 ! D17   D(11,1,6,3)            37.404          -DE/DX =    0.0                 !
 ! D18   D(1,2,3,6)             25.1893         -DE/DX =    0.0                 !
 ! D19   D(1,2,3,10)          -154.4629         -DE/DX =    0.0                 !
 ! D20   D(11,2,3,6)           -29.124          -DE/DX =    0.0                 !
 ! D21   D(11,2,3,10)          151.2239         -DE/DX =    0.0                 !
 ! D22   D(12,2,3,6)           171.6049         -DE/DX =    0.0                 !
 ! D23   D(12,2,3,10)           -8.0473         -DE/DX =    0.0                 !
 ! D24   D(2,3,6,1)            -29.4774         -DE/DX =    0.0                 !
 ! D25   D(2,3,6,9)            -14.4064         -DE/DX =    0.0                 !
 ! D26   D(10,3,6,1)           150.1803         -DE/DX =    0.0                 !
 ! D27   D(10,3,6,9)           165.2514         -DE/DX =    0.0                 !
 ! D28   D(1,4,5,7)           -146.0582         -DE/DX =    0.0                 !
 --------------------------------------------------------------------------------
 GradGradGradGradGradGradGradGradGradGradGradGradGradGradGradGradGradGrad


 ----------------------------------------------------------------------

 Electric dipole moment (input orientation):
 (Debye = 10**-18 statcoulomb cm , SI units = C m)
                  (au)            (Debye)         (10**-30 SI)
   Tot        0.170547D+01      0.433488D+01      0.144596D+02
   x         -0.606877D+00     -0.154253D+01     -0.514532D+01
   y          0.146227D+01      0.371672D+01      0.123976D+02
   z         -0.634126D+00     -0.161179D+01     -0.537635D+01

 Dipole polarizability, Alpha (input orientation).
 (esu units = cm**3 , SI units = C**2 m**2 J**-1)
 Alpha(0;0):
               (au)            (10**-24 esu)      (10**-40 SI)
   iso        0.757460D+02      0.112244D+02      0.124888D+02
   aniso      0.648829D+02      0.961466D+01      0.106978D+02
   xx         0.682833D+02      0.101185D+02      0.112584D+02
   yx         0.108294D+02      0.160474D+01      0.178552D+01
   yy         0.105660D+03      0.156572D+02      0.174209D+02
   zx        -0.904096D+01     -0.133973D+01     -0.149065D+01
   zy        -0.218395D+02     -0.323627D+01     -0.360084D+01
   zz         0.532949D+02      0.789749D+01      0.878714D+01

 ----------------------------------------------------------------------

 Dipole orientation:
     6          5.18669677          1.52767941          3.08588095
     6          0.47504870          1.49876802          1.00015182
     6          2.04775262          1.71754432         -1.08062487
     8          4.44660653          1.41933867          5.45554067
     8          5.23604982         -0.97257627          6.57207118
     8          4.33619882          0.96948094         -1.16107182
     1          3.81113147         -1.25656005          7.71233731
     1          5.19766638          3.42122765          2.32798295
     1          6.35740128          0.00721133          2.39558637
     1          1.29211333          2.61247140         -2.81035679
     1          0.78464565         -0.05853608          2.30300576
     1         -1.37185603          2.39776809          1.04005872

 Electric dipole moment (dipole orientation):
 (Debye = 10**-18 statcoulomb cm , SI units = C m)
                  (au)            (Debye)         (10**-30 SI)
   Tot        0.170547D+01      0.433488D+01      0.144596D+02
   x          0.000000D+00      0.000000D+00      0.000000D+00
   y          0.000000D+00      0.000000D+00      0.000000D+00
   z          0.170547D+01      0.433488D+01      0.144596D+02

 Dipole polarizability, Alpha (dipole orientation).
 (esu units = cm**3 , SI units = C**2 m**2 J**-1)
 Alpha(0;0):
               (au)            (10**-24 esu)      (10**-40 SI)
   iso        0.757460D+02      0.112244D+02      0.124888D+02
   aniso      0.648829D+02      0.961466D+01      0.106978D+02
   xx         0.819036D+02      0.121369D+02      0.135041D+02
   yx        -0.665048D+01     -0.985499D+00     -0.109652D+01
   yy         0.467224D+02      0.692354D+01      0.770348D+01
   zx         0.230908D+02      0.342170D+01      0.380716D+01
   zy        -0.111482D+02     -0.165199D+01     -0.183809D+01
   zz         0.986120D+02      0.146128D+02      0.162589D+02

 ----------------------------------------------------------------------
 1\1\GINC-BELL-A064\Freq\RB3LYP\6-31+G(d)\C3H6O3\ZHAO922\23-Dec-2020\0\
 \#N Geom=AllCheck Guess=TCheck SCRF=Check GenChk RB3LYP/6-31+G(d) Freq
 \\pp_1_0 TS\\0,1\C,1.7304671487,1.6353337471,-2.2769702009\C,-0.136540
 7113,0.1415917901,-0.9662535759\C,0.984948395,-0.6711267032,-0.9522512
 659\O,0.9415149786,2.6499903171,-2.5547020818\O,1.3919706293,3.8369460
 395,-1.8377952459\O,2.1873524368,-0.2545721461,-1.027935896\H,0.526242
 7355,4.2563491089,-1.6649877426\H,1.6555976317,0.8276958552,-2.9890443
 077\H,2.6017239625,1.8333479959,-1.671737509\H,0.8423787684,-1.7646591
 52,-0.8756659879\H,-0.0498820164,1.1516296203,-0.5743261677\H,-1.13698
 79587,-0.2784614728,-1.0342180186\\Version=ES64L-G16RevB.01\State=1-A\
 HF=-343.3727233\RMSD=3.566e-09\RMSF=2.205e-07\ZeroPoint=0.0875637\Ther
 mal=0.0950339\Dipole=-0.6068771,1.4622684,-0.6341264\DipoleDeriv=0.472
 0082,-0.4578761,0.1546075,0.1871551,1.6807582,-0.7066519,-0.1390775,-0
 .8443565,0.5953158,-0.2941167,0.2598594,-0.0179529,0.1353131,-0.553788
 5,0.3297814,-0.0227931,0.2900457,-0.5663455,0.6901031,-0.7936441,0.421
 8995,0.0446044,0.6205482,-0.0755954,0.0400995,0.02993,-0.0441247,0.000
 0318,1.1029476,-0.4978905,-0.3131284,-0.8375594,0.5041685,0.1700483,0.
 6755186,-0.3416479,-0.093415,-0.1290657,0.1044921,0.0043526,-0.8320672
 ,0.2040226,0.0340551,-0.1673035,-0.2706268,-1.1296726,0.5507499,-0.258
 8941,0.1350706,-0.2571387,-0.1578875,-0.0758252,0.091893,-0.405932,0.1
 705052,-0.1389023,0.0158472,-0.0149926,0.4119721,-0.0596397,-0.0008587
 ,-0.0290507,0.3453918,0.0330281,-0.1905382,0.0846731,-0.0306695,-0.024
 2281,0.0865395,0.0012883,0.1575173,0.0458323,0.1739043,0.0072544,-0.00
 42621,0.0106963,0.0477818,-0.025575,-0.0284294,0.0768423,0.1001226,0.0
 661124,-0.0915988,0.0167091,-0.0701695,-0.2823471,0.0556295,-0.0626444
 ,-0.1564689,0.2170233,-0.0020393,-0.0682928,-0.0233061,0.030434,0.0265
 799,-0.1401232,-0.0393356,-0.2085906,0.1853876,-0.0864493,-0.0508934,0
 .0040772,-0.1186662,-0.0005113,-0.0146688,0.1234728,0.0840233,0.139603
 5\Polar=68.2832611,10.8293539,105.6598118,-9.0409584,-21.8394513,53.29
 49069\Quadrupole=-1.7101336,3.1544103,-1.4442767,-0.5340712,-1.6584508
 ,2.3512927\PG=C01 [X(C3H6O3)]\NImag=1\\0.48939577,-0.06912353,0.558302
 36,0.24005958,0.23936992,0.42153925,-0.00268369,0.00719441,-0.00794266
 ,0.69903711,0.02566609,0.00551932,0.00394504,-0.03510400,0.57806997,-0
 .00592827,-0.00677031,-0.00456490,0.02758869,0.13882163,0.10904459,0.0
 5332208,-0.00710612,0.00683200,-0.26072573,0.08237606,0.02602673,0.666
 46372,-0.01014658,-0.01109436,0.00490231,0.14903065,-0.21504785,-0.014
 24491,-0.00001337,0.66108623,0.00593277,0.00391191,-0.00370618,-0.0073
 4107,-0.01189522,-0.04794499,-0.02454241,-0.02328328,0.17153532,-0.213
 71086,0.10711069,-0.08458501,0.00006976,0.00197046,0.00062871,0.002085
 03,0.00091333,-0.00156717,0.28841161,0.17282725,-0.21955184,0.02274591
 ,0.00140574,-0.01559870,0.00733630,-0.03165985,-0.00225048,0.00424992,
 -0.15165908,0.39623875,-0.08697731,0.01758086,-0.08413404,-0.00049776,
 0.01048661,-0.00259294,0.02407632,-0.00098331,-0.00229750,0.12838901,0
 .05219187,0.14618879,0.01783947,0.02406828,0.03071444,0.00133945,-0.00
 287012,0.00020811,-0.00441779,0.00089489,-0.00034127,-0.09119981,-0.00
 932436,-0.04243040,0.48848783,-0.00473607,-0.06092517,-0.02323385,0.00
 116950,-0.00430375,-0.00100729,-0.00305043,0.00350082,-0.00091640,-0.0
 2585570,-0.11933525,-0.06749455,-0.15111714,0.27246493,0.00726579,-0.0
 0634625,0.00313566,-0.00060354,-0.00025252,-0.00006464,0.00207281,0.00
 107173,-0.00012026,-0.05068991,-0.07461578,-0.06963584,-0.02917452,0.1
 2581497,0.08287860,-0.03009401,-0.00775986,0.00935438,-0.08888104,0.02
 364390,-0.02029168,-0.40195817,-0.12875906,0.02013965,-0.00069141,0.01
 438638,-0.01273320,0.00296705,0.00385900,-0.00002258,0.53659876,-0.030
 21937,-0.00123886,-0.00993445,0.00656746,0.05439562,-0.00482047,-0.057
 20588,-0.14294378,0.01210985,0.00172930,0.01812675,-0.01071686,0.00123
 321,-0.00099248,-0.00150845,0.11969351,0.10104858,0.01087459,-0.009392
 53,-0.00422024,0.00503937,-0.00712498,0.01636139,-0.00060858,0.0068377
 3,-0.06025202,-0.00432886,-0.00464613,0.00674489,-0.00056925,0.0037048
 3,0.00212374,-0.02204626,-0.00546450,0.03564642,-0.00309565,-0.0000129
 5,-0.00516136,-0.00013143,-0.00076543,0.00015841,-0.00092051,0.0003411
 5,0.00005635,0.01875649,-0.02233949,-0.00787012,-0.41246613,0.18513640
 ,0.07293905,0.00059424,0.00034416,0.00048890,0.39639732,0.00047746,-0.
 01020145,-0.00607030,-0.00038765,0.00053785,-0.00059802,0.00161390,-0.
 00005514,-0.00001869,0.03142313,-0.02235960,-0.00672432,0.12953530,-0.
 09761546,-0.04767829,-0.00113127,-0.00024010,0.00017856,-0.16166119,0.
 13097376,-0.00226008,-0.00300734,-0.00306646,-0.00000820,0.00064909,-0
 .00016513,0.00052025,-0.00008215,-0.00006132,0.01975757,-0.01613636,-0
 .00647520,0.04375826,-0.04049866,-0.02134181,-0.00016591,-0.00030804,0
 .00002557,-0.06178307,0.06004705,0.02995089,-0.04233646,-0.01725881,-0
 .03407687,-0.00082015,-0.00450692,0.00284988,-0.00425217,-0.00052810,0
 .00186988,0.00621217,0.02319629,0.01563717,-0.00362850,-0.00343687,-0.
 00351063,0.00173813,0.00395771,0.00100206,0.00033482,0.00052889,0.0001
 3693,0.03661248,-0.01875266,-0.20951634,-0.16845858,0.00132602,-0.0029
 3089,0.00267802,-0.00558701,-0.00208938,0.00486578,0.00244455,-0.02889
 508,-0.01223223,0.00644142,0.00272839,0.00016641,0.00271934,-0.0009420
 4,0.00322097,-0.00105325,-0.00113495,-0.00053841,0.01089666,0.24035565
 ,-0.02830849,-0.18278115,-0.18673440,-0.00018142,0.00169944,-0.0016713
 0,0.00323042,0.00185121,-0.00197834,-0.00048759,0.00803770,0.00410449,
 -0.00299601,0.00532797,0.00519219,-0.00267395,0.00005514,-0.00349131,0
 .00087188,0.00090072,0.00113128,0.02920397,0.17157205,0.18377063,-0.26
 007344,-0.04091140,-0.15375403,-0.00150961,0.00375277,-0.00073975,0.00
 888044,-0.00149044,-0.00077598,-0.01287696,0.00441963,-0.01773503,0.00
 090045,-0.00217856,0.00218134,-0.00184560,-0.00422689,0.00362667,0.000
 55176,-0.00043276,-0.00001973,0.00662539,0.00201735,0.00107853,0.26062
 623,-0.06338929,-0.05085363,-0.06031101,-0.00008856,0.00204479,0.00036
 151,0.00420933,-0.00134831,-0.00040985,0.03384392,-0.00585269,0.014902
 75,0.00081525,0.00411275,0.00346240,-0.00076239,-0.01189575,0.00680564
 ,0.00006054,0.00000108,0.00001639,-0.01319116,0.00199598,-0.00627388,0
 .03934434,0.06187024,-0.14448226,-0.05677327,-0.13538044,0.00151027,-0
 .00494537,0.00077275,-0.01066439,0.00356518,0.00020148,-0.00842603,0.0
 0531486,0.00693007,0.00062050,-0.00296406,-0.00229788,0.00400429,0.013
 20989,-0.00738883,0.00038618,-0.00065048,-0.00012114,-0.01192314,0.000
 59863,-0.00179811,0.16661624,0.04179629,0.13760910,-0.00510268,0.00277
 854,-0.00126166,0.00558759,0.02409445,0.00162998,-0.04911618,-0.014201
 53,-0.00466086,0.00219218,0.00021686,-0.00123057,0.00008330,0.00007968
 ,-0.00015084,-0.01684399,-0.04404277,0.00707706,-0.00006352,0.00000429
 ,0.00005669,-0.00029859,-0.00044326,0.00037966,-0.00058339,-0.00054399
 ,0.00143793,0.06629285,-0.00231745,0.00207681,-0.00225636,-0.00310275,
 -0.01628974,-0.00010763,-0.00389565,-0.28065568,0.01699980,0.00138141,
 -0.00078443,0.00033709,-0.00013478,-0.00039544,-0.00004382,-0.02338446
 ,-0.01449740,0.00325813,-0.00010731,0.00017322,-0.00000836,-0.00019798
 ,-0.00010692,0.00006519,-0.00020603,-0.00020307,0.00081847,0.02895068,
 0.31168189,-0.00162401,0.00645269,-0.00132156,0.00237083,0.00077411,0.
 01027454,-0.01079707,0.01664711,-0.05275457,0.00355372,-0.00555568,0.0
 0164085,0.00005615,0.00020659,-0.00011181,0.01338240,0.00390745,0.0103
 2764,-0.00028671,0.00016905,0.00011426,-0.00149615,-0.00160884,0.00149
 461,-0.00046940,-0.00033330,0.00128216,-0.00283437,-0.01996986,0.02576
 206,-0.00178329,0.00051026,-0.00082072,-0.05529699,-0.01939896,-0.0111
 1885,0.00486760,0.02135772,0.01051999,0.00028094,-0.00179563,0.0017498
 9,0.00017517,0.00045979,-0.00023332,0.00252103,-0.00144298,-0.00035600
 ,0.00008839,0.00000293,0.00000597,-0.00008901,0.00002302,0.00000698,-0
 .00068123,-0.00034838,0.00096548,-0.00254958,0.00224388,-0.00188558,0.
 05072044,-0.00299725,-0.00281657,0.00139152,-0.02169987,-0.28609222,-0
 .10792959,0.00510677,-0.02059350,-0.00671764,-0.00289906,0.00139609,0.
 00124912,0.00043595,0.00077448,-0.00019414,-0.00642879,-0.00155355,0.0
 0403031,0.00016140,-0.00025386,-0.00001143,0.00066252,0.00063383,-0.00
 048406,-0.00028648,-0.00001250,0.00019044,0.00366995,-0.00156278,-0.00
 084704,0.02299765,0.31706352,0.01176830,0.00163368,-0.00644790,-0.0068
 4784,-0.12658384,-0.05636525,-0.02693078,0.00374669,0.00281927,-0.0007
 3951,-0.00405193,0.00352547,-0.00003635,0.00053058,0.00015534,0.012122
 85,0.01167186,-0.00677704,-0.00006850,0.00052807,0.00004943,-0.0006692
 1,-0.00080873,0.00024713,0.00036375,0.00035636,-0.00017719,-0.00009516
 ,0.00165676,0.00539241,0.01022595,0.11196519,0.05765108,-0.00167725,0.
 00051049,0.00064191,-0.29598526,-0.09885831,-0.02101197,-0.01422834,-0
 .01739865,0.00071013,0.00047085,0.00032627,-0.00037799,-0.00008050,-0.
 00032958,-0.00007365,-0.00410498,0.00361254,-0.00019969,-0.00004578,0.
 00002696,0.00000132,-0.00009812,-0.00003218,-0.00012396,-0.00001404,0.
 00005037,-0.00004509,0.00040201,0.00077041,0.00003020,0.00174654,0.001
 27722,0.00090650,0.31361486,0.00271140,0.00029972,-0.00209014,-0.10631
 095,-0.10030442,-0.01371924,0.01521225,0.01149143,0.00110381,-0.000402
 94,-0.00113350,0.00140296,0.00002211,-0.00001381,0.00012376,0.00392369
 ,0.00073302,-0.00140803,-0.00010403,0.00017464,-0.00012179,-0.00012223
 ,-0.00009825,0.00002966,0.00019845,0.00014111,-0.00016057,-0.00056291,
 0.00056355,0.00015774,-0.02460931,-0.00698293,-0.00064469,0.11004447,0
 .09512945,-0.00632059,-0.00387822,0.00490121,-0.01308668,-0.00557399,-
 0.02308412,0.01078471,-0.00002830,-0.00544088,-0.00150492,0.00512932,-
 0.00399905,0.00019035,0.00052987,0.00008670,-0.00106998,-0.00820143,0.
 01089979,0.00026899,-0.00008334,-0.00004037,0.00097612,0.00054494,-0.0
 0026687,-0.00037261,-0.00037329,0.00036804,-0.00034785,-0.00074941,-0.
 00210060,-0.00905981,-0.00264269,-0.00007274,0.01954228,0.01532654,0.0
 1874887\\0.00000012,-0.00000015,0.00000010,-0.00000024,0.00000001,-0.0
 0000012,0.00000007,-0.00000002,0.00000017,0.00000030,-0.00000019,-0.00
 000023,0.,0.00000005,-0.00000020,-0.00000005,0.00000020,0.00000047,-0.
 00000004,0.,-0.00000048,0.00000030,-0.00000020,0.00000023,0.00000009,0
 .00000003,0.00000040,-0.00000009,0.00000007,0.00000030,-0.00000037,0.0
 0000016,-0.00000020,-0.00000009,0.00000006,-0.00000044\\\@


 BE LIKE A POSTAGE STAMP.  STICK TO ONE THING UNTIL
 YOU GET THERE -- JOSH BILLINGS
 Job cpu time:       0 days  0 hours  3 minutes 44.0 seconds.
 Elapsed time:       0 days  0 hours  0 minutes 15.7 seconds.
 File lengths (MBytes):  RWF=     28 Int=      0 D2E=      0 Chk=      3 Scr=      1
 Normal termination of Gaussian 16 at Wed Dec 23 23:11:09 2020.
