 Entering Gaussian System, Link 0=g16
 Initial command:
 /apps/cent7/gaussian/g16-B.01/g16-haswell/g16/l1.exe "/scratch/bell/zhao922/YARP/paper-example/KHP-network/pp_0/TS-folder/Gau-3838.inp" -scrdir="/scratch/bell/zhao922/YARP/paper-example/KHP-network/pp_0/TS-folder/"
 Entering Link 1 = /apps/cent7/gaussian/g16-B.01/g16-haswell/g16/l1.exe PID=      3841.
  
 Copyright (c) 1988-2017, Gaussian, Inc.  All Rights Reserved.
  
 This is part of the Gaussian(R) 16 program.  It is based on
 the Gaussian(R) 09 system (copyright 2009, Gaussian, Inc.),
 the Gaussian(R) 03 system (copyright 2003, Gaussian, Inc.),
 the Gaussian(R) 98 system (copyright 1998, Gaussian, Inc.),
 the Gaussian(R) 94 system (copyright 1995, Gaussian, Inc.),
 the Gaussian 92(TM) system (copyright 1992, Gaussian, Inc.),
 the Gaussian 90(TM) system (copyright 1990, Gaussian, Inc.),
 the Gaussian 88(TM) system (copyright 1988, Gaussian, Inc.),
 the Gaussian 86(TM) system (copyright 1986, Carnegie Mellon
 University), and the Gaussian 82(TM) system (copyright 1983,
 Carnegie Mellon University). Gaussian is a federally registered
 trademark of Gaussian, Inc.
  
 This software contains proprietary and confidential information,
 including trade secrets, belonging to Gaussian, Inc.
  
 This software is provided under written license and may be
 used, copied, transmitted, or stored only in accord with that
 written license.
  
 The following legend is applicable only to US Government
 contracts under FAR:
  
                    RESTRICTED RIGHTS LEGEND
  
 Use, reproduction and disclosure by the US Government is
 subject to restrictions as set forth in subparagraphs (a)
 and (c) of the Commercial Computer Software - Restricted
 Rights clause in FAR 52.227-19.
  
 Gaussian, Inc.
 340 Quinnipiac St., Bldg. 40, Wallingford CT 06492
  
  
 ---------------------------------------------------------------
 Warning -- This program may not be used in any manner that
 competes with the business of Gaussian, Inc. or will provide
 assistance to any competitor of Gaussian, Inc.  The licensee
 of this program is prohibited from giving any competitor of
 Gaussian, Inc. access to this program.  By using this program,
 the user acknowledges that Gaussian, Inc. is engaged in the
 business of creating and licensing software in the field of
 computational chemistry and represents and warrants to the
 licensee that it is not a competitor of Gaussian, Inc. and that
 it will not use this program in any manner prohibited above.
 ---------------------------------------------------------------
  

 Cite this work as:
 Gaussian 16, Revision B.01,
 M. J. Frisch, G. W. Trucks, H. B. Schlegel, G. E. Scuseria, 
 M. A. Robb, J. R. Cheeseman, G. Scalmani, V. Barone, 
 G. A. Petersson, H. Nakatsuji, X. Li, M. Caricato, A. V. Marenich, 
 J. Bloino, B. G. Janesko, R. Gomperts, B. Mennucci, H. P. Hratchian, 
 J. V. Ortiz, A. F. Izmaylov, J. L. Sonnenberg, D. Williams-Young, 
 F. Ding, F. Lipparini, F. Egidi, J. Goings, B. Peng, A. Petrone, 
 T. Henderson, D. Ranasinghe, V. G. Zakrzewski, J. Gao, N. Rega, 
 G. Zheng, W. Liang, M. Hada, M. Ehara, K. Toyota, R. Fukuda, 
 J. Hasegawa, M. Ishida, T. Nakajima, Y. Honda, O. Kitao, H. Nakai, 
 T. Vreven, K. Throssell, J. A. Montgomery, Jr., J. E. Peralta, 
 F. Ogliaro, M. J. Bearpark, J. J. Heyd, E. N. Brothers, K. N. Kudin, 
 V. N. Staroverov, T. A. Keith, R. Kobayashi, J. Normand, 
 K. Raghavachari, A. P. Rendell, J. C. Burant, S. S. Iyengar, 
 J. Tomasi, M. Cossi, J. M. Millam, M. Klene, C. Adamo, R. Cammi, 
 J. W. Ochterski, R. L. Martin, K. Morokuma, O. Farkas, 
 J. B. Foresman, and D. J. Fox, Gaussian, Inc., Wallingford CT, 2016.
 
 ******************************************
 Gaussian 16:  ES64L-G16RevB.01 20-Dec-2017
                23-Dec-2020 
 ******************************************
 %NProcShared=16
 Will use up to   16 processors via shared memory.
 %Mem=6GB
 --------------------------------------------------------------
 # B3LYP/6-31+G* OPT=(TS, CALCALL, NOEIGEN, maxcycles=100) Freq
 --------------------------------------------------------------
 1/5=1,6=100,10=4,11=1,18=20,26=3,38=1/1,3;
 2/9=110,12=2,17=6,18=5,40=1/2;
 3/5=1,6=6,7=11,11=2,25=1,30=1,71=2,74=-5,140=1/1,2,3;
 4//1;
 5/5=2,38=5/2;
 8/6=4,10=90,11=11/1;
 11/6=1,8=1,9=11,15=111,16=1/1,2,10;
 10/6=1/2;
 6/7=2,8=2,9=2,10=2,18=1,28=1/1;
 7/10=1,25=1/1,2,3,16;
 1/5=1,6=100,10=4,11=1,18=20,26=3/3(3);
 2/9=110/2;
 7/8=1,9=1,25=1,44=-1/16;
 99//99;
 2/9=110/2;
 3/5=1,6=6,7=11,11=2,25=1,30=1,71=2,74=-5,140=1/1,2,3;
 4/5=5,16=3,69=1/1;
 5/5=2,38=5/2;
 8/6=4,10=90,11=11/1;
 11/6=1,8=1,9=11,15=111,16=1/1,2,10;
 10/6=1/2;
 7/10=1,25=1/1,2,3,16;
 1/5=1,6=100,10=4,11=1,18=20,26=3/3(-8);
 2/9=110/2;
 6/7=2,8=2,9=2,10=2,18=1,19=2,28=1/1;
 7/8=1,9=1,25=1,44=-1/16;
 99//99;
 ----------
 pp_13_1 TS
 ----------
 Symbolic Z-matrix:
 Charge =  0 Multiplicity = 1
 C                     1.47037   1.33882  -2.22689 
 C                     0.58895   0.42111  -1.49327 
 C                     1.0341   -0.90089  -1.22517 
 O                     1.0786    2.58795  -2.53194 
 O                     0.16326   3.10626  -1.58652 
 O                     2.10803  -1.36774  -1.58177 
 H                     0.19052   4.06144  -1.78198 
 H                     2.35374   1.74799  -0.81308 
 H                     2.19688   1.00016  -2.94372 
 H                     0.31789  -1.50112  -0.61622 
 H                    -0.48674   0.59197  -1.48587 
 H                     0.97083   1.79222  -0.10142 
 
 Add virtual bond connecting atoms H12        and H8         Dist= 2.94D+00.
 Add virtual bond connecting atoms H8         and C1         Dist= 3.24D+00.

 GradGradGradGradGradGradGradGradGradGradGradGradGradGradGradGradGradGrad
 Berny optimization.
 Initialization pass.
                           ----------------------------
                           !    Initial Parameters    !
                           ! (Angstroms and Degrees)  !
 --------------------------                            --------------------------
 ! Name  Definition              Value          Derivative Info.                !
 --------------------------------------------------------------------------------
 ! R1    R(1,2)                  1.4688         calculate D2E/DX2 analytically  !
 ! R2    R(1,4)                  1.3442         calculate D2E/DX2 analytically  !
 ! R3    R(1,8)                  1.7166         calculate D2E/DX2 analytically  !
 ! R4    R(1,9)                  1.0753         calculate D2E/DX2 analytically  !
 ! R5    R(2,3)                  1.4205         calculate D2E/DX2 analytically  !
 ! R6    R(2,11)                 1.0892         calculate D2E/DX2 analytically  !
 ! R7    R(3,6)                  1.2241         calculate D2E/DX2 analytically  !
 ! R8    R(3,10)                 1.1154         calculate D2E/DX2 analytically  !
 ! R9    R(4,5)                  1.4143         calculate D2E/DX2 analytically  !
 ! R10   R(5,7)                  0.9754         calculate D2E/DX2 analytically  !
 ! R11   R(8,12)                 1.5559         calculate D2E/DX2 analytically  !
 ! A1    A(2,1,4)              121.27           calculate D2E/DX2 analytically  !
 ! A2    A(2,1,8)               92.6578         calculate D2E/DX2 analytically  !
 ! A3    A(2,1,9)              122.7945         calculate D2E/DX2 analytically  !
 ! A4    A(4,1,8)               96.626          calculate D2E/DX2 analytically  !
 ! A5    A(4,1,9)              109.7725         calculate D2E/DX2 analytically  !
 ! A6    A(8,1,9)              106.047          calculate D2E/DX2 analytically  !
 ! A7    A(1,2,3)              119.1902         calculate D2E/DX2 analytically  !
 ! A8    A(1,2,11)             119.8708         calculate D2E/DX2 analytically  !
 ! A9    A(3,2,11)             117.0138         calculate D2E/DX2 analytically  !
 ! A10   A(2,3,6)              125.0927         calculate D2E/DX2 analytically  !
 ! A11   A(2,3,10)             113.7439         calculate D2E/DX2 analytically  !
 ! A12   A(6,3,10)             121.1418         calculate D2E/DX2 analytically  !
 ! A13   A(1,4,5)              112.1775         calculate D2E/DX2 analytically  !
 ! A14   A(4,5,7)              101.9372         calculate D2E/DX2 analytically  !
 ! A15   A(1,8,12)              85.7619         calculate D2E/DX2 analytically  !
 ! D1    D(4,1,2,3)            178.3423         calculate D2E/DX2 analytically  !
 ! D2    D(4,1,2,11)            21.2921         calculate D2E/DX2 analytically  !
 ! D3    D(8,1,2,3)            -82.2571         calculate D2E/DX2 analytically  !
 ! D4    D(8,1,2,11)           120.6928         calculate D2E/DX2 analytically  !
 ! D5    D(9,1,2,3)             28.7879         calculate D2E/DX2 analytically  !
 ! D6    D(9,1,2,11)          -128.2623         calculate D2E/DX2 analytically  !
 ! D7    D(2,1,4,5)             29.4486         calculate D2E/DX2 analytically  !
 ! D8    D(8,1,4,5)            -67.7415         calculate D2E/DX2 analytically  !
 ! D9    D(9,1,4,5)           -177.4648         calculate D2E/DX2 analytically  !
 ! D10   D(2,1,8,12)           -41.9711         calculate D2E/DX2 analytically  !
 ! D11   D(4,1,8,12)            79.9342         calculate D2E/DX2 analytically  !
 ! D12   D(9,1,8,12)          -167.2493         calculate D2E/DX2 analytically  !
 ! D13   D(1,2,3,6)             -1.4652         calculate D2E/DX2 analytically  !
 ! D14   D(1,2,3,10)           176.8533         calculate D2E/DX2 analytically  !
 ! D15   D(11,2,3,6)           156.2301         calculate D2E/DX2 analytically  !
 ! D16   D(11,2,3,10)          -25.4515         calculate D2E/DX2 analytically  !
 ! D17   D(1,4,5,7)            163.6395         calculate D2E/DX2 analytically  !
 --------------------------------------------------------------------------------
 Trust Radius=3.00D-01 FncErr=1.00D-07 GrdErr=1.00D-06 EigMax=2.50D+02 EigMin=1.00D-04
 Number of steps in this run=    100 maximum allowed number of steps=    100.
 Search for a saddle point of order  1.
 GradGradGradGradGradGradGradGradGradGradGradGradGradGradGradGradGradGrad

                          Input orientation:                          
 ---------------------------------------------------------------------
 Center     Atomic      Atomic             Coordinates (Angstroms)
 Number     Number       Type             X           Y           Z
 ---------------------------------------------------------------------
      1          6           0        1.470370    1.338816   -2.226890
      2          6           0        0.588952    0.421111   -1.493266
      3          6           0        1.034101   -0.900888   -1.225170
      4          8           0        1.078596    2.587953   -2.531942
      5          8           0        0.163258    3.106256   -1.586521
      6          8           0        2.108025   -1.367740   -1.581765
      7          1           0        0.190521    4.061444   -1.781980
      8          1           0        2.353738    1.747991   -0.813081
      9          1           0        2.196876    1.000164   -2.943715
     10          1           0        0.317888   -1.501116   -0.616217
     11          1           0       -0.486739    0.591968   -1.485867
     12          1           0        0.970826    1.792219   -0.101424
 ---------------------------------------------------------------------
                    Distance matrix (angstroms):
                    1          2          3          4          5
     1  C    0.000000
     2  C    1.468770   0.000000
     3  C    2.491997   1.420463   0.000000
     4  O    1.344205   2.452306   3.725808   0.000000
     5  O    2.289642   2.720279   4.116570   1.414321   0.000000
     6  O    2.854511   2.348489   1.224101   4.196435   4.878399
     7  H    3.041161   3.673435   5.064228   1.876778   0.975362
     8  H    1.716572   2.310353   2.987946   2.299132   2.690966
     9  H    1.075330   2.241545   2.814150   1.985241   3.226949
    10  H    3.462325   2.130175   1.115374   4.579210   4.710974
    11  H    2.221975   1.089201   2.146983   2.743812   2.598898
    12  H    2.229961   1.990726   2.918841   2.559731   2.141115
                    6          7          8          9         10
     6  O    0.000000
     7  H    5.761332   0.000000
     8  H    3.218545   3.312150   0.000000
     9  H    2.733088   3.840120   2.263504   0.000000
    10  H    2.038299   5.684831   3.839289   3.899262   0.000000
    11  H    3.253068   3.547341   3.139640   3.081190   2.405144
    12  H    3.670146   2.929595   1.555910   3.195179   3.396674
                   11         12
    11  H    0.000000
    12  H    2.341320   0.000000
 Stoichiometry    C3H6O3
 Framework group  C1[X(C3H6O3)]
 Deg. of freedom    30
 Full point group                 C1      NOp   1
 Largest Abelian subgroup         C1      NOp   1
 Largest concise Abelian subgroup C1      NOp   1
                         Standard orientation:                         
 ---------------------------------------------------------------------
 Center     Atomic      Atomic             Coordinates (Angstroms)
 Number     Number       Type             X           Y           Z
 ---------------------------------------------------------------------
      1          6           0        0.306791   -0.663169   -0.063746
      2          6           0       -0.468271    0.573573   -0.228159
      3          6           0       -1.880805    0.530160   -0.084706
      4          8           0        1.641485   -0.676508   -0.222809
      5          8           0        2.231071    0.565612    0.108594
      6          8           0       -2.534026   -0.479002    0.146203
      7          1           0        3.170855    0.323328    0.205733
      8          1           0        0.312595   -0.526589    1.647374
      9          1           0       -0.095414   -1.636065   -0.282923
     10          1           0       -2.372034    1.527654   -0.172789
     11          1           0       -0.054662    1.400484   -0.803922
     12          1           0        0.584135    0.986988    1.410291
 ---------------------------------------------------------------------
 Rotational constants (GHZ):          11.3320732           1.7104643           1.5552919
 Standard basis: 6-31+G(d) (6D, 7F)
 There are   126 symmetry adapted cartesian basis functions of A   symmetry.
 There are   126 symmetry adapted basis functions of A   symmetry.
   126 basis functions,   216 primitive gaussians,   126 cartesian basis functions
    24 alpha electrons       24 beta electrons
       nuclear repulsion energy       236.5126447922 Hartrees.
 NAtoms=   12 NActive=   12 NUniq=   12 SFac= 1.00D+00 NAtFMM=   60 NAOKFM=F Big=F
 Integral buffers will be    131072 words long.
 Raffenetti 2 integral format.
 Two-electron integral symmetry is turned on.
 One-electron integrals computed using PRISM.
 NBasis=   126 RedAO= T EigKep=  7.67D-05  NBF=   126
 NBsUse=   126 1.00D-06 EigRej= -1.00D+00 NBFU=   126
 ExpMin= 4.38D-02 ExpMax= 5.48D+03 ExpMxC= 8.25D+02 IAcc=3 IRadAn=         5 AccDes= 0.00D+00
 Harris functional with IExCor=  402 and IRadAn=       5 diagonalized for initial guess.
 HarFok:  IExCor=  402 AccDes= 0.00D+00 IRadAn=         5 IDoV= 1 UseB2=F ITyADJ=14
 ICtDFT=  3500011 ScaDFX=  1.000000  1.000000  1.000000  1.000000
 FoFCou: FMM=F IPFlag=           0 FMFlag=      100000 FMFlg1=           0
         NFxFlg=           0 DoJE=T BraDBF=F KetDBF=T FulRan=T
         wScrn=  0.000000 ICntrl=       500 IOpCl=  0 I1Cent=   200000004 NGrid=           0
         NMat0=    1 NMatS0=      1 NMatT0=    0 NMatD0=    1 NMtDS0=    0 NMtDT0=    0
 Petite list used in FoFCou.
 Keep R1 ints in memory in canonical form, NReq=47237537.
 Requested convergence on RMS density matrix=1.00D-08 within 128 cycles.
 Requested convergence on MAX density matrix=1.00D-06.
 Requested convergence on             energy=1.00D-06.
 No special actions if energy rises.
 EnCoef did     4 forward-backward iterations
 EnCoef did   100 forward-backward iterations
 EnCoef did     4 forward-backward iterations
 EnCoef did     1 forward-backward iterations
 SCF Done:  E(RB3LYP) =  -343.250140525     A.U. after   20 cycles
            NFock= 20  Conv=0.67D-08     -V/T= 2.0094
 DoSCS=F DFT=T ScalE2(SS,OS)=  1.000000  1.000000
 Range of M.O.s used for correlation:     1   126
 NBasis=   126 NAE=    24 NBE=    24 NFC=     0 NFV=     0
 NROrb=    126 NOA=    24 NOB=    24 NVA=   102 NVB=   102

 **** Warning!!: The largest alpha MO coefficient is  0.35013810D+02


 **** Warning!!: The smallest alpha delta epsilon is  0.57898129D-01

 Symmetrizing basis deriv contribution to polar:
 IMax=3 JMax=2 DiffMx= 0.00D+00
 G2DrvN: will do    13 centers at a time, making    1 passes.
 Calling FoFCou, ICntrl=  3107 FMM=F I1Cent=   0 AccDes= 0.00D+00.
 End of G2Drv F.D. properties file   721 does not exist.
 End of G2Drv F.D. properties file   722 does not exist.
 End of G2Drv F.D. properties file   788 does not exist.
          IDoAtm=111111111111
          Differentiating once with respect to electric field.
                with respect to dipole field.
          Differentiating once with respect to nuclear coordinates.
 Keep R1 ints in memory in canonical form, NReq=47193559.
          There are    39 degrees of freedom in the 1st order CPHF.  IDoFFX=6 NUNeed=     3.
     36 vectors produced by pass  0 Test12= 6.28D-15 2.56D-09 XBig12= 4.24D+02 1.80D+01.
 AX will form    36 AO Fock derivatives at one time.
     36 vectors produced by pass  1 Test12= 6.28D-15 2.56D-09 XBig12= 7.79D+01 1.34D+00.
     36 vectors produced by pass  2 Test12= 6.28D-15 2.56D-09 XBig12= 8.35D-01 1.18D-01.
     36 vectors produced by pass  3 Test12= 6.28D-15 2.56D-09 XBig12= 6.21D-03 1.08D-02.
     36 vectors produced by pass  4 Test12= 6.28D-15 2.56D-09 XBig12= 1.84D-05 5.13D-04.
     28 vectors produced by pass  5 Test12= 6.28D-15 2.56D-09 XBig12= 1.82D-08 1.78D-05.
      7 vectors produced by pass  6 Test12= 6.28D-15 2.56D-09 XBig12= 1.35D-11 4.38D-07.
      3 vectors produced by pass  7 Test12= 6.28D-15 2.56D-09 XBig12= 1.23D-14 1.31D-08.
 InvSVY:  IOpt=1 It=  1 EMax= 7.11D-15
 Solved reduced A of dimension   218 with    39 vectors.
 Isotropic polarizability for W=    0.000000       75.93 Bohr**3.
 End of Minotr F.D. properties file   721 does not exist.
 End of Minotr F.D. properties file   722 does not exist.
 End of Minotr F.D. properties file   788 does not exist.

 **********************************************************************

            Population analysis using the SCF Density.

 **********************************************************************

 Orbital symmetries:
       Occupied  (A) (A) (A) (A) (A) (A) (A) (A) (A) (A) (A) (A)
                 (A) (A) (A) (A) (A) (A) (A) (A) (A) (A) (A) (A)
       Virtual   (A) (A) (A) (A) (A) (A) (A) (A) (A) (A) (A) (A)
                 (A) (A) (A) (A) (A) (A) (A) (A) (A) (A) (A) (A)
                 (A) (A) (A) (A) (A) (A) (A) (A) (A) (A) (A) (A)
                 (A) (A) (A) (A) (A) (A) (A) (A) (A) (A) (A) (A)
                 (A) (A) (A) (A) (A) (A) (A) (A) (A) (A) (A) (A)
                 (A) (A) (A) (A) (A) (A) (A) (A) (A) (A) (A) (A)
                 (A) (A) (A) (A) (A) (A) (A) (A) (A) (A) (A) (A)
                 (A) (A) (A) (A) (A) (A) (A) (A) (A) (A) (A) (A)
                 (A) (A) (A) (A) (A) (A)
 The electronic state is 1-A.
 Alpha  occ. eigenvalues --  -19.30856 -19.29308 -19.13331 -10.33442 -10.25871
 Alpha  occ. eigenvalues --  -10.22152  -1.22753  -1.02792  -1.01103  -0.79198
 Alpha  occ. eigenvalues --   -0.68836  -0.62614  -0.57233  -0.53836  -0.52129
 Alpha  occ. eigenvalues --   -0.47329  -0.46963  -0.42553  -0.41473  -0.38527
 Alpha  occ. eigenvalues --   -0.36506  -0.32641  -0.24982  -0.20375
 Alpha virt. eigenvalues --   -0.14585  -0.05339  -0.02656  -0.00239   0.01744
 Alpha virt. eigenvalues --    0.02899   0.05074   0.06417   0.06554   0.07405
 Alpha virt. eigenvalues --    0.09338   0.10414   0.11062   0.11374   0.13056
 Alpha virt. eigenvalues --    0.15066   0.15694   0.16620   0.18432   0.20107
 Alpha virt. eigenvalues --    0.21270   0.22011   0.23599   0.24603   0.25640
 Alpha virt. eigenvalues --    0.26300   0.27403   0.28860   0.29302   0.30717
 Alpha virt. eigenvalues --    0.31553   0.32660   0.35481   0.37153   0.41618
 Alpha virt. eigenvalues --    0.49510   0.65638   0.65893   0.67810   0.68542
 Alpha virt. eigenvalues --    0.71343   0.76522   0.81433   0.81971   0.88496
 Alpha virt. eigenvalues --    0.91744   0.94176   0.96831   1.00352   1.02282
 Alpha virt. eigenvalues --    1.05544   1.07512   1.09556   1.11592   1.13196
 Alpha virt. eigenvalues --    1.15888   1.19636   1.22376   1.25185   1.26980
 Alpha virt. eigenvalues --    1.29306   1.29873   1.33246   1.38983   1.42343
 Alpha virt. eigenvalues --    1.48341   1.53696   1.54737   1.56270   1.64026
 Alpha virt. eigenvalues --    1.67147   1.70515   1.77003   1.81722   1.82370
 Alpha virt. eigenvalues --    1.85723   1.88432   1.89892   1.95725   2.00849
 Alpha virt. eigenvalues --    2.11447   2.17659   2.24186   2.30525   2.32911
 Alpha virt. eigenvalues --    2.35621   2.40671   2.47445   2.55462   2.63757
 Alpha virt. eigenvalues --    2.65065   2.81228   2.91236   3.01092   3.05287
 Alpha virt. eigenvalues --    3.14569   3.96304   4.13899   4.20820   4.27768
 Alpha virt. eigenvalues --    4.32824   4.47548
          Condensed to atoms (all electrons):
               1          2          3          4          5          6
     1  C    7.032397  -2.296347   0.581206   0.215152  -0.186597   0.071174
     2  C   -2.296347   9.602787  -1.015531  -0.141719   0.133967  -0.219696
     3  C    0.581206  -1.015531   5.525978   0.045131  -0.011215   0.418451
     4  O    0.215152  -0.141719   0.045131   8.008486   0.058286   0.001232
     5  O   -0.186597   0.133967  -0.011215   0.058286   8.294302  -0.000932
     6  O    0.071174  -0.219696   0.418451   0.001232  -0.000932   8.232683
     7  H   -0.007581   0.014609  -0.001072  -0.023324   0.186459   0.000014
     8  H    0.740215  -0.586579   0.107785  -0.071972  -0.019635  -0.001178
     9  H    0.291482   0.070014  -0.027380  -0.059185   0.015027   0.004476
    10  H    0.042992  -0.229064   0.461477   0.000027  -0.000217  -0.060858
    11  H    0.081451   0.186876   0.019913   0.000758  -0.005469   0.003516
    12  H   -0.134038   0.335834  -0.006855  -0.037475   0.017801  -0.003269
               7          8          9         10         11         12
     1  C   -0.007581   0.740215   0.291482   0.042992   0.081451  -0.134038
     2  C    0.014609  -0.586579   0.070014  -0.229064   0.186876   0.335834
     3  C   -0.001072   0.107785  -0.027380   0.461477   0.019913  -0.006855
     4  O   -0.023324  -0.071972  -0.059185   0.000027   0.000758  -0.037475
     5  O    0.186459  -0.019635   0.015027  -0.000217  -0.005469   0.017801
     6  O    0.000014  -0.001178   0.004476  -0.060858   0.003516  -0.003269
     7  H    0.314622  -0.000301  -0.000068   0.000001   0.000059   0.001559
     8  H   -0.000301   0.844014  -0.015940  -0.000296   0.004589   0.023427
     9  H   -0.000068  -0.015940   0.453400   0.000030   0.000912   0.003828
    10  H    0.000001  -0.000296   0.000030   0.640065   0.000066  -0.000163
    11  H    0.000059   0.004589   0.000912   0.000066   0.483675  -0.004448
    12  H    0.001559   0.023427   0.003828  -0.000163  -0.004448   0.624806
 Mulliken charges:
               1
     1  C   -0.431507
     2  C    0.144850
     3  C   -0.097889
     4  O    0.004602
     5  O   -0.481777
     6  O   -0.445613
     7  H    0.515024
     8  H   -0.024128
     9  H    0.263404
    10  H    0.145941
    11  H    0.228101
    12  H    0.178993
 Sum of Mulliken charges =  -0.00000
 Mulliken charges with hydrogens summed into heavy atoms:
               1
     1  C   -0.192231
     2  C    0.551944
     3  C    0.048052
     4  O    0.004602
     5  O    0.033246
     6  O   -0.445613
 APT charges:
               1
     1  C    0.634646
     2  C   -0.675797
     3  C    0.969346
     4  O   -0.436331
     5  O   -0.390772
     6  O   -0.746512
     7  H    0.350730
     8  H   -0.179438
     9  H    0.060966
    10  H   -0.079881
    11  H    0.099829
    12  H    0.393215
 Sum of APT charges =   0.00000
 APT charges with hydrogens summed into heavy atoms:
               1
     1  C    0.516173
     2  C   -0.182754
     3  C    0.889465
     4  O   -0.436331
     5  O   -0.040042
     6  O   -0.746512
 Electronic spatial extent (au):  <R**2>=            730.9079
 Charge=              0.0000 electrons
 Dipole moment (field-independent basis, Debye):
    X=              5.6378    Y=              1.3965    Z=             -1.1734  Tot=              5.9255
 Quadrupole moment (field-independent basis, Debye-Ang):
   XX=            -36.4920   YY=            -36.8883   ZZ=            -39.3226
   XY=             -2.9497   XZ=              2.4834   YZ=              1.8593
 Traceless Quadrupole moment (field-independent basis, Debye-Ang):
   XX=              1.0756   YY=              0.6794   ZZ=             -1.7550
   XY=             -2.9497   XZ=              2.4834   YZ=              1.8593
 Octapole moment (field-independent basis, Debye-Ang**2):
  XXX=             85.5314  YYY=             -4.6532  ZZZ=             -6.2425  XYY=              2.5836
  XXY=             14.6974  XXZ=              0.2756  XZZ=              3.4570  YZZ=              2.2855
  YYZ=             -4.3450  XYZ=              0.6487
 Hexadecapole moment (field-independent basis, Debye-Ang**3):
 XXXX=           -599.1055 YYYY=           -141.8542 ZZZZ=            -91.5448 XXXY=            -10.1933
 XXXZ=             18.6146 YYYX=              4.0933 YYYZ=              2.3917 ZZZX=             -3.6108
 ZZZY=              8.3013 XXYY=           -142.5890 XXZZ=           -131.3151 YYZZ=            -40.4243
 XXYZ=              3.6205 YYXZ=              0.9022 ZZXY=              3.7671
 N-N= 2.365126447922D+02 E-N=-1.276305653195D+03  KE= 3.400409891267D+02
  Exact polarizability: 107.646   0.769  59.611   9.946  -1.878  60.538
 Approx polarizability: 194.157  17.115  96.728  45.870  10.803 128.241
 Calling FoFJK, ICntrl=    100127 FMM=F ISym2X=0 I1Cent= 0 IOpClX= 0 NMat=1 NMatS=1 NMatT=0.
 ***** Axes restored to original set *****
 -------------------------------------------------------------------
 Center     Atomic                   Forces (Hartrees/Bohr)
 Number     Number              X              Y              Z
 -------------------------------------------------------------------
      1        6           0.041044137    0.044706395    0.066924884
      2        6          -0.033848663    0.015877412    0.040298809
      3        6          -0.019760508    0.000803755    0.017554847
      4        8           0.000525472   -0.000535730   -0.032039408
      5        8          -0.008829304   -0.006345235    0.015255952
      6        8           0.019731076   -0.005210076   -0.006818689
      7        1           0.005343566    0.000661342   -0.004259261
      8        1          -0.005180573   -0.004681272   -0.038860486
      9        1           0.003326821   -0.000782292   -0.010787843
     10        1           0.002610331   -0.000785635   -0.003012018
     11        1          -0.000366775   -0.000700018   -0.010405530
     12        1          -0.004595581   -0.043008647   -0.033851258
 -------------------------------------------------------------------
 Cartesian Forces:  Max     0.066924884 RMS     0.022730667
 FormGI is forming the generalized inverse of G from B-inverse, IUseBI=4.

 GradGradGradGradGradGradGradGradGradGradGradGradGradGradGradGradGradGrad
 Berny optimization.
 Internal  Forces:  Max     0.122149643 RMS     0.026894706
 Search for a saddle point.
 Step number   1 out of a maximum of  100
 All quantities printed in internal units (Hartrees-Bohrs-Radians)
 Swapping is turned off.
 Second derivative matrix not updated -- analytic derivatives used.
 ITU=  0
     Eigenvalues ---   -0.53410  -0.06431  -0.00894   0.00081   0.00876
     Eigenvalues ---    0.01107   0.02090   0.02627   0.03090   0.05661
     Eigenvalues ---    0.06364   0.07095   0.08262   0.10529   0.11693
     Eigenvalues ---    0.12624   0.15811   0.19497   0.20650   0.21863
     Eigenvalues ---    0.29790   0.30747   0.35721   0.36093   0.37862
     Eigenvalues ---    0.39070   0.40844   0.49232   0.53885   0.82403
 Eigenvectors required to have negative eigenvalues:
                          A15       R3        A2        R11       D10
   1                    0.44126   0.43007   0.37315  -0.30509  -0.29670
                          A4        D12       D8        A3        D11
   1                   -0.24892  -0.23081  -0.20473  -0.16592  -0.14658
 RFO step:  Lambda0=3.560981733D-02 Lambda=-8.89867570D-02.
 Linear search not attempted -- option 19 set.
 Maximum step size (   0.300) exceeded in Quadratic search.
    -- Step size scaled by   0.291
 Iteration  1 RMS(Cart)=  0.06121563 RMS(Int)=  0.00649869
 Iteration  2 RMS(Cart)=  0.00658100 RMS(Int)=  0.00017888
 Iteration  3 RMS(Cart)=  0.00003305 RMS(Int)=  0.00017831
 Iteration  4 RMS(Cart)=  0.00000000 RMS(Int)=  0.00017831
 Variable       Old X    -DE/DX   Delta X   Delta X   Delta X     New X
                                 (Linear)    (Quad)   (Total)
    R1        2.77557   0.03153   0.00000  -0.00993  -0.00993   2.76564
    R2        2.54018  -0.00014   0.00000  -0.03956  -0.03956   2.50062
    R3        3.24385  -0.07629   0.00000   0.10926   0.10926   3.35311
    R4        2.03208   0.00969   0.00000   0.01016   0.01016   2.04224
    R5        2.68429   0.00710   0.00000  -0.00998  -0.00998   2.67430
    R6        2.05829   0.00018   0.00000  -0.00083  -0.00083   2.05746
    R7        2.31322   0.02128   0.00000   0.01278   0.01278   2.32599
    R8        2.10775  -0.00290   0.00000  -0.00114  -0.00114   2.10661
    R9        2.67268   0.00752   0.00000   0.00442   0.00442   2.67710
   R10        1.84317   0.00165   0.00000   0.00248   0.00248   1.84565
   R11        2.94024  -0.01262   0.00000  -0.22201  -0.22201   2.71824
    A1        2.11656  -0.02139   0.00000   0.00843   0.00835   2.12491
    A2        1.61718  -0.03412   0.00000   0.03934   0.03931   1.65649
    A3        2.14317   0.02787   0.00000   0.01117   0.01141   2.15458
    A4        1.68644   0.03489   0.00000  -0.01134  -0.01168   1.67477
    A5        1.91589  -0.00796   0.00000  -0.00958  -0.01006   1.90583
    A6        1.85087   0.00413   0.00000  -0.05207  -0.05228   1.79859
    A7        2.08026  -0.00038   0.00000  -0.02602  -0.02606   2.05420
    A8        2.09214  -0.00568   0.00000  -0.01120  -0.01117   2.08097
    A9        2.04228   0.00537   0.00000   0.03180   0.03168   2.07396
   A10        2.18328  -0.00634   0.00000  -0.00219  -0.00222   2.18106
   A11        1.98521   0.00565   0.00000   0.00631   0.00628   1.99149
   A12        2.11432   0.00071   0.00000  -0.00448  -0.00451   2.10981
   A13        1.95787  -0.01627   0.00000  -0.00748  -0.00748   1.95038
   A14        1.77914  -0.01207   0.00000  -0.01013  -0.01013   1.76901
   A15        1.49683  -0.12215   0.00000  -0.14109  -0.14109   1.35574
    D1        3.11266  -0.00258   0.00000   0.00225   0.00230   3.11496
    D2        0.37162  -0.00186   0.00000   0.01017   0.00999   0.38161
    D3       -1.43566   0.01414   0.00000   0.01464   0.01480  -1.42086
    D4        2.10649   0.01486   0.00000   0.02256   0.02249   2.12898
    D5        0.50244   0.00333   0.00000  -0.01802  -0.01790   0.48455
    D6       -2.23860   0.00405   0.00000  -0.01011  -0.01020  -2.24880
    D7        0.51398  -0.00757   0.00000  -0.01694  -0.01694   0.49704
    D8       -1.18231   0.01517   0.00000  -0.05812  -0.05798  -1.24030
    D9       -3.09735  -0.00211   0.00000   0.00597   0.00584  -3.09151
   D10       -0.73253   0.04646   0.00000   0.03396   0.03367  -0.69887
   D11        1.39512   0.02354   0.00000   0.04759   0.04721   1.44232
   D12       -2.91905   0.02864   0.00000   0.02038   0.02105  -2.89800
   D13       -0.02557   0.00237   0.00000   0.02808   0.02823   0.00266
   D14        3.08667   0.00312   0.00000   0.01396   0.01412   3.10080
   D15        2.72673  -0.00078   0.00000   0.01112   0.01096   2.73769
   D16       -0.44421  -0.00003   0.00000  -0.00300  -0.00315  -0.44737
   D17        2.85605  -0.00225   0.00000   0.00389   0.00389   2.85994
         Item               Value     Threshold  Converged?
 Maximum Force            0.122150     0.000450     NO 
 RMS     Force            0.026895     0.000300     NO 
 Maximum Displacement     0.275107     0.001800     NO 
 RMS     Displacement     0.063711     0.001200     NO 
 Predicted change in Energy=-1.573839D-02
 GradGradGradGradGradGradGradGradGradGradGradGradGradGradGradGradGradGrad

                          Input orientation:                          
 ---------------------------------------------------------------------
 Center     Atomic      Atomic             Coordinates (Angstroms)
 Number     Number       Type             X           Y           Z
 ---------------------------------------------------------------------
      1          6           0        1.444612    1.336258   -2.201135
      2          6           0        0.552949    0.427525   -1.479324
      3          6           0        1.017767   -0.884346   -1.223057
      4          8           0        1.080130    2.570426   -2.509391
      5          8           0        0.142412    3.087912   -1.582127
      6          8           0        2.118496   -1.320896   -1.558974
      7          1           0        0.184535    4.043602   -1.779054
      8          1           0        2.400209    1.777792   -0.772733
      9          1           0        2.195175    1.001627   -2.902990
     10          1           0        0.308541   -1.511857   -0.634886
     11          1           0       -0.520242    0.610131   -1.497162
     12          1           0        1.061829    1.740004   -0.247004
 ---------------------------------------------------------------------
                    Distance matrix (angstroms):
                    1          2          3          4          5
     1  C    0.000000
     2  C    1.463513   0.000000
     3  C    2.463720   1.415180   0.000000
     4  O    1.323269   2.435361   3.687003   0.000000
     5  O    2.268742   2.693839   4.083382   1.416660   0.000000
     6  O    2.815485   2.348245   1.230862   4.138101   4.831463
     7  H    3.015901   3.647133   5.028725   1.872360   0.976677
     8  H    1.774387   2.394757   3.033301   2.320961   2.732981
     9  H    1.080705   2.247960   2.786639   1.964529   3.211090
    10  H    3.443189   2.129322   1.114772   4.557867   4.699228
    11  H    2.209862   1.088762   2.161959   2.725537   2.566267
    12  H    2.031788   1.870875   2.800327   2.410047   2.108255
                    6          7          8          9         10
     6  O    0.000000
     7  H    5.706705   0.000000
     8  H    3.209268   3.325025   0.000000
     9  H    2.684469   3.815694   2.276503   0.000000
    10  H    2.041162   5.673413   3.900752   3.875730   0.000000
    11  H    3.270417   3.516375   3.227579   3.082712   2.435823
    12  H    3.493840   2.902307   1.438430   2.980593   3.360430
                   11         12
    11  H    0.000000
    12  H    2.311375   0.000000
 Stoichiometry    C3H6O3
 Framework group  C1[X(C3H6O3)]
 Deg. of freedom    30
 Full point group                 C1      NOp   1
 Largest Abelian subgroup         C1      NOp   1
 Largest concise Abelian subgroup C1      NOp   1
                         Standard orientation:                         
 ---------------------------------------------------------------------
 Center     Atomic      Atomic             Coordinates (Angstroms)
 Number     Number       Type             X           Y           Z
 ---------------------------------------------------------------------
      1          6           0        0.301536   -0.637256   -0.097991
      2          6           0       -0.457254    0.609194   -0.209657
      3          6           0       -1.863920    0.537500   -0.072233
      4          8           0        1.616511   -0.667276   -0.242827
      5          8           0        2.214216    0.560789    0.133377
      6          8           0       -2.500492   -0.494930    0.137251
      7          1           0        3.150111    0.298095    0.228193
      8          1           0        0.311344   -0.650653    1.676319
      9          1           0       -0.105618   -1.606833   -0.347127
     10          1           0       -2.377596    1.525378   -0.126554
     11          1           0       -0.024877    1.448026   -0.752625
     12          1           0        0.522587    0.740700    1.378672
 ---------------------------------------------------------------------
 Rotational constants (GHZ):          11.3277211           1.7470595           1.5864068
 Standard basis: 6-31+G(d) (6D, 7F)
 There are   126 symmetry adapted cartesian basis functions of A   symmetry.
 There are   126 symmetry adapted basis functions of A   symmetry.
   126 basis functions,   216 primitive gaussians,   126 cartesian basis functions
    24 alpha electrons       24 beta electrons
       nuclear repulsion energy       237.9993178311 Hartrees.
 NAtoms=   12 NActive=   12 NUniq=   12 SFac= 1.00D+00 NAtFMM=   60 NAOKFM=F Big=F
 Integral buffers will be    131072 words long.
 Raffenetti 2 integral format.
 Two-electron integral symmetry is turned on.
 One-electron integrals computed using PRISM.
 NBasis=   126 RedAO= T EigKep=  7.58D-05  NBF=   126
 NBsUse=   126 1.00D-06 EigRej= -1.00D+00 NBFU=   126
 Initial guess from the checkpoint file:  "/scratch/bell/zhao922/YARP/paper-example/KHP-network/pp_0/TS-folder/Gau-3841.chk"
 B after Tr=    -0.000000    0.000000    0.000000
         Rot=    0.999708   -0.024167    0.000404    0.000191 Ang=  -2.77 deg.
 ExpMin= 4.38D-02 ExpMax= 5.48D+03 ExpMxC= 8.25D+02 IAcc=3 IRadAn=         5 AccDes= 0.00D+00
 Harris functional with IExCor=  402 and IRadAn=       5 diagonalized for initial guess.
 HarFok:  IExCor=  402 AccDes= 0.00D+00 IRadAn=         5 IDoV= 1 UseB2=F ITyADJ=14
 ICtDFT=  3500011 ScaDFX=  1.000000  1.000000  1.000000  1.000000
 FoFCou: FMM=F IPFlag=           0 FMFlag=      100000 FMFlg1=           0
         NFxFlg=           0 DoJE=T BraDBF=F KetDBF=T FulRan=T
         wScrn=  0.000000 ICntrl=       500 IOpCl=  0 I1Cent=   200000004 NGrid=           0
         NMat0=    1 NMatS0=      1 NMatT0=    0 NMatD0=    1 NMtDS0=    0 NMtDT0=    0
 Petite list used in FoFCou.
 Keep R1 ints in memory in canonical form, NReq=47237537.
 Requested convergence on RMS density matrix=1.00D-08 within 128 cycles.
 Requested convergence on MAX density matrix=1.00D-06.
 Requested convergence on             energy=1.00D-06.
 No special actions if energy rises.
 SCF Done:  E(RB3LYP) =  -343.266081376     A.U. after   16 cycles
            NFock= 16  Conv=0.29D-08     -V/T= 2.0094
 DoSCS=F DFT=T ScalE2(SS,OS)=  1.000000  1.000000
 Range of M.O.s used for correlation:     1   126
 NBasis=   126 NAE=    24 NBE=    24 NFC=     0 NFV=     0
 NROrb=    126 NOA=    24 NOB=    24 NVA=   102 NVB=   102

 **** Warning!!: The largest alpha MO coefficient is  0.34164362D+02


 **** Warning!!: The smallest alpha delta epsilon is  0.69267391D-01

 Symmetrizing basis deriv contribution to polar:
 IMax=3 JMax=2 DiffMx= 0.00D+00
 G2DrvN: will do    13 centers at a time, making    1 passes.
 Calling FoFCou, ICntrl=  3107 FMM=F I1Cent=   0 AccDes= 0.00D+00.
 End of G2Drv F.D. properties file   721 does not exist.
 End of G2Drv F.D. properties file   722 does not exist.
 End of G2Drv F.D. properties file   788 does not exist.
          IDoAtm=111111111111
          Differentiating once with respect to electric field.
                with respect to dipole field.
          Differentiating once with respect to nuclear coordinates.
 Keep R1 ints in memory in canonical form, NReq=47193559.
          There are    39 degrees of freedom in the 1st order CPHF.  IDoFFX=6 NUNeed=     3.
     36 vectors produced by pass  0 Test12= 6.28D-15 2.56D-09 XBig12= 1.67D+02 7.52D+00.
 AX will form    36 AO Fock derivatives at one time.
     36 vectors produced by pass  1 Test12= 6.28D-15 2.56D-09 XBig12= 3.37D+01 1.07D+00.
     36 vectors produced by pass  2 Test12= 6.28D-15 2.56D-09 XBig12= 5.10D-01 1.01D-01.
     36 vectors produced by pass  3 Test12= 6.28D-15 2.56D-09 XBig12= 2.89D-03 8.30D-03.
     36 vectors produced by pass  4 Test12= 6.28D-15 2.56D-09 XBig12= 7.29D-06 4.03D-04.
     28 vectors produced by pass  5 Test12= 6.28D-15 2.56D-09 XBig12= 9.17D-09 1.25D-05.
      5 vectors produced by pass  6 Test12= 6.28D-15 2.56D-09 XBig12= 9.81D-12 3.88D-07.
      3 vectors produced by pass  7 Test12= 6.28D-15 2.56D-09 XBig12= 8.85D-15 1.36D-08.
 InvSVY:  IOpt=1 It=  1 EMax= 3.55D-15
 Solved reduced A of dimension   216 with    39 vectors.
 Isotropic polarizability for W=    0.000000       71.33 Bohr**3.
 End of Minotr F.D. properties file   721 does not exist.
 End of Minotr F.D. properties file   722 does not exist.
 End of Minotr F.D. properties file   788 does not exist.
 Calling FoFJK, ICntrl=    100127 FMM=F ISym2X=0 I1Cent= 0 IOpClX= 0 NMat=1 NMatS=1 NMatT=0.
 ***** Axes restored to original set *****
 -------------------------------------------------------------------
 Center     Atomic                   Forces (Hartrees/Bohr)
 Number     Number              X              Y              Z
 -------------------------------------------------------------------
      1        6          -0.003660410    0.018453680    0.037879501
      2        6          -0.019015605    0.015662831    0.017809303
      3        6          -0.013363991   -0.001887136    0.009551963
      4        8           0.007893937    0.002226854   -0.022262733
      5        8          -0.010485050   -0.005774145    0.009554389
      6        8           0.014671143   -0.002817438   -0.002405791
      7        1           0.004533871    0.000414838   -0.002778485
      8        1          -0.013361832    0.005566118   -0.003883317
      9        1           0.008155896   -0.000452200   -0.002671459
     10        1           0.002045639   -0.001114897   -0.002851852
     11        1           0.000645721    0.002154533   -0.004864485
     12        1           0.021940683   -0.032433037   -0.033077034
 -------------------------------------------------------------------
 Cartesian Forces:  Max     0.037879501 RMS     0.013953584
 FormGI is forming the generalized inverse of G from B-inverse, IUseBI=4.

 GradGradGradGradGradGradGradGradGradGradGradGradGradGradGradGradGradGrad
 Berny optimization.
 Internal  Forces:  Max     0.082458519 RMS     0.017206039
 Search for a saddle point.
 Step number   2 out of a maximum of  100
 All quantities printed in internal units (Hartrees-Bohrs-Radians)
 Swapping is turned off.
 Second derivative matrix not updated -- analytic derivatives used.
 ITU=  0  0
     Eigenvalues ---   -1.26856  -0.03082  -0.00411   0.00214   0.00822
     Eigenvalues ---    0.01333   0.02132   0.02909   0.03754   0.06151
     Eigenvalues ---    0.06285   0.07236   0.08074   0.10092   0.12428
     Eigenvalues ---    0.13807   0.15812   0.19573   0.19808   0.22206
     Eigenvalues ---    0.29882   0.30656   0.35852   0.36829   0.37462
     Eigenvalues ---    0.39219   0.40713   0.48954   0.57345   0.79709
 Eigenvectors required to have negative eigenvalues:
                          R3        A15       A2        R11       A4
   1                    0.46854   0.45183   0.37063  -0.33439  -0.25526
                          D10       D8        R1        D12       A6
   1                   -0.23214  -0.21699  -0.18950  -0.17064  -0.14311
 RFO step:  Lambda0=3.831223524D-03 Lambda=-7.29966549D-02.
 Linear search not attempted -- option 19 set.
 Maximum step size (   0.300) exceeded in Quadratic search.
    -- Step size scaled by   0.337
 Iteration  1 RMS(Cart)=  0.08038781 RMS(Int)=  0.00728631
 Iteration  2 RMS(Cart)=  0.00748509 RMS(Int)=  0.00016662
 Iteration  3 RMS(Cart)=  0.00007958 RMS(Int)=  0.00015349
 Iteration  4 RMS(Cart)=  0.00000001 RMS(Int)=  0.00015349
 Variable       Old X    -DE/DX   Delta X   Delta X   Delta X     New X
                                 (Linear)    (Quad)   (Total)
    R1        2.76564   0.01020   0.00000  -0.03065  -0.03065   2.73499
    R2        2.50062   0.00015   0.00000  -0.01405  -0.01405   2.48657
    R3        3.35311  -0.03182   0.00000   0.13781   0.13781   3.49092
    R4        2.04224   0.00754   0.00000   0.00609   0.00609   2.04833
    R5        2.67430   0.00727   0.00000   0.01627   0.01627   2.69057
    R6        2.05746  -0.00020   0.00000  -0.00120  -0.00120   2.05626
    R7        2.32599   0.01478   0.00000  -0.00044  -0.00044   2.32555
    R8        2.10661  -0.00218   0.00000  -0.00276  -0.00276   2.10386
    R9        2.67710   0.00642   0.00000   0.01544   0.01544   2.69254
   R10        1.84565   0.00116   0.00000  -0.00076  -0.00076   1.84489
   R11        2.71824  -0.03165   0.00000  -0.18628  -0.18628   2.53196
    A1        2.12491  -0.01204   0.00000   0.00808   0.00776   2.13267
    A2        1.65649  -0.01222   0.00000   0.00190   0.00192   1.65841
    A3        2.15458   0.01712   0.00000   0.02266   0.02225   2.17683
    A4        1.67477   0.01964   0.00000   0.02441   0.02432   1.69908
    A5        1.90583  -0.00545   0.00000  -0.01343  -0.01356   1.89227
    A6        1.79859  -0.00579   0.00000  -0.06383  -0.06354   1.73505
    A7        2.05420  -0.00248   0.00000  -0.00933  -0.00933   2.04487
    A8        2.08097  -0.00450   0.00000  -0.00551  -0.00550   2.07546
    A9        2.07396   0.00645   0.00000   0.01474   0.01474   2.08870
   A10        2.18106  -0.00440   0.00000  -0.00474  -0.00475   2.17631
   A11        1.99149   0.00458   0.00000   0.00616   0.00615   1.99764
   A12        2.10981  -0.00022   0.00000  -0.00176  -0.00177   2.10804
   A13        1.95038  -0.01238   0.00000  -0.00008  -0.00008   1.95030
   A14        1.76901  -0.00922   0.00000  -0.01357  -0.01357   1.75543
   A15        1.35574  -0.08246   0.00000  -0.16795  -0.16795   1.18778
    D1        3.11496  -0.00213   0.00000  -0.00335  -0.00324   3.11171
    D2        0.38161  -0.00228   0.00000  -0.00657  -0.00648   0.37513
    D3       -1.42086   0.01104   0.00000   0.02858   0.02875  -1.39211
    D4        2.12898   0.01089   0.00000   0.02536   0.02552   2.15450
    D5        0.48455   0.00044   0.00000  -0.04196  -0.04222   0.44233
    D6       -2.24880   0.00029   0.00000  -0.04518  -0.04546  -2.29426
    D7        0.49704  -0.00441   0.00000  -0.03947  -0.03921   0.45783
    D8       -1.24030   0.00005   0.00000  -0.05918  -0.05922  -1.29952
    D9       -3.09151  -0.00027   0.00000   0.00294   0.00273  -3.08878
   D10       -0.69887   0.03134   0.00000   0.09575   0.09599  -0.60288
   D11        1.44232   0.02019   0.00000   0.10846   0.10867   1.55099
   D12       -2.89800   0.01900   0.00000   0.08854   0.08810  -2.80990
   D13        0.00266   0.00382   0.00000   0.01722   0.01723   0.01989
   D14        3.10080   0.00307   0.00000   0.00816   0.00817   3.10897
   D15        2.73769   0.00136   0.00000   0.01560   0.01559   2.75327
   D16       -0.44737   0.00060   0.00000   0.00654   0.00653  -0.44083
   D17        2.85994  -0.00265   0.00000  -0.00016  -0.00016   2.85978
         Item               Value     Threshold  Converged?
 Maximum Force            0.082459     0.000450     NO 
 RMS     Force            0.017206     0.000300     NO 
 Maximum Displacement     0.302955     0.001800     NO 
 RMS     Displacement     0.079274     0.001200     NO 
 Predicted change in Energy=-2.487528D-02
 GradGradGradGradGradGradGradGradGradGradGradGradGradGradGradGradGradGrad

                          Input orientation:                          
 ---------------------------------------------------------------------
 Center     Atomic      Atomic             Coordinates (Angstroms)
 Number     Number       Type             X           Y           Z
 ---------------------------------------------------------------------
      1          6           0        1.421360    1.345981   -2.183159
      2          6           0        0.534496    0.453717   -1.467621
      3          6           0        1.006363   -0.865202   -1.212739
      4          8           0        1.073378    2.574724   -2.500213
      5          8           0        0.092961    3.093139   -1.605694
      6          8           0        2.115146   -1.287733   -1.539111
      7          1           0        0.153800    4.046676   -1.806142
      8          1           0        2.452633    1.765332   -0.708983
      9          1           0        2.203780    1.025770   -2.861527
     10          1           0        0.302182   -1.502417   -0.631746
     11          1           0       -0.535873    0.648503   -1.487203
     12          1           0        1.166187    1.579687   -0.383700
 ---------------------------------------------------------------------
                    Distance matrix (angstroms):
                    1          2          3          4          5
     1  C    0.000000
     2  C    1.447293   0.000000
     3  C    2.450157   1.423788   0.000000
     4  O    1.315836   2.419775   3.673577   0.000000
     5  O    2.269509   2.679658   4.081322   1.424829   0.000000
     6  O    2.798676   2.352916   1.230630   4.114313   4.825527
     7  H    3.007092   3.628895   5.020512   1.869225   0.976275
     8  H    1.847316   2.444406   3.043876   2.401242   2.852230
     9  H    1.083928   2.248717   2.779943   1.951311   3.210404
    10  H    3.431153   2.139887   1.113313   4.550713   4.702285
    11  H    2.191253   1.088125   2.178331   2.706696   2.526998
    12  H    1.832425   1.685742   2.586568   2.340585   2.221626
                    6          7          8          9         10
     6  O    0.000000
     7  H    5.689825   0.000000
     8  H    3.181858   3.419491   0.000000
     9  H    2.666258   3.800280   2.289613   0.000000
    10  H    2.038685   5.673945   3.912619   3.870364   0.000000
    11  H    3.283232   3.482090   3.283916   3.088170   2.461829
    12  H    3.233820   3.022301   1.339857   2.742817   3.210513
                   11         12
    11  H    0.000000
    12  H    2.232002   0.000000
 Stoichiometry    C3H6O3
 Framework group  C1[X(C3H6O3)]
 Deg. of freedom    30
 Full point group                 C1      NOp   1
 Largest Abelian subgroup         C1      NOp   1
 Largest concise Abelian subgroup C1      NOp   1
                         Standard orientation:                         
 ---------------------------------------------------------------------
 Center     Atomic      Atomic             Coordinates (Angstroms)
 Number     Number       Type             X           Y           Z
 ---------------------------------------------------------------------
      1          6           0        0.299707   -0.618251   -0.116586
      2          6           0       -0.439774    0.624197   -0.180979
      3          6           0       -1.856426    0.544290   -0.063153
      4          8           0        1.608271   -0.662821   -0.247341
      5          8           0        2.219704    0.563941    0.141683
      6          8           0       -2.487337   -0.498302    0.108326
      7          1           0        3.147725    0.277821    0.241817
      8          1           0        0.241778   -0.745555    1.725427
      9          1           0       -0.103547   -1.590826   -0.374238
     10          1           0       -2.377042    1.528114   -0.085871
     11          1           0        0.011985    1.480176   -0.678200
     12          1           0        0.332955    0.526314    1.314025
 ---------------------------------------------------------------------
 Rotational constants (GHZ):          11.4024402           1.7598045           1.5957930
 Standard basis: 6-31+G(d) (6D, 7F)
 There are   126 symmetry adapted cartesian basis functions of A   symmetry.
 There are   126 symmetry adapted basis functions of A   symmetry.
   126 basis functions,   216 primitive gaussians,   126 cartesian basis functions
    24 alpha electrons       24 beta electrons
       nuclear repulsion energy       238.7078290231 Hartrees.
 NAtoms=   12 NActive=   12 NUniq=   12 SFac= 1.00D+00 NAtFMM=   60 NAOKFM=F Big=F
 Integral buffers will be    131072 words long.
 Raffenetti 2 integral format.
 Two-electron integral symmetry is turned on.
 One-electron integrals computed using PRISM.
 NBasis=   126 RedAO= T EigKep=  7.50D-05  NBF=   126
 NBsUse=   126 1.00D-06 EigRej= -1.00D+00 NBFU=   126
 Initial guess from the checkpoint file:  "/scratch/bell/zhao922/YARP/paper-example/KHP-network/pp_0/TS-folder/Gau-3841.chk"
 B after Tr=    -0.000000    0.000000   -0.000000
         Rot=    0.999832   -0.018151    0.002514    0.000536 Ang=  -2.10 deg.
 ExpMin= 4.38D-02 ExpMax= 5.48D+03 ExpMxC= 8.25D+02 IAcc=3 IRadAn=         5 AccDes= 0.00D+00
 Harris functional with IExCor=  402 and IRadAn=       5 diagonalized for initial guess.
 HarFok:  IExCor=  402 AccDes= 0.00D+00 IRadAn=         5 IDoV= 1 UseB2=F ITyADJ=14
 ICtDFT=  3500011 ScaDFX=  1.000000  1.000000  1.000000  1.000000
 FoFCou: FMM=F IPFlag=           0 FMFlag=      100000 FMFlg1=           0
         NFxFlg=           0 DoJE=T BraDBF=F KetDBF=T FulRan=T
         wScrn=  0.000000 ICntrl=       500 IOpCl=  0 I1Cent=   200000004 NGrid=           0
         NMat0=    1 NMatS0=      1 NMatT0=    0 NMatD0=    1 NMtDS0=    0 NMtDT0=    0
 Petite list used in FoFCou.
 Keep R1 ints in memory in canonical form, NReq=47237537.
 Requested convergence on RMS density matrix=1.00D-08 within 128 cycles.
 Requested convergence on MAX density matrix=1.00D-06.
 Requested convergence on             energy=1.00D-06.
 No special actions if energy rises.
 SCF Done:  E(RB3LYP) =  -343.290059156     A.U. after   15 cycles
            NFock= 15  Conv=0.58D-08     -V/T= 2.0093
 DoSCS=F DFT=T ScalE2(SS,OS)=  1.000000  1.000000
 Range of M.O.s used for correlation:     1   126
 NBasis=   126 NAE=    24 NBE=    24 NFC=     0 NFV=     0
 NROrb=    126 NOA=    24 NOB=    24 NVA=   102 NVB=   102

 **** Warning!!: The largest alpha MO coefficient is  0.33771994D+02


 **** Warning!!: The smallest alpha delta epsilon is  0.96176864D-01

 Symmetrizing basis deriv contribution to polar:
 IMax=3 JMax=2 DiffMx= 0.00D+00
 G2DrvN: will do    13 centers at a time, making    1 passes.
 Calling FoFCou, ICntrl=  3107 FMM=F I1Cent=   0 AccDes= 0.00D+00.
 End of G2Drv F.D. properties file   721 does not exist.
 End of G2Drv F.D. properties file   722 does not exist.
 End of G2Drv F.D. properties file   788 does not exist.
          IDoAtm=111111111111
          Differentiating once with respect to electric field.
                with respect to dipole field.
          Differentiating once with respect to nuclear coordinates.
 Keep R1 ints in memory in canonical form, NReq=47193559.
          There are    39 degrees of freedom in the 1st order CPHF.  IDoFFX=6 NUNeed=     3.
     36 vectors produced by pass  0 Test12= 6.28D-15 2.56D-09 XBig12= 1.08D+02 7.26D+00.
 AX will form    36 AO Fock derivatives at one time.
     36 vectors produced by pass  1 Test12= 6.28D-15 2.56D-09 XBig12= 2.31D+01 8.77D-01.
     36 vectors produced by pass  2 Test12= 6.28D-15 2.56D-09 XBig12= 4.03D-01 9.96D-02.
     36 vectors produced by pass  3 Test12= 6.28D-15 2.56D-09 XBig12= 2.81D-03 8.01D-03.
     36 vectors produced by pass  4 Test12= 6.28D-15 2.56D-09 XBig12= 6.46D-06 3.58D-04.
     29 vectors produced by pass  5 Test12= 6.28D-15 2.56D-09 XBig12= 7.08D-09 1.00D-05.
      4 vectors produced by pass  6 Test12= 6.28D-15 2.56D-09 XBig12= 6.82D-12 3.72D-07.
      2 vectors produced by pass  7 Test12= 6.28D-15 2.56D-09 XBig12= 5.77D-15 1.16D-08.
 InvSVY:  IOpt=1 It=  1 EMax= 5.33D-15
 Solved reduced A of dimension   215 with    39 vectors.
 Isotropic polarizability for W=    0.000000       67.35 Bohr**3.
 End of Minotr F.D. properties file   721 does not exist.
 End of Minotr F.D. properties file   722 does not exist.
 End of Minotr F.D. properties file   788 does not exist.
 Calling FoFJK, ICntrl=    100127 FMM=F ISym2X=0 I1Cent= 0 IOpClX= 0 NMat=1 NMatS=1 NMatT=0.
 ***** Axes restored to original set *****
 -------------------------------------------------------------------
 Center     Atomic                   Forces (Hartrees/Bohr)
 Number     Number              X              Y              Z
 -------------------------------------------------------------------
      1        6          -0.016883184    0.010234923    0.019464508
      2        6          -0.012909679    0.010668772    0.009087115
      3        6          -0.009924753   -0.002823123    0.005687513
      4        8           0.010222266    0.004439812   -0.016781893
      5        8          -0.010331633   -0.004284846    0.006092508
      6        8           0.010735307   -0.001401464   -0.000652815
      7        1           0.003510801    0.000208564   -0.002031969
      8        1          -0.018662245    0.006393616    0.005917558
      9        1           0.008842234   -0.001836514    0.002692460
     10        1           0.001476092   -0.000964589   -0.002598315
     11        1           0.001099981    0.002880276   -0.000791650
     12        1           0.032824813   -0.023515428   -0.026085020
 -------------------------------------------------------------------
 Cartesian Forces:  Max     0.032824813 RMS     0.011566933
 FormGI is forming the generalized inverse of G from B-inverse, IUseBI=4.

 GradGradGradGradGradGradGradGradGradGradGradGradGradGradGradGradGradGrad
 Berny optimization.
 Internal  Forces:  Max     0.056661083 RMS     0.012579234
 Search for a saddle point.
 Step number   3 out of a maximum of  100
 All quantities printed in internal units (Hartrees-Bohrs-Radians)
 Swapping is turned off.
 Second derivative matrix not updated -- analytic derivatives used.
 ITU=  0  0  0
     Eigenvalues ---   -1.00470  -0.01008   0.00417   0.00556   0.00795
     Eigenvalues ---    0.01882   0.02416   0.02840   0.03610   0.05738
     Eigenvalues ---    0.06613   0.07432   0.08487   0.10106   0.12931
     Eigenvalues ---    0.15828   0.16680   0.19660   0.19707   0.22533
     Eigenvalues ---    0.30159   0.30340   0.36046   0.36571   0.37068
     Eigenvalues ---    0.39499   0.41892   0.49169   0.57759   0.79618
 Eigenvectors required to have negative eigenvalues:
                          R3        R11       A15       A2        A4
   1                   -0.47103   0.43061  -0.42355  -0.36534   0.24504
                          D10       D8        R1        A6        D12
   1                    0.21409   0.20938   0.17498   0.14618   0.14466
 RFO step:  Lambda0=9.027870016D-04 Lambda=-5.07557085D-02.
 Linear search not attempted -- option 19 set.
 Maximum step size (   0.300) exceeded in Quadratic search.
    -- Step size scaled by   0.403
 Iteration  1 RMS(Cart)=  0.08223780 RMS(Int)=  0.00858715
 Iteration  2 RMS(Cart)=  0.00914604 RMS(Int)=  0.00022276
 Iteration  3 RMS(Cart)=  0.00011254 RMS(Int)=  0.00020422
 Iteration  4 RMS(Cart)=  0.00000002 RMS(Int)=  0.00020422
 Variable       Old X    -DE/DX   Delta X   Delta X   Delta X     New X
                                 (Linear)    (Quad)   (Total)
    R1        2.73499   0.00599   0.00000  -0.02230  -0.02230   2.71269
    R2        2.48657   0.00251   0.00000  -0.00410  -0.00410   2.48247
    R3        3.49092  -0.01207   0.00000   0.19846   0.19846   3.68938
    R4        2.04833   0.00524   0.00000   0.00238   0.00238   2.05070
    R5        2.69057   0.00600   0.00000   0.02285   0.02285   2.71341
    R6        2.05626  -0.00055   0.00000  -0.00272  -0.00272   2.05354
    R7        2.32555   0.01033   0.00000  -0.00309  -0.00309   2.32247
    R8        2.10386  -0.00174   0.00000  -0.00383  -0.00383   2.10003
    R9        2.69254   0.00576   0.00000   0.01813   0.01813   2.71066
   R10        1.84489   0.00084   0.00000  -0.00066  -0.00066   1.84423
   R11        2.53196  -0.03459   0.00000  -0.07096  -0.07096   2.46101
    A1        2.13267  -0.00658   0.00000   0.01321   0.01270   2.14537
    A2        1.65841  -0.00389   0.00000   0.00319   0.00307   1.66148
    A3        2.17683   0.01042   0.00000   0.00920   0.00833   2.18516
    A4        1.69908   0.01277   0.00000   0.01923   0.01913   1.71821
    A5        1.89227  -0.00361   0.00000   0.00049   0.00014   1.89240
    A6        1.73505  -0.00874   0.00000  -0.07707  -0.07696   1.65810
    A7        2.04487  -0.00223   0.00000  -0.00290  -0.00291   2.04197
    A8        2.07546  -0.00302   0.00000  -0.00042  -0.00043   2.07503
    A9        2.08870   0.00502   0.00000   0.00576   0.00576   2.09445
   A10        2.17631  -0.00342   0.00000  -0.00464  -0.00464   2.17166
   A11        1.99764   0.00358   0.00000   0.00440   0.00440   2.00204
   A12        2.10804  -0.00020   0.00000   0.00006   0.00006   2.10810
   A13        1.95030  -0.00813   0.00000   0.00010   0.00010   1.95040
   A14        1.75543  -0.00707   0.00000  -0.01451  -0.01451   1.74092
   A15        1.18778  -0.05666   0.00000  -0.19093  -0.19093   0.99685
    D1        3.11171  -0.00231   0.00000  -0.03326  -0.03321   3.07851
    D2        0.37513  -0.00293   0.00000  -0.04094  -0.04088   0.33426
    D3       -1.39211   0.00901   0.00000  -0.00508  -0.00500  -1.39710
    D4        2.15450   0.00838   0.00000  -0.01276  -0.01267   2.14183
    D5        0.44233  -0.00189   0.00000  -0.09635  -0.09650   0.34583
    D6       -2.29426  -0.00252   0.00000  -0.10402  -0.10417  -2.39842
    D7        0.45783  -0.00324   0.00000  -0.06075  -0.06064   0.39719
    D8       -1.29952  -0.00539   0.00000  -0.08069  -0.08076  -1.38028
    D9       -3.08878   0.00002   0.00000  -0.00513  -0.00516  -3.09394
   D10       -0.60288   0.02369   0.00000   0.12174   0.12217  -0.48071
   D11        1.55099   0.01854   0.00000   0.13964   0.13979   1.69078
   D12       -2.80990   0.01594   0.00000   0.12917   0.12859  -2.68131
   D13        0.01989   0.00354   0.00000   0.00968   0.00967   0.02956
   D14        3.10897   0.00249   0.00000   0.00586   0.00586   3.11483
   D15        2.75327   0.00221   0.00000   0.01590   0.01591   2.76918
   D16       -0.44083   0.00116   0.00000   0.01209   0.01209  -0.42874
   D17        2.85978  -0.00189   0.00000  -0.00914  -0.00914   2.85064
         Item               Value     Threshold  Converged?
 Maximum Force            0.056661     0.000450     NO 
 RMS     Force            0.012579     0.000300     NO 
 Maximum Displacement     0.266072     0.001800     NO 
 RMS     Displacement     0.084718     0.001200     NO 
 Predicted change in Energy=-1.934340D-02
 GradGradGradGradGradGradGradGradGradGradGradGradGradGradGradGradGradGrad

                          Input orientation:                          
 ---------------------------------------------------------------------
 Center     Atomic      Atomic             Coordinates (Angstroms)
 Number     Number       Type             X           Y           Z
 ---------------------------------------------------------------------
      1          6           0        1.403423    1.359285   -2.161138
      2          6           0        0.524659    0.478129   -1.445609
      3          6           0        0.989560   -0.860851   -1.215951
      4          8           0        1.068766    2.584915   -2.495142
      5          8           0        0.024443    3.098066   -1.656314
      6          8           0        2.090150   -1.283388   -1.563223
      7          1           0        0.108154    4.050463   -1.852176
      8          1           0        2.526545    1.778523   -0.620211
      9          1           0        2.225988    1.043586   -2.794659
     10          1           0        0.291279   -1.501960   -0.636002
     11          1           0       -0.540629    0.692520   -1.436610
     12          1           0        1.274074    1.438888   -0.510803
 ---------------------------------------------------------------------
                    Distance matrix (angstroms):
                    1          2          3          4          5
     1  C    0.000000
     2  C    1.435495   0.000000
     3  C    2.448196   1.435877   0.000000
     4  O    1.313667   2.415806   3.676398   0.000000
     5  O    2.275916   2.675572   4.098584   1.434422   0.000000
     6  O    2.795142   2.359562   1.228997   4.107976   4.844889
     7  H    3.002602   3.619440   5.030175   1.866551   0.975925
     8  H    1.952337   2.525837   3.111837   2.508137   3.012510
     9  H    1.085185   2.243702   2.765493   1.950531   3.219242
    10  H    3.427773   2.151902   1.111287   4.556691   4.719373
    11  H    2.179187   1.086684   2.191604   2.700333   2.480772
    12  H    1.657309   1.535754   2.422185   2.300680   2.372055
                    6          7          8          9         10
     6  O    0.000000
     7  H    5.697523   0.000000
     8  H    3.233421   3.539500   0.000000
     9  H    2.636227   3.796684   2.314884   0.000000
    10  H    2.035546   5.687005   3.969665   3.857810   0.000000
    11  H    3.292603   3.445199   3.354619   3.101888   2.479675
    12  H    3.030569   3.158952   1.302309   2.505674   3.103248
                   11         12
    11  H    0.000000
    12  H    2.169638   0.000000
 Stoichiometry    C3H6O3
 Framework group  C1[X(C3H6O3)]
 Deg. of freedom    30
 Full point group                 C1      NOp   1
 Largest Abelian subgroup         C1      NOp   1
 Largest concise Abelian subgroup C1      NOp   1
                         Standard orientation:                         
 ---------------------------------------------------------------------
 Center     Atomic      Atomic             Coordinates (Angstroms)
 Number     Number       Type             X           Y           Z
 ---------------------------------------------------------------------
      1          6           0        0.300068   -0.601721   -0.114168
      2          6           0       -0.426390    0.636330   -0.125754
      3          6           0       -1.857874    0.552807   -0.050789
      4          8           0        1.605501   -0.664779   -0.246794
      5          8           0        2.237168    0.570119    0.118707
      6          8           0       -2.488203   -0.497265    0.051516
      7          1           0        3.156051    0.259850    0.227407
      8          1           0        0.195979   -0.849697    1.819557
      9          1           0       -0.116721   -1.573856   -0.356794
     10          1           0       -2.380244    1.533550   -0.035557
     11          1           0        0.044908    1.517634   -0.552444
     12          1           0        0.169471    0.323423    1.254673
 ---------------------------------------------------------------------
 Rotational constants (GHZ):          11.4593860           1.7563289           1.5890019
 Standard basis: 6-31+G(d) (6D, 7F)
 There are   126 symmetry adapted cartesian basis functions of A   symmetry.
 There are   126 symmetry adapted basis functions of A   symmetry.
   126 basis functions,   216 primitive gaussians,   126 cartesian basis functions
    24 alpha electrons       24 beta electrons
       nuclear repulsion energy       238.7400740860 Hartrees.
 NAtoms=   12 NActive=   12 NUniq=   12 SFac= 1.00D+00 NAtFMM=   60 NAOKFM=F Big=F
 Integral buffers will be    131072 words long.
 Raffenetti 2 integral format.
 Two-electron integral symmetry is turned on.
 One-electron integrals computed using PRISM.
 NBasis=   126 RedAO= T EigKep=  7.42D-05  NBF=   126
 NBsUse=   126 1.00D-06 EigRej= -1.00D+00 NBFU=   126
 Initial guess from the checkpoint file:  "/scratch/bell/zhao922/YARP/paper-example/KHP-network/pp_0/TS-folder/Gau-3841.chk"
 B after Tr=     0.000000   -0.000000    0.000000
         Rot=    0.999850   -0.017173    0.001904    0.001036 Ang=  -1.98 deg.
 ExpMin= 4.38D-02 ExpMax= 5.48D+03 ExpMxC= 8.25D+02 IAcc=3 IRadAn=         5 AccDes= 0.00D+00
 Harris functional with IExCor=  402 and IRadAn=       5 diagonalized for initial guess.
 HarFok:  IExCor=  402 AccDes= 0.00D+00 IRadAn=         5 IDoV= 1 UseB2=F ITyADJ=14
 ICtDFT=  3500011 ScaDFX=  1.000000  1.000000  1.000000  1.000000
 FoFCou: FMM=F IPFlag=           0 FMFlag=      100000 FMFlg1=           0
         NFxFlg=           0 DoJE=T BraDBF=F KetDBF=T FulRan=T
         wScrn=  0.000000 ICntrl=       500 IOpCl=  0 I1Cent=   200000004 NGrid=           0
         NMat0=    1 NMatS0=      1 NMatT0=    0 NMatD0=    1 NMtDS0=    0 NMtDT0=    0
 Petite list used in FoFCou.
 Keep R1 ints in memory in canonical form, NReq=47237537.
 Requested convergence on RMS density matrix=1.00D-08 within 128 cycles.
 Requested convergence on MAX density matrix=1.00D-06.
 Requested convergence on             energy=1.00D-06.
 No special actions if energy rises.
 SCF Done:  E(RB3LYP) =  -343.308468727     A.U. after   15 cycles
            NFock= 15  Conv=0.21D-08     -V/T= 2.0092
 DoSCS=F DFT=T ScalE2(SS,OS)=  1.000000  1.000000
 Range of M.O.s used for correlation:     1   126
 NBasis=   126 NAE=    24 NBE=    24 NFC=     0 NFV=     0
 NROrb=    126 NOA=    24 NOB=    24 NVA=   102 NVB=   102

 **** Warning!!: The largest alpha MO coefficient is  0.33220454D+02

 Symmetrizing basis deriv contribution to polar:
 IMax=3 JMax=2 DiffMx= 0.00D+00
 G2DrvN: will do    13 centers at a time, making    1 passes.
 Calling FoFCou, ICntrl=  3107 FMM=F I1Cent=   0 AccDes= 0.00D+00.
 End of G2Drv F.D. properties file   721 does not exist.
 End of G2Drv F.D. properties file   722 does not exist.
 End of G2Drv F.D. properties file   788 does not exist.
          IDoAtm=111111111111
          Differentiating once with respect to electric field.
                with respect to dipole field.
          Differentiating once with respect to nuclear coordinates.
 Keep R1 ints in memory in canonical form, NReq=47193559.
          There are    39 degrees of freedom in the 1st order CPHF.  IDoFFX=6 NUNeed=     3.
     36 vectors produced by pass  0 Test12= 6.28D-15 2.56D-09 XBig12= 1.02D+02 5.91D+00.
 AX will form    36 AO Fock derivatives at one time.
     36 vectors produced by pass  1 Test12= 6.28D-15 2.56D-09 XBig12= 2.12D+01 8.61D-01.
     36 vectors produced by pass  2 Test12= 6.28D-15 2.56D-09 XBig12= 3.36D-01 8.18D-02.
     36 vectors produced by pass  3 Test12= 6.28D-15 2.56D-09 XBig12= 2.39D-03 8.11D-03.
     36 vectors produced by pass  4 Test12= 6.28D-15 2.56D-09 XBig12= 4.60D-06 2.81D-04.
     29 vectors produced by pass  5 Test12= 6.28D-15 2.56D-09 XBig12= 4.84D-09 1.07D-05.
      4 vectors produced by pass  6 Test12= 6.28D-15 2.56D-09 XBig12= 3.45D-12 2.13D-07.
      1 vectors produced by pass  7 Test12= 6.28D-15 2.56D-09 XBig12= 2.46D-15 5.81D-09.
 InvSVY:  IOpt=1 It=  1 EMax= 3.77D-15
 Solved reduced A of dimension   214 with    39 vectors.
 Isotropic polarizability for W=    0.000000       66.64 Bohr**3.
 End of Minotr F.D. properties file   721 does not exist.
 End of Minotr F.D. properties file   722 does not exist.
 End of Minotr F.D. properties file   788 does not exist.
 Calling FoFJK, ICntrl=    100127 FMM=F ISym2X=0 I1Cent= 0 IOpClX= 0 NMat=1 NMatS=1 NMatT=0.
 ***** Axes restored to original set *****
 -------------------------------------------------------------------
 Center     Atomic                   Forces (Hartrees/Bohr)
 Number     Number              X              Y              Z
 -------------------------------------------------------------------
      1        6          -0.019970982    0.006029981    0.010226267
      2        6          -0.008806949    0.002699894   -0.001513198
      3        6          -0.007527034   -0.001908882    0.002631814
      4        8           0.009382537    0.005258542   -0.012060927
      5        8          -0.008464484   -0.003561430    0.002998104
      6        8           0.007892434   -0.000867272    0.000170396
      7        1           0.002579846    0.000241055   -0.001179835
      8        1          -0.021725534    0.001930176    0.004233888
      9        1           0.007642111   -0.002671239    0.005780738
     10        1           0.000751329   -0.000784367   -0.002265803
     11        1           0.001490917    0.003704826    0.003152798
     12        1           0.036755809   -0.010071285   -0.012174240
 -------------------------------------------------------------------
 Cartesian Forces:  Max     0.036755809 RMS     0.009639664
 FormGI is forming the generalized inverse of G from B-inverse, IUseBI=4.

 GradGradGradGradGradGradGradGradGradGradGradGradGradGradGradGradGradGrad
 Berny optimization.
 Internal  Forces:  Max     0.033745702 RMS     0.008262647
 Search for a saddle point.
 Step number   4 out of a maximum of  100
 All quantities printed in internal units (Hartrees-Bohrs-Radians)
 Swapping is turned off.
 Second derivative matrix not updated -- analytic derivatives used.
 ITU=  0  0  0  0
     Eigenvalues ---   -0.58856  -0.00186   0.00440   0.00473   0.00741
     Eigenvalues ---    0.01664   0.02274   0.02595   0.04057   0.05158
     Eigenvalues ---    0.07264   0.08135   0.10054   0.10148   0.13453
     Eigenvalues ---    0.16117   0.17869   0.19388   0.22257   0.22661
     Eigenvalues ---    0.30136   0.30605   0.35260   0.36468   0.36913
     Eigenvalues ---    0.39565   0.43145   0.49340   0.57602   0.79974
 Eigenvectors required to have negative eigenvalues:
                          R11       R3        A2        A4        A15
   1                    0.59324  -0.48267  -0.35517   0.23828  -0.23823
                          D8        D10       R1        A6        D12
   1                    0.20289   0.18011   0.16363   0.14825   0.11135
 RFO step:  Lambda0=2.669269702D-04 Lambda=-2.74722623D-02.
 Linear search not attempted -- option 19 set.
 Maximum step size (   0.300) exceeded in Quadratic search.
    -- Step size scaled by   0.288
 Iteration  1 RMS(Cart)=  0.05802644 RMS(Int)=  0.00590683
 Iteration  2 RMS(Cart)=  0.00788044 RMS(Int)=  0.00043290
 Iteration  3 RMS(Cart)=  0.00001585 RMS(Int)=  0.00043280
 Iteration  4 RMS(Cart)=  0.00000001 RMS(Int)=  0.00043280
 Variable       Old X    -DE/DX   Delta X   Delta X   Delta X     New X
                                 (Linear)    (Quad)   (Total)
    R1        2.71269   0.00313   0.00000   0.01725   0.01725   2.72995
    R2        2.48247   0.00352   0.00000   0.01939   0.01939   2.50187
    R3        3.68938   0.00063   0.00000  -0.23360  -0.23360   3.45578
    R4        2.05070   0.00319   0.00000   0.00267   0.00267   2.05338
    R5        2.71341   0.00377   0.00000  -0.00584  -0.00584   2.70757
    R6        2.05354  -0.00070   0.00000  -0.00335  -0.00335   2.05019
    R7        2.32247   0.00732   0.00000   0.00642   0.00642   2.32889
    R8        2.10003  -0.00120   0.00000  -0.00157  -0.00157   2.09846
    R9        2.71066   0.00416   0.00000   0.01508   0.01508   2.72575
   R10        1.84423   0.00069   0.00000  -0.00045  -0.00045   1.84378
   R11        2.46101  -0.03375   0.00000  -0.16077  -0.16077   2.30024
    A1        2.14537  -0.00235   0.00000  -0.00685  -0.00853   2.13685
    A2        1.66148   0.00582   0.00000   0.04842   0.04821   1.70968
    A3        2.18516   0.00351   0.00000  -0.00969  -0.00983   2.17533
    A4        1.71821   0.00451   0.00000   0.05095   0.05074   1.76895
    A5        1.89240  -0.00135   0.00000  -0.00401  -0.00405   1.88836
    A6        1.65810  -0.01044   0.00000  -0.04759  -0.04725   1.61084
    A7        2.04197  -0.00193   0.00000  -0.01049  -0.01071   2.03126
    A8        2.07503  -0.00165   0.00000   0.00518   0.00491   2.07995
    A9        2.09445   0.00372   0.00000   0.01976   0.01956   2.11402
   A10        2.17166  -0.00228   0.00000  -0.00577  -0.00578   2.16589
   A11        2.00204   0.00240   0.00000   0.00704   0.00704   2.00908
   A12        2.10810  -0.00018   0.00000  -0.00149  -0.00150   2.10660
   A13        1.95040  -0.00593   0.00000  -0.01253  -0.01253   1.93787
   A14        1.74092  -0.00486   0.00000  -0.00762  -0.00762   1.73330
   A15        0.99685  -0.02623   0.00000  -0.01173  -0.01173   0.98512
    D1        3.07851  -0.00314   0.00000  -0.01268  -0.01261   3.06590
    D2        0.33426  -0.00435   0.00000  -0.05530  -0.05514   0.27911
    D3       -1.39710   0.00576   0.00000   0.08095   0.08092  -1.31618
    D4        2.14183   0.00455   0.00000   0.03832   0.03839   2.18022
    D5        0.34583  -0.00220   0.00000   0.05518   0.05500   0.40083
    D6       -2.39842  -0.00340   0.00000   0.01255   0.01247  -2.38595
    D7        0.39719   0.00001   0.00000   0.06041   0.06038   0.45757
    D8       -1.38028  -0.00957   0.00000  -0.03226  -0.03228  -1.41256
    D9       -3.09394   0.00028   0.00000   0.00133   0.00139  -3.09256
   D10       -0.48071   0.01380   0.00000   0.01377   0.01231  -0.46840
   D11        1.69078   0.01373   0.00000   0.02923   0.03083   1.72161
   D12       -2.68131   0.01104   0.00000   0.02357   0.02343  -2.65788
   D13        0.02956   0.00286   0.00000   0.00967   0.00957   0.03913
   D14        3.11483   0.00179   0.00000   0.00511   0.00501   3.11984
   D15        2.76918   0.00278   0.00000   0.04922   0.04932   2.81850
   D16       -0.42874   0.00172   0.00000   0.04465   0.04476  -0.38398
   D17        2.85064  -0.00149   0.00000   0.02706   0.02706   2.87770
         Item               Value     Threshold  Converged?
 Maximum Force            0.033746     0.000450     NO 
 RMS     Force            0.008263     0.000300     NO 
 Maximum Displacement     0.159280     0.001800     NO 
 RMS     Displacement     0.059101     0.001200     NO 
 Predicted change in Energy=-8.608177D-03
 GradGradGradGradGradGradGradGradGradGradGradGradGradGradGradGradGradGrad

                          Input orientation:                          
 ---------------------------------------------------------------------
 Center     Atomic      Atomic             Coordinates (Angstroms)
 Number     Number       Type             X           Y           Z
 ---------------------------------------------------------------------
      1          6           0        1.413778    1.374233   -2.117938
      2          6           0        0.501972    0.477696   -1.445798
      3          6           0        0.979489   -0.850965   -1.201851
      4          8           0        1.067834    2.600502   -2.477630
      5          8           0        0.013675    3.109231   -1.634733
      6          8           0        2.111315   -1.242544   -1.492426
      7          1           0        0.070704    4.055750   -1.864548
      8          1           0        2.523507    1.713215   -0.704499
      9          1           0        2.240676    1.056604   -2.747264
     10          1           0        0.270062   -1.515568   -0.665074
     11          1           0       -0.560068    0.699126   -1.454575
     12          1           0        1.353468    1.400899   -0.581503
 ---------------------------------------------------------------------
                    Distance matrix (angstroms):
                    1          2          3          4          5
     1  C    0.000000
     2  C    1.444625   0.000000
     3  C    2.445267   1.432785   0.000000
     4  O    1.323930   2.427176   3.680766   0.000000
     5  O    2.281226   2.683115   4.099187   1.442404   0.000000
     6  O    2.779450   2.356137   1.232395   4.102253   4.833041
     7  H    3.009748   3.628197   5.033975   1.867588   0.975687
     8  H    1.828720   2.482466   3.034200   2.459727   3.018850
     9  H    1.086600   2.247674   2.760020   1.957519   3.226536
[...]
   A13        1.89226   0.00000   0.00000   0.00000   0.00000   1.89227
   A14        1.72037   0.00000   0.00000   0.00000   0.00000   1.72037
   A15        1.06578   0.00000   0.00000   0.00001   0.00001   1.06579
    D1        2.43687  -0.00000   0.00000  -0.00005  -0.00005   2.43682
    D2       -0.58845  -0.00000   0.00000  -0.00004  -0.00004  -0.58849
    D3       -1.81568   0.00000   0.00000  -0.00005  -0.00005  -1.81573
    D4        1.44219  -0.00000   0.00000  -0.00004  -0.00004   1.44214
    D5        0.02351  -0.00000   0.00000  -0.00004  -0.00004   0.02347
    D6       -3.00180  -0.00000   0.00000  -0.00003  -0.00003  -3.00184
    D7        0.60794   0.00000   0.00000   0.00001   0.00001   0.60794
    D8       -1.52463   0.00000   0.00000   0.00001   0.00001  -1.52462
    D9        3.03673   0.00000   0.00000   0.00001   0.00001   3.03673
   D10        0.02458   0.00000   0.00000   0.00003   0.00003   0.02461
   D11        2.33311   0.00000   0.00000   0.00004   0.00004   2.33314
   D12       -2.01084  -0.00000   0.00000   0.00002   0.00002  -2.01082
   D13        0.09857  -0.00000   0.00000  -0.00001  -0.00001   0.09856
   D14       -3.05758  -0.00000   0.00000  -0.00001  -0.00001  -3.05759
   D15        3.11999  -0.00000   0.00000  -0.00001  -0.00001   3.11997
   D16       -0.03616  -0.00000   0.00000  -0.00002  -0.00002  -0.03618
   D17        2.58598  -0.00000   0.00000  -0.00003  -0.00003   2.58596
         Item               Value     Threshold  Converged?
 Maximum Force            0.000003     0.000450     YES
 RMS     Force            0.000001     0.000300     YES
 Maximum Displacement     0.000095     0.001800     YES
 RMS     Displacement     0.000028     0.001200     YES
 Predicted change in Energy=-8.471716D-11
 Optimization completed.
    -- Stationary point found.
                           ----------------------------
                           !   Optimized Parameters   !
                           ! (Angstroms and Degrees)  !
 --------------------------                            --------------------------
 ! Name  Definition              Value          Derivative Info.                !
 --------------------------------------------------------------------------------
 ! R1    R(1,2)                  1.4563         -DE/DX =    0.0                 !
 ! R2    R(1,4)                  1.3618         -DE/DX =    0.0                 !
 ! R3    R(1,8)                  1.4649         -DE/DX =    0.0                 !
 ! R4    R(1,9)                  1.0928         -DE/DX =    0.0                 !
 ! R5    R(2,3)                  1.4326         -DE/DX =    0.0                 !
 ! R6    R(2,11)                 1.0818         -DE/DX =    0.0                 !
 ! R7    R(3,6)                  1.2389         -DE/DX =    0.0                 !
 ! R8    R(3,10)                 1.1085         -DE/DX =    0.0                 !
 ! R9    R(4,5)                  1.459          -DE/DX =    0.0                 !
 ! R10   R(5,7)                  0.9759         -DE/DX =    0.0                 !
 ! R11   R(8,12)                 1.028          -DE/DX =    0.0                 !
 ! A1    A(2,1,4)              125.1113         -DE/DX =    0.0                 !
 ! A2    A(2,1,8)              110.6794         -DE/DX =    0.0                 !
 ! A3    A(2,1,9)              112.6094         -DE/DX =    0.0                 !
 ! A4    A(4,1,8)               97.8479         -DE/DX =    0.0                 !
 ! A5    A(4,1,9)              110.0292         -DE/DX =    0.0                 !
 ! A6    A(8,1,9)               95.3518         -DE/DX =    0.0                 !
 ! A7    A(1,2,3)              116.2409         -DE/DX =    0.0                 !
 ! A8    A(1,2,11)             120.1779         -DE/DX =    0.0                 !
 ! A9    A(3,2,11)             123.2219         -DE/DX =    0.0                 !
 ! A10   A(2,3,6)              125.0426         -DE/DX =    0.0                 !
 ! A11   A(2,3,10)             115.1227         -DE/DX =    0.0                 !
 ! A12   A(6,3,10)             119.8295         -DE/DX =    0.0                 !
 ! A13   A(1,4,5)              108.4186         -DE/DX =    0.0                 !
 ! A14   A(4,5,7)               98.5698         -DE/DX =    0.0                 !
 ! A15   A(1,8,12)              61.0648         -DE/DX =    0.0                 !
 ! D1    D(4,1,2,3)            139.6222         -DE/DX =    0.0                 !
 ! D2    D(4,1,2,11)           -33.7157         -DE/DX =    0.0                 !
 ! D3    D(8,1,2,3)           -104.031          -DE/DX =    0.0                 !
 ! D4    D(8,1,2,11)            82.6312         -DE/DX =    0.0                 !
 ! D5    D(9,1,2,3)              1.3471         -DE/DX =    0.0                 !
 ! D6    D(9,1,2,11)          -171.9907         -DE/DX =    0.0                 !
 ! D7    D(2,1,4,5)             34.8323         -DE/DX =    0.0                 !
 ! D8    D(8,1,4,5)            -87.3546         -DE/DX =    0.0                 !
 ! D9    D(9,1,4,5)            173.9917         -DE/DX =    0.0                 !
 ! D10   D(2,1,8,12)             1.4081         -DE/DX =    0.0                 !
 ! D11   D(4,1,8,12)           133.6773         -DE/DX =    0.0                 !
 ! D12   D(9,1,8,12)          -115.2125         -DE/DX =    0.0                 !
 ! D13   D(1,2,3,6)              5.6475         -DE/DX =    0.0                 !
 ! D14   D(1,2,3,10)          -175.1864         -DE/DX =    0.0                 !
 ! D15   D(11,2,3,6)           178.7621         -DE/DX =    0.0                 !
 ! D16   D(11,2,3,10)           -2.0719         -DE/DX =    0.0                 !
 ! D17   D(1,4,5,7)            148.1658         -DE/DX =    0.0                 !
 --------------------------------------------------------------------------------
 GradGradGradGradGradGradGradGradGradGradGradGradGradGradGradGradGradGrad


 ----------------------------------------------------------------------

 Electric dipole moment (input orientation):
 (Debye = 10**-18 statcoulomb cm , SI units = C m)
                  (au)            (Debye)         (10**-30 SI)
   Tot        0.206283D+01      0.524319D+01      0.174894D+02
   x         -0.435652D+00     -0.110732D+01     -0.369361D+01
   y          0.196628D+01      0.499779D+01      0.166708D+02
   z          0.446337D+00      0.113447D+01      0.378420D+01

 Dipole polarizability, Alpha (input orientation).
 (esu units = cm**3 , SI units = C**2 m**2 J**-1)
 Alpha(0;0):
               (au)            (10**-24 esu)      (10**-40 SI)
   iso        0.640550D+02      0.949197D+01      0.105612D+02
   aniso      0.392122D+02      0.581065D+01      0.646522D+01
   xx         0.591937D+02      0.877159D+01      0.975972D+01
   yx         0.300863D+01      0.445833D+00      0.496056D+00
   yy         0.884993D+02      0.131142D+02      0.145916D+02
   zx        -0.660179D+00     -0.978284D-01     -0.108849D+00
   zy         0.848771D+00      0.125775D+00      0.139943D+00
   zz         0.444720D+02      0.659007D+01      0.733244D+01

 ----------------------------------------------------------------------

 Dipole orientation:
     6          2.41084686          4.46195426          1.23005450
     6          0.66559192          2.65193925          0.11121454
     6          0.83643197          2.32506817         -2.57080362
     8          1.81929227          6.12565217          3.10220062
     8          0.00129677          4.92516456          4.79206575
     8          2.45595169          3.31040578         -3.94466853
     1          0.50774152          5.74230856          6.36577264
     1          4.47809142          3.15402747          2.52595921
     1          3.61408077          5.37812078         -0.17615502
     1         -0.60930477          1.06044580         -3.40645922
     1         -0.79602412          1.79274053          1.25340177
     1          3.12559063          2.10050103          1.61244390

 Electric dipole moment (dipole orientation):
 (Debye = 10**-18 statcoulomb cm , SI units = C m)
                  (au)            (Debye)         (10**-30 SI)
   Tot        0.206283D+01      0.524319D+01      0.174894D+02
   x          0.000000D+00      0.000000D+00      0.000000D+00
   y          0.000000D+00      0.000000D+00      0.000000D+00
   z          0.206283D+01      0.524319D+01      0.174894D+02

 Dipole polarizability, Alpha (dipole orientation).
 (esu units = cm**3 , SI units = C**2 m**2 J**-1)
 Alpha(0;0):
               (au)            (10**-24 esu)      (10**-40 SI)
   iso        0.640550D+02      0.949197D+01      0.105612D+02
   aniso      0.392122D+02      0.581065D+01      0.646522D+01
   xx         0.600897D+02      0.890438D+01      0.990746D+01
   yx         0.550119D+01      0.815192D+00      0.907024D+00
   yy         0.477451D+02      0.707509D+01      0.787210D+01
   zx         0.670089D+01      0.992969D+00      0.110483D+01
   zy         0.953722D+01      0.141327D+01      0.157248D+01
   zz         0.843301D+02      0.124964D+02      0.139042D+02

 ----------------------------------------------------------------------
 1\1\GINC-BELL-A096\Freq\RB3LYP\6-31+G(d)\C3H6O3\ZHAO922\23-Dec-2020\0\
 \#N Geom=AllCheck Guess=TCheck SCRF=Check GenChk RB3LYP/6-31+G(d) Freq
 \\pp_13_1 TS\\0,1\C,1.4822850129,1.4290539115,-1.8403813412\C,0.559122
 5942,0.4694897782,-1.2505440775\C,0.9173218301,-0.9121523669,-1.373661
 9014\O,1.1172022924,2.5443481976,-2.5313188012\O,-0.1035547163,3.07676
 79823,-1.9354693675\O,1.9827433871,-1.3313698378,-1.8469872665\H,0.050
 3070598,4.0243313061,-2.1108581177\H,2.2767387777,2.0886302354,-0.8012
 410728\H,2.3330520611,0.9478019992,-2.3290427142\H,0.1629619998,-1.629
 6151443,-0.9930281172\H,-0.3888651565,0.8025659994,-0.8497241725\H,1.5
 970968577,1.3683259392,-0.5255810502\\Version=ES64L-G16RevB.01\State=1
 -A\HF=-343.3355783\RMSD=1.654e-09\RMSF=8.077e-07\ZeroPoint=0.0826927\T
 hermal=0.0897229\Dipole=-0.435652,1.9662806,0.4463367\DipoleDeriv=0.67
 64783,0.4806043,0.4250126,0.1873209,1.0701588,-0.2330984,0.6754858,-0.
 5144017,1.1997803,-0.3657407,-0.4408983,-0.1679404,-0.2282572,-1.50994
 27,-0.180007,-0.1046323,0.0608828,-0.5154151,0.8066853,-0.7815394,-0.4
 322773,-0.1036891,1.8454838,0.1556987,-0.3799608,0.3012013,0.3063393,-
 0.1457398,-0.1564156,-0.0628228,0.0723754,-0.5258895,0.3536664,-0.2603
 877,0.3313605,-0.4644688,-0.2636458,0.2635682,-0.1606456,0.1805408,-0.
 2940201,0.0299333,0.0015446,-0.0701603,-0.2646904,-0.8988428,0.8399642
 ,0.309899,0.1681586,-0.9863743,-0.1017223,0.2202284,-0.3535727,-0.5262
 593,0.2532158,-0.0761412,0.055205,-0.0627252,0.2926214,0.0159304,0.054
 009,-0.0037215,0.3493152,-0.3321468,-0.5276441,-0.1192079,-0.3183178,-
 0.6926833,-0.0749255,-0.2687643,0.0229178,-0.2806864,0.1038342,-0.0392
 565,-0.0227321,-0.0068141,0.1450527,-0.0356868,-0.0593042,0.028219,0.0
 626876,-0.1328409,-0.1594584,0.1110716,-0.1483764,-0.1052203,0.0699136
 ,0.1301136,0.0988643,0.0305341,0.0248804,0.0005448,0.0894366,0.0146975
 ,0.0041443,-0.0093074,0.068506,-0.0396099,0.1927523,0.2738628,0.596672
 1,-0.0249989,0.2450867,0.7566692,0.0096048,-0.0768382,0.1380204,-0.089
 8888\Polar=59.1936536,3.0086292,88.4992564,-0.6601791,0.8487712,44.472
 0143\Quadrupole=-0.8198392,0.4724721,0.3473672,3.1250394,-0.1861777,-1
 .2832439\PG=C01 [X(C3H6O3)]\NImag=1\\0.44166152,-0.18506349,0.43773041
 ,-0.23039570,-0.09291822,0.30970334,-0.17024328,-0.07200236,0.07177785
 ,0.58033287,-0.04305998,-0.14115882,0.05582662,-0.07725328,0.57898792,
 0.00629354,-0.02511881,-0.07721237,-0.22563710,-0.00633292,0.15891455,
 0.01447001,-0.01571401,-0.00696158,-0.11085301,0.01322685,0.01786901,0
 .73445283,-0.01941501,-0.04459790,0.01302835,0.05250359,-0.26375606,-0
 .00378656,-0.06150397,0.63212670,-0.01207474,0.01576577,0.00709784,0.0
 3064693,0.00561423,-0.06252266,-0.25194854,0.00756602,0.29943031,-0.07
 457820,0.06173253,-0.00130165,0.01605239,-0.01262154,0.01839972,-0.004
 22773,-0.00009954,0.00396474,0.25846613,0.01184336,-0.19819403,0.07774
 587,0.00813031,-0.03350395,0.02773718,-0.00431613,0.00935817,0.0108746
 1,-0.12208087,0.33754355,0.04259791,0.11069670,-0.09885170,0.00360511,
 0.02514448,0.01490512,0.00685811,-0.00833600,-0.00784766,-0.06726503,-
 0.11517534,0.20902145,-0.02250769,0.01958175,0.00327533,0.00243948,-0.
 00641069,-0.00125471,-0.00105464,0.00094473,0.00109603,-0.15863812,0.0
 3549577,0.07931683,0.22141896,0.04819814,-0.02357644,-0.03004033,-0.00
 163506,0.00226549,-0.00107282,0.00248493,-0.00083592,-0.00194855,0.056
 71710,-0.08976032,-0.00222944,0.01093201,0.56868290,-0.01944503,0.0009
 0827,0.00565955,-0.00003572,0.00217052,-0.00154317,0.00008785,-0.00099
 062,-0.00012960,0.08748605,-0.00212376,-0.06533107,-0.10953971,-0.0821
 4494,0.07966720,-0.01108136,-0.00981465,0.00628255,-0.00760961,0.06130
 749,0.01911085,-0.48964859,0.13253832,0.18753788,0.00229453,0.00467225
 ,-0.00553805,0.00068637,-0.00140829,-0.00039730,0.54567481,0.00519467,
 0.00236479,-0.00096378,0.04679530,-0.02934288,-0.02448559,0.14665614,-
 0.15653694,-0.06411480,0.00045326,-0.00049773,-0.00034108,0.00116579,-
 0.00177088,0.00026709,-0.19568477,0.16625705,0.00486378,0.00604171,-0.
 00762967,0.01068582,-0.02643295,0.01169954,0.19018682,-0.05743824,-0.1
 5146040,-0.00018743,-0.00351023,0.00259731,-0.00053134,0.00073152,0.00
 037326,-0.23106537,0.08377100,0.13277209,-0.00803613,0.00443478,0.0066
 6873,-0.00073876,-0.00211084,0.00097888,-0.00055442,0.00122877,0.00052
 300,-0.00635059,0.04963713,-0.00617047,-0.05002025,-0.11434845,0.04024
 725,0.00081001,-0.00005545,-0.00045626,0.06489634,0.00309417,-0.004172
 92,0.00169337,0.00074465,0.00070919,-0.00079836,0.00061326,-0.00055836
 ,-0.00014439,-0.00545760,-0.00981279,0.00434697,-0.05869572,-0.4536614
 4,0.07599546,-0.00039554,0.00013851,0.00006665,0.06064451,0.46716127,0
 .00312534,0.00122639,-0.00401281,-0.00020450,0.00012764,-0.00037020,-0
 .00040895,0.00019936,-0.00009902,0.00717228,-0.02695447,0.00103643,0.0
 2975604,0.10493870,-0.02747182,0.00006595,-0.00011046,-0.00005679,-0.0
 3889574,-0.07965666,0.02911597,-0.01715234,0.00540213,0.00774988,-0.00
 856388,-0.02828693,-0.00261930,-0.01012789,0.01073919,-0.00263174,-0.0
 0442815,0.00638212,-0.01611827,0.00030048,-0.00112662,0.00062655,0.006
 66667,-0.00332806,-0.00330786,-0.00009815,0.00012840,-0.00082341,0.053
 15036,0.00059578,-0.01312275,-0.01597788,-0.02252183,-0.02914971,0.000
 50992,-0.01294240,0.01692276,0.00054287,0.01536031,-0.00290382,0.02068
 161,-0.00202309,0.00088926,0.00026425,0.01060563,-0.00285592,-0.004370
 43,-0.00024687,0.00059085,-0.00059373,0.02925216,0.06252251,0.08210327
 ,0.05425009,0.03703311,0.00406339,-0.00326771,0.04036307,-0.00139403,-
 0.00394331,-0.00200569,-0.02750083,0.01476742,-0.05244665,0.00065355,0
 .00193095,0.00455975,-0.00195365,0.00142571,0.00057735,-0.00037039,-0.
 00085908,-0.00000143,-0.00474318,-0.00904669,0.00329020,-0.21848668,0.
 09941367,0.10619005,-0.01742425,0.00514954,0.01322325,-0.00130096,0.00
 085800,0.00051348,-0.00943620,0.00730849,0.00050512,0.00484988,0.00001
 525,-0.00103970,-0.00005538,0.00180929,-0.00137331,-0.00052298,0.00006
 120,0.00003391,0.00697239,-0.00191598,-0.00971138,0.23681286,0.0994600
 8,-0.08937622,-0.04387727,-0.01571826,0.00782270,0.01116381,-0.0066638
 2,0.00299358,0.00247453,0.02240692,-0.01426123,-0.01034693,-0.00238097
 ,-0.00179914,0.00375028,0.00468330,0.00037238,-0.00258642,0.00099963,-
 0.00003807,-0.00022542,0.00159452,-0.00584052,-0.01165845,-0.10075900,
 0.10465435,0.10836573,-0.04632850,-0.11055311,0.00733289,-0.00208703,0
 .00332409,0.00102583,0.00065360,0.00066164,-0.01612458,0.00416433,0.00
 846333,-0.00101529,0.00763411,0.00124558,-0.00101067,-0.00072693,-0.00
 159053,-0.00186460,0.00032630,0.00090074,0.00575436,-0.00633365,-0.014
 28509,-0.10521490,0.05327027,0.11626054,0.00333576,0.00219255,0.001648
 48,0.00665257,-0.00045761,0.00157717,-0.13910204,-0.09852740,0.0428047
 8,-0.00077067,-0.00044893,0.00019088,0.00019276,-0.00011798,-0.0000403
 1,-0.03889723,-0.01059684,0.02642905,-0.00002013,0.00001698,0.00002093
 ,0.00063427,0.00023720,0.00024682,-0.00019079,0.00098594,0.00006609,0.
 16758559,0.00276279,-0.00454393,-0.00110642,-0.01970665,-0.01865670,0.
 01089632,-0.09321611,-0.17310293,0.04612700,-0.00088920,-0.00121646,0.
 00086886,0.00006830,0.00003676,0.00001522,0.00441303,0.02306698,-0.001
 69363,-0.00004372,0.00010401,0.00000588,-0.00075308,-0.00008761,-0.000
 37262,0.00016118,0.00049908,0.00003712,0.10649462,0.17378955,0.0037373
 6,-0.00142695,0.00619896,0.00123920,-0.00107392,0.01048097,0.04246335,
 0.05128828,-0.07931905,-0.00200397,-0.00135337,0.00092918,-0.00013841,
 0.00045637,-0.00013957,0.02527235,0.00565501,0.00524418,-0.00001596,-0
 .00001357,0.00009275,0.00185666,0.00157218,-0.00049559,0.00050208,-0.0
 0115136,0.00013266,-0.07149610,-0.05518858,0.05937133,-0.01067948,0.00
 598150,0.00006040,-0.27988437,0.08131984,0.11456397,-0.00124984,-0.002
 48544,-0.00165167,0.00049126,-0.00076152,0.00003392,0.00011118,0.00152
 795,-0.00042001,0.00180096,0.00120715,0.00180781,0.00033480,0.00003795
 ,-0.00034517,-0.00057064,-0.00073182,0.00042926,-0.00018947,-0.0013845
 0,-0.00013490,0.00002292,0.00052204,-0.00070502,0.29505470,-0.02340691
 ,0.00761541,0.00754512,0.08455267,-0.08333416,-0.03562284,0.02671604,0
 .00280224,-0.01084250,0.00083213,0.00166322,-0.00101427,0.00139856,-0.
 00289361,0.00046610,0.00047755,-0.00674346,-0.00019426,-0.00020962,0.0
 0023816,0.00001706,0.00018769,-0.00012507,-0.00005325,-0.00171227,-0.0
 0325925,0.00156950,-0.00114321,0.00028113,0.00029244,-0.08596964,0.083
 52836,0.01419013,-0.00149581,-0.01296081,0.11086371,-0.03147537,-0.058
 09703,-0.00198058,0.00050782,-0.00522739,0.00116825,-0.00432230,0.0007
 4730,-0.00107258,0.00071122,0.00034227,0.00224874,0.00020946,0.0053523
 6,-0.00049729,-0.00024009,0.00036284,-0.00060068,-0.00187629,-0.000490
 98,0.00241275,0.00224783,-0.00065579,-0.00066754,-0.00016280,-0.001332
 57,-0.11755772,0.03498201,0.06703875,0.07329787,0.08385560,0.03500566,
 -0.01016015,0.00919716,0.03749473,0.00919630,-0.01678125,0.00121985,-0
 .01887465,0.00413804,-0.03801605,0.00222159,-0.00123897,0.00247009,-0.
 01064117,0.00638353,0.00294828,0.00030025,-0.00079229,0.00050331,-0.02
 678312,-0.01566909,-0.04182284,-0.00102841,-0.00322383,0.00282004,0.00
 055699,0.00018680,-0.00071155,-0.00524201,-0.00172298,-0.00850719,-0.0
 1284349,0.09979640,0.07103241,0.02904458,0.01611093,0.00911698,0.04691
 068,0.00465921,-0.02481535,-0.01191478,-0.01635350,0.00158539,-0.02429
 559,-0.00007643,0.00242335,0.00142213,-0.01139431,0.00554810,0.0056152
 7,0.00007013,-0.00069842,0.00102571,-0.02019152,-0.02683998,-0.0431730
 5,-0.01038936,-0.00176766,-0.01217912,0.00136469,-0.00016989,0.0009434
 7,0.00073651,0.00022702,0.00091432,-0.06433273,-0.03564196,-0.00336160
 ,-0.02160063,-0.05447233,-0.01433757,-0.01821360,-0.03994191,0.0042027
 0,0.00125130,0.00142166,-0.00380756,0.01815006,-0.01322305,-0.00054575
 ,0.00103321,0.00276760,-0.00055328,-0.00058562,0.00212130,-0.00014714,
 -0.00071661,0.00050334,0.01485698,0.01462784,-0.01609804,-0.00604134,-
 0.00306085,-0.00390407,-0.00078024,0.00057365,-0.00116324,0.00391913,0
 .00285486,0.00492105,0.00659566,0.00568639,0.11706770\\-0.00000095,0.0
 0000222,-0.00000132,0.00000029,0.00000117,0.00000048,0.00000073,-0.000
 00016,0.00000007,0.00000072,-0.00000177,0.00000180,0.00000003,-0.00000
 056,0.00000009,-0.00000051,-0.00000060,0.00000055,0.00000019,-0.000000
 05,-0.00000041,0.00000082,0.00000040,-0.00000090,-0.00000056,-0.000001
 13,0.,-0.00000009,0.00000024,0.00000057,0.00000005,0.00000014,0.000000
 14,-0.00000072,0.00000011,-0.00000107\\\@


 IT IS BETTER TO THINK YOU ARE HALF DRY THAN TO KNOW YOU
 ARE ALL WET.  -- SNOOPY
 Job cpu time:       0 days  0 hours  4 minutes 24.2 seconds.
 Elapsed time:       0 days  0 hours  0 minutes 16.8 seconds.
 File lengths (MBytes):  RWF=     27 Int=      0 D2E=      0 Chk=      3 Scr=      1
 Normal termination of Gaussian 16 at Wed Dec 23 22:05:23 2020.
