 Entering Gaussian System, Link 0=g16
 Initial command:
 /apps/cent7/gaussian/g16-B.01/g16-haswell/g16/l1.exe "/scratch/bell/zhao922/YARP/paper-example/KHP-network/pp_0/TS-folder/Gau-18002.inp" -scrdir="/scratch/bell/zhao922/YARP/paper-example/KHP-network/pp_0/TS-folder/"
 Entering Link 1 = /apps/cent7/gaussian/g16-B.01/g16-haswell/g16/l1.exe PID=     18005.
  
 Copyright (c) 1988-2017, Gaussian, Inc.  All Rights Reserved.
  
 This is part of the Gaussian(R) 16 program.  It is based on
 the Gaussian(R) 09 system (copyright 2009, Gaussian, Inc.),
 the Gaussian(R) 03 system (copyright 2003, Gaussian, Inc.),
 the Gaussian(R) 98 system (copyright 1998, Gaussian, Inc.),
 the Gaussian(R) 94 system (copyright 1995, Gaussian, Inc.),
 the Gaussian 92(TM) system (copyright 1992, Gaussian, Inc.),
 the Gaussian 90(TM) system (copyright 1990, Gaussian, Inc.),
 the Gaussian 88(TM) system (copyright 1988, Gaussian, Inc.),
 the Gaussian 86(TM) system (copyright 1986, Carnegie Mellon
 University), and the Gaussian 82(TM) system (copyright 1983,
 Carnegie Mellon University). Gaussian is a federally registered
 trademark of Gaussian, Inc.
  
 This software contains proprietary and confidential information,
 including trade secrets, belonging to Gaussian, Inc.
  
 This software is provided under written license and may be
 used, copied, transmitted, or stored only in accord with that
 written license.
  
 The following legend is applicable only to US Government
 contracts under FAR:
  
                    RESTRICTED RIGHTS LEGEND
  
 Use, reproduction and disclosure by the US Government is
 subject to restrictions as set forth in subparagraphs (a)
 and (c) of the Commercial Computer Software - Restricted
 Rights clause in FAR 52.227-19.
  
 Gaussian, Inc.
 340 Quinnipiac St., Bldg. 40, Wallingford CT 06492
  
  
 ---------------------------------------------------------------
 Warning -- This program may not be used in any manner that
 competes with the business of Gaussian, Inc. or will provide
 assistance to any competitor of Gaussian, Inc.  The licensee
 of this program is prohibited from giving any competitor of
 Gaussian, Inc. access to this program.  By using this program,
 the user acknowledges that Gaussian, Inc. is engaged in the
 business of creating and licensing software in the field of
 computational chemistry and represents and warrants to the
 licensee that it is not a competitor of Gaussian, Inc. and that
 it will not use this program in any manner prohibited above.
 ---------------------------------------------------------------
  

 Cite this work as:
 Gaussian 16, Revision B.01,
 M. J. Frisch, G. W. Trucks, H. B. Schlegel, G. E. Scuseria, 
 M. A. Robb, J. R. Cheeseman, G. Scalmani, V. Barone, 
 G. A. Petersson, H. Nakatsuji, X. Li, M. Caricato, A. V. Marenich, 
 J. Bloino, B. G. Janesko, R. Gomperts, B. Mennucci, H. P. Hratchian, 
 J. V. Ortiz, A. F. Izmaylov, J. L. Sonnenberg, D. Williams-Young, 
 F. Ding, F. Lipparini, F. Egidi, J. Goings, B. Peng, A. Petrone, 
 T. Henderson, D. Ranasinghe, V. G. Zakrzewski, J. Gao, N. Rega, 
 G. Zheng, W. Liang, M. Hada, M. Ehara, K. Toyota, R. Fukuda, 
 J. Hasegawa, M. Ishida, T. Nakajima, Y. Honda, O. Kitao, H. Nakai, 
 T. Vreven, K. Throssell, J. A. Montgomery, Jr., J. E. Peralta, 
 F. Ogliaro, M. J. Bearpark, J. J. Heyd, E. N. Brothers, K. N. Kudin, 
 V. N. Staroverov, T. A. Keith, R. Kobayashi, J. Normand, 
 K. Raghavachari, A. P. Rendell, J. C. Burant, S. S. Iyengar, 
 J. Tomasi, M. Cossi, J. M. Millam, M. Klene, C. Adamo, R. Cammi, 
 J. W. Ochterski, R. L. Martin, K. Morokuma, O. Farkas, 
 J. B. Foresman, and D. J. Fox, Gaussian, Inc., Wallingford CT, 2016.
 
 ******************************************
 Gaussian 16:  ES64L-G16RevB.01 20-Dec-2017
                23-Dec-2020 
 ******************************************
 %NProcShared=16
 Will use up to   16 processors via shared memory.
 %Mem=6GB
 --------------------------------------------------------------
 # B3LYP/6-31+G* OPT=(TS, CALCALL, NOEIGEN, maxcycles=100) Freq
 --------------------------------------------------------------
 1/5=1,6=100,10=4,11=1,18=20,26=3,38=1/1,3;
 2/9=110,12=2,17=6,18=5,40=1/2;
 3/5=1,6=6,7=11,11=2,25=1,30=1,71=2,74=-5,140=1/1,2,3;
 4//1;
 5/5=2,38=5/2;
 8/6=4,10=90,11=11/1;
 11/6=1,8=1,9=11,15=111,16=1/1,2,10;
 10/6=1/2;
 6/7=2,8=2,9=2,10=2,18=1,28=1/1;
 7/10=1,25=1/1,2,3,16;
 1/5=1,6=100,10=4,11=1,18=20,26=3/3(3);
 2/9=110/2;
 7/8=1,9=1,25=1,44=-1/16;
 99//99;
 2/9=110/2;
 3/5=1,6=6,7=11,11=2,25=1,30=1,71=2,74=-5,140=1/1,2,3;
 4/5=5,16=3,69=1/1;
 5/5=2,38=5/2;
 8/6=4,10=90,11=11/1;
 11/6=1,8=1,9=11,15=111,16=1/1,2,10;
 10/6=1/2;
 7/10=1,25=1/1,2,3,16;
 1/5=1,6=100,10=4,11=1,18=20,26=3/3(-8);
 2/9=110/2;
 6/7=2,8=2,9=2,10=2,18=1,19=2,28=1/1;
 7/8=1,9=1,25=1,44=-1/16;
 99//99;
 ----------
 pp_10_0 TS
 ----------
 Symbolic Z-matrix:
 Charge =  0 Multiplicity = 1
 C                     1.21786   0.57759  -2.62977 
 C                     0.12742   0.47292  -1.35518 
 C                     1.32033   0.7426   -0.37698 
 O                     1.94007   2.19855  -1.46468 
 O                     0.73429   2.91063  -1.54772 
 O                     1.85865   0.85729   0.65301 
 H                     0.99576   3.80784  -1.30289 
 H                     2.10005   0.12281  -3.16966 
 H                     0.69734   0.9201   -3.51137 
 H                     1.24729  -0.5197   -1.88701 
 H                    -0.90125   0.21761  -1.61272 
 H                    -0.72555   0.62935  -0.44343 
 
 Add virtual bond connecting atoms H10        and C1         Dist= 2.50D+00.
 Add virtual bond connecting atoms O4         and C3         Dist= 3.63D+00.

 GradGradGradGradGradGradGradGradGradGradGradGradGradGradGradGradGradGrad
 Berny optimization.
 Initialization pass.
                           ----------------------------
                           !    Initial Parameters    !
                           ! (Angstroms and Degrees)  !
 --------------------------                            --------------------------
 ! Name  Definition              Value          Derivative Info.                !
 --------------------------------------------------------------------------------
 ! R1    R(1,2)                  1.6807         calculate D2E/DX2 analytically  !
 ! R2    R(1,8)                  1.1299         calculate D2E/DX2 analytically  !
 ! R3    R(1,9)                  1.0796         calculate D2E/DX2 analytically  !
 ! R4    R(1,10)                 1.3254         calculate D2E/DX2 analytically  !
 ! R5    R(2,3)                  1.5661         calculate D2E/DX2 analytically  !
 ! R6    R(2,11)                 1.0907         calculate D2E/DX2 analytically  !
 ! R7    R(2,12)                 1.2583         calculate D2E/DX2 analytically  !
 ! R8    R(3,4)                  1.9201         calculate D2E/DX2 analytically  !
 ! R9    R(3,6)                  1.1678         calculate D2E/DX2 analytically  !
 ! R10   R(4,5)                  1.4028         calculate D2E/DX2 analytically  !
 ! R11   R(5,7)                  0.9661         calculate D2E/DX2 analytically  !
 ! A1    A(2,1,8)              147.5559         calculate D2E/DX2 analytically  !
 ! A2    A(2,1,9)              109.0412         calculate D2E/DX2 analytically  !
 ! A3    A(2,1,10)              62.4725         calculate D2E/DX2 analytically  !
 ! A4    A(8,1,9)               96.5439         calculate D2E/DX2 analytically  !
 ! A5    A(8,1,10)              85.2507         calculate D2E/DX2 analytically  !
 ! A6    A(9,1,10)             136.9726         calculate D2E/DX2 analytically  !
 ! A7    A(1,2,3)               88.2102         calculate D2E/DX2 analytically  !
 ! A8    A(1,2,11)             116.5782         calculate D2E/DX2 analytically  !
 ! A9    A(3,2,11)             154.9808         calculate D2E/DX2 analytically  !
 ! A10   A(3,2,12)              92.427          calculate D2E/DX2 analytically  !
 ! A11   A(11,2,12)             63.9518         calculate D2E/DX2 analytically  !
 ! A12   A(2,3,4)               91.2948         calculate D2E/DX2 analytically  !
 ! A13   A(2,3,6)              156.769          calculate D2E/DX2 analytically  !
 ! A14   A(4,3,6)              106.043          calculate D2E/DX2 analytically  !
 ! A15   A(3,4,5)               98.1058         calculate D2E/DX2 analytically  !
 ! A16   A(4,5,7)              102.9315         calculate D2E/DX2 analytically  !
 ! A17   L(1,2,12,3,-1)        180.6372         calculate D2E/DX2 analytically  !
 ! A18   L(1,2,12,3,-2)        169.0016         calculate D2E/DX2 analytically  !
 ! D1    D(8,1,2,3)             68.0294         calculate D2E/DX2 analytically  !
 ! D2    D(8,1,2,11)          -108.4403         calculate D2E/DX2 analytically  !
 ! D3    D(9,1,2,3)           -151.8276         calculate D2E/DX2 analytically  !
 ! D4    D(9,1,2,11)            31.7026         calculate D2E/DX2 analytically  !
 ! D5    D(10,1,2,3)            74.3684         calculate D2E/DX2 analytically  !
 ! D6    D(10,1,2,11)         -102.1014         calculate D2E/DX2 analytically  !
 ! D7    D(1,2,3,4)             46.6821         calculate D2E/DX2 analytically  !
 ! D8    D(1,2,3,6)           -174.4259         calculate D2E/DX2 analytically  !
 ! D9    D(11,2,3,4)          -140.7996         calculate D2E/DX2 analytically  !
 ! D10   D(11,2,3,6)            -1.9076         calculate D2E/DX2 analytically  !
 ! D11   D(12,2,3,4)          -122.3196         calculate D2E/DX2 analytically  !
 ! D12   D(12,2,3,6)            16.5724         calculate D2E/DX2 analytically  !
 ! D13   D(2,3,4,5)             52.1378         calculate D2E/DX2 analytically  !
 ! D14   D(6,3,4,5)           -112.2071         calculate D2E/DX2 analytically  !
 ! D15   D(3,4,5,7)            129.707          calculate D2E/DX2 analytically  !
 --------------------------------------------------------------------------------
 Trust Radius=3.00D-01 FncErr=1.00D-07 GrdErr=1.00D-06 EigMax=2.50D+02 EigMin=1.00D-04
 Number of steps in this run=    100 maximum allowed number of steps=    100.
 Search for a saddle point of order  1.
 GradGradGradGradGradGradGradGradGradGradGradGradGradGradGradGradGradGrad

                          Input orientation:                          
 ---------------------------------------------------------------------
 Center     Atomic      Atomic             Coordinates (Angstroms)
 Number     Number       Type             X           Y           Z
 ---------------------------------------------------------------------
      1          6           0        1.217855    0.577591   -2.629774
      2          6           0        0.127422    0.472916   -1.355182
      3          6           0        1.320328    0.742599   -0.376980
      4          8           0        1.940072    2.198546   -1.464682
      5          8           0        0.734285    2.910631   -1.547724
      6          8           0        1.858651    0.857294    0.653009
      7          1           0        0.995755    3.807838   -1.302890
      8          1           0        2.100051    0.122809   -3.169657
      9          1           0        0.697338    0.920102   -3.511367
     10          1           0        1.247288   -0.519701   -1.887006
     11          1           0       -0.901250    0.217610   -1.612715
     12          1           0       -0.725546    0.629348   -0.443431
 ---------------------------------------------------------------------
                    Distance matrix (angstroms):
                    1          2          3          4          5
     1  C    0.000000
     2  C    1.680650   0.000000
     3  C    2.261152   1.566088   0.000000
     4  O    2.122859   2.505093   1.920146   0.000000
     5  O    2.616820   2.519486   2.532677   1.402813   0.000000
     6  O    3.356414   2.679129   1.167829   2.508027   3.213039
     7  H    3.499206   3.446511   3.218439   1.872894   0.966070
     8  H    1.129854   2.702991   2.964988   2.690951   3.502561
     9  H    1.079564   2.274624   3.200626   2.714356   2.796331
    10  H    1.325376   1.588151   1.969496   2.836754   3.485034
    11  H    2.377941   1.090720   2.595778   3.466862   3.151438
    12  H    2.925676   1.258299   2.050083   3.257431   2.924863
                    6          7          8          9         10
     6  O    0.000000
     7  H    3.643603   0.000000
     8  H    3.900066   4.275948   0.000000
     9  H    4.323728   3.647663   1.649256   0.000000
    10  H    2.953228   4.374020   1.668897   2.239202   0.000000
    11  H    3.627638   4.072390   3.382435   2.579507   2.288029
    12  H    2.816419   3.715420   3.958900   3.394314   2.701166
                   11         12
    11  H    0.000000
    12  H    1.252048   0.000000
 Stoichiometry    C3H6O3
 Framework group  C1[X(C3H6O3)]
 Deg. of freedom    30
 Full point group                 C1      NOp   1
 Largest Abelian subgroup         C1      NOp   1
 Largest concise Abelian subgroup C1      NOp   1
                         Standard orientation:                         
 ---------------------------------------------------------------------
 Center     Atomic      Atomic             Coordinates (Angstroms)
 Number     Number       Type             X           Y           Z
 ---------------------------------------------------------------------
      1          6           0        1.035166    1.095817   -0.611115
      2          6           0        0.075666    1.107267    0.768672
      3          6           0       -0.978251    0.255777   -0.016731
      4          8           0        0.391447   -0.926514   -0.659441
      5          8           0        0.980993   -1.235977    0.575286
      6          8           0       -1.991771   -0.294812   -0.199632
      7          1           0        1.018705   -2.201205    0.560986
      8          1           0        1.173683    1.437750   -1.679040
      9          1           0        2.071504    1.178245   -0.320136
     10          1           0       -0.035032    1.877658   -0.615694
     11          1           0        0.443325    1.690404    1.613923
     12          1           0       -0.513028    0.922402    1.865295
 ---------------------------------------------------------------------
 Rotational constants (GHZ):           4.2531005           3.4348419           2.5566544
 Standard basis: 6-31+G(d) (6D, 7F)
 There are   126 symmetry adapted cartesian basis functions of A   symmetry.
 There are   126 symmetry adapted basis functions of A   symmetry.
   126 basis functions,   216 primitive gaussians,   126 cartesian basis functions
    24 alpha electrons       24 beta electrons
       nuclear repulsion energy       244.7777783665 Hartrees.
 NAtoms=   12 NActive=   12 NUniq=   12 SFac= 1.00D+00 NAtFMM=   60 NAOKFM=F Big=F
 Integral buffers will be    131072 words long.
 Raffenetti 2 integral format.
 Two-electron integral symmetry is turned on.
 One-electron integrals computed using PRISM.
 NBasis=   126 RedAO= T EigKep=  1.23D-04  NBF=   126
 NBsUse=   126 1.00D-06 EigRej= -1.00D+00 NBFU=   126
 ExpMin= 4.38D-02 ExpMax= 5.48D+03 ExpMxC= 8.25D+02 IAcc=3 IRadAn=         5 AccDes= 0.00D+00
 Harris functional with IExCor=  402 and IRadAn=       5 diagonalized for initial guess.
 HarFok:  IExCor=  402 AccDes= 0.00D+00 IRadAn=         5 IDoV= 1 UseB2=F ITyADJ=14
 ICtDFT=  3500011 ScaDFX=  1.000000  1.000000  1.000000  1.000000
 FoFCou: FMM=F IPFlag=           0 FMFlag=      100000 FMFlg1=           0
         NFxFlg=           0 DoJE=T BraDBF=F KetDBF=T FulRan=T
         wScrn=  0.000000 ICntrl=       500 IOpCl=  0 I1Cent=   200000004 NGrid=           0
         NMat0=    1 NMatS0=      1 NMatT0=    0 NMatD0=    1 NMtDS0=    0 NMtDT0=    0
 Petite list used in FoFCou.
 Keep R1 ints in memory in canonical form, NReq=47237537.
 Requested convergence on RMS density matrix=1.00D-08 within 128 cycles.
 Requested convergence on MAX density matrix=1.00D-06.
 Requested convergence on             energy=1.00D-06.
 No special actions if energy rises.
 SCF Done:  E(RB3LYP) =  -343.054530152     A.U. after   16 cycles
            NFock= 16  Conv=0.69D-08     -V/T= 2.0088
 DoSCS=F DFT=T ScalE2(SS,OS)=  1.000000  1.000000
 Range of M.O.s used for correlation:     1   126
 NBasis=   126 NAE=    24 NBE=    24 NFC=     0 NFV=     0
 NROrb=    126 NOA=    24 NOB=    24 NVA=   102 NVB=   102

 **** Warning!!: The largest alpha MO coefficient is  0.29710656D+02


 **** Warning!!: The smallest alpha delta epsilon is  0.90118968D-01

 Symmetrizing basis deriv contribution to polar:
 IMax=3 JMax=2 DiffMx= 0.00D+00
 G2DrvN: will do    13 centers at a time, making    1 passes.
 Calling FoFCou, ICntrl=  3107 FMM=F I1Cent=   0 AccDes= 0.00D+00.
 End of G2Drv F.D. properties file   721 does not exist.
 End of G2Drv F.D. properties file   722 does not exist.
 End of G2Drv F.D. properties file   788 does not exist.
          IDoAtm=111111111111
          Differentiating once with respect to electric field.
                with respect to dipole field.
          Differentiating once with respect to nuclear coordinates.
 Keep R1 ints in memory in canonical form, NReq=47193552.
          There are    39 degrees of freedom in the 1st order CPHF.  IDoFFX=6 NUNeed=     3.
     36 vectors produced by pass  0 Test12= 6.28D-15 2.56D-09 XBig12= 1.50D+02 7.04D+00.
 AX will form    36 AO Fock derivatives at one time.
     36 vectors produced by pass  1 Test12= 6.28D-15 2.56D-09 XBig12= 6.25D+01 1.44D+00.
     36 vectors produced by pass  2 Test12= 6.28D-15 2.56D-09 XBig12= 7.20D-01 1.14D-01.
     36 vectors produced by pass  3 Test12= 6.28D-15 2.56D-09 XBig12= 2.89D-03 8.54D-03.
     36 vectors produced by pass  4 Test12= 6.28D-15 2.56D-09 XBig12= 9.90D-06 5.42D-04.
     35 vectors produced by pass  5 Test12= 6.28D-15 2.56D-09 XBig12= 1.53D-08 1.59D-05.
      9 vectors produced by pass  6 Test12= 6.28D-15 2.56D-09 XBig12= 1.58D-11 4.67D-07.
      3 vectors produced by pass  7 Test12= 6.28D-15 2.56D-09 XBig12= 1.44D-14 1.51D-08.
 InvSVY:  IOpt=1 It=  1 EMax= 3.55D-15
 Solved reduced A of dimension   227 with    39 vectors.
 Isotropic polarizability for W=    0.000000       72.45 Bohr**3.
 End of Minotr F.D. properties file   721 does not exist.
 End of Minotr F.D. properties file   722 does not exist.
 End of Minotr F.D. properties file   788 does not exist.

 **********************************************************************

            Population analysis using the SCF Density.

 **********************************************************************

 Orbital symmetries:
       Occupied  (A) (A) (A) (A) (A) (A) (A) (A) (A) (A) (A) (A)
                 (A) (A) (A) (A) (A) (A) (A) (A) (A) (A) (A) (A)
       Virtual   (A) (A) (A) (A) (A) (A) (A) (A) (A) (A) (A) (A)
                 (A) (A) (A) (A) (A) (A) (A) (A) (A) (A) (A) (A)
                 (A) (A) (A) (A) (A) (A) (A) (A) (A) (A) (A) (A)
                 (A) (A) (A) (A) (A) (A) (A) (A) (A) (A) (A) (A)
                 (A) (A) (A) (A) (A) (A) (A) (A) (A) (A) (A) (A)
                 (A) (A) (A) (A) (A) (A) (A) (A) (A) (A) (A) (A)
                 (A) (A) (A) (A) (A) (A) (A) (A) (A) (A) (A) (A)
                 (A) (A) (A) (A) (A) (A) (A) (A) (A) (A) (A) (A)
                 (A) (A) (A) (A) (A) (A)
 The electronic state is 1-A.
 Alpha  occ. eigenvalues --  -19.21984 -19.21144 -19.21124 -10.35174 -10.27828
 Alpha  occ. eigenvalues --  -10.27786  -1.13366  -1.11610  -0.86304  -0.80903
 Alpha  occ. eigenvalues --   -0.68757  -0.59913  -0.53152  -0.52539  -0.48957
 Alpha  occ. eigenvalues --   -0.48164  -0.45139  -0.44619  -0.41796  -0.38232
 Alpha  occ. eigenvalues --   -0.32723  -0.26610  -0.24241  -0.19549
 Alpha virt. eigenvalues --   -0.10537  -0.07029   0.00013   0.00294   0.01716
 Alpha virt. eigenvalues --    0.01921   0.02953   0.03364   0.05313   0.07131
 Alpha virt. eigenvalues --    0.07384   0.08369   0.09780   0.11008   0.12319
 Alpha virt. eigenvalues --    0.12721   0.14483   0.15330   0.16575   0.18586
 Alpha virt. eigenvalues --    0.20161   0.22011   0.24056   0.24542   0.25927
 Alpha virt. eigenvalues --    0.26945   0.28698   0.29095   0.29736   0.31174
 Alpha virt. eigenvalues --    0.31561   0.32027   0.34001   0.37364   0.44350
 Alpha virt. eigenvalues --    0.55901   0.66244   0.68044   0.69334   0.71597
 Alpha virt. eigenvalues --    0.72610   0.76437   0.78651   0.84175   0.85640
 Alpha virt. eigenvalues --    0.90267   0.93473   0.96589   1.00020   1.01280
 Alpha virt. eigenvalues --    1.05968   1.07936   1.13119   1.13165   1.16670
 Alpha virt. eigenvalues --    1.20677   1.22625   1.23950   1.26348   1.26797
 Alpha virt. eigenvalues --    1.31062   1.31890   1.38624   1.40686   1.49125
 Alpha virt. eigenvalues --    1.52264   1.54014   1.57540   1.60773   1.63896
 Alpha virt. eigenvalues --    1.66039   1.70007   1.73524   1.79581   1.83447
 Alpha virt. eigenvalues --    1.84860   1.89238   1.92201   1.96196   1.99224
 Alpha virt. eigenvalues --    2.04043   2.09038   2.16534   2.20337   2.24084
 Alpha virt. eigenvalues --    2.30949   2.39544   2.41942   2.44666   2.55097
 Alpha virt. eigenvalues --    2.57921   2.69174   2.72252   2.99958   3.14522
 Alpha virt. eigenvalues --    3.28505   4.02944   4.17919   4.21007   4.34041
 Alpha virt. eigenvalues --    4.48251   4.70350
          Condensed to atoms (all electrons):
               1          2          3          4          5          6
     1  C    8.578205  -1.378330  -1.907488   0.132833  -0.106613   0.033750
     2  C   -1.378330   6.854389   0.626827  -0.289469   0.112289  -0.063623
     3  C   -1.907488   0.626827   6.758690   0.007843  -0.041753   0.374657
     4  O    0.132833  -0.289469   0.007843   8.214359   0.016796  -0.046535
     5  O   -0.106613   0.112289  -0.041753   0.016796   8.529727   0.005509
     6  O    0.033750  -0.063623   0.374657  -0.046535   0.005509   8.136856
     7  H    0.023181  -0.003435  -0.013754  -0.031913   0.180140  -0.000382
     8  H    0.129453   0.084365   0.126077  -0.045974   0.008130  -0.001257
     9  H    0.339737  -0.030967   0.011768   0.011787  -0.003935  -0.001058
    10  H    0.664635  -0.213398  -0.325244   0.032459  -0.000238  -0.005640
    11  H   -0.340925   0.532431   0.175471   0.005488  -0.000325   0.000823
    12  H    0.407415   0.184840  -0.379865   0.003278  -0.010884  -0.015826
               7          8          9         10         11         12
     1  C    0.023181   0.129453   0.339737   0.664635  -0.340925   0.407415
     2  C   -0.003435   0.084365  -0.030967  -0.213398   0.532431   0.184840
     3  C   -0.013754   0.126077   0.011768  -0.325244   0.175471  -0.379865
     4  O   -0.031913  -0.045974   0.011787   0.032459   0.005488   0.003278
     5  O    0.180140   0.008130  -0.003935  -0.000238  -0.000325  -0.010884
     6  O   -0.000382  -0.001257  -0.001058  -0.005640   0.000823  -0.015826
     7  H    0.338002  -0.000083  -0.000136  -0.000040  -0.000076   0.000562
     8  H   -0.000083   0.601892  -0.050517  -0.086565   0.003740  -0.001413
     9  H   -0.000136  -0.050517   0.481031   0.005959  -0.002543   0.000209
    10  H   -0.000040  -0.086565   0.005959   0.730334  -0.029438   0.027012
    11  H   -0.000076   0.003740  -0.002543  -0.029438   0.598570  -0.176526
    12  H    0.000562  -0.001413   0.000209   0.027012  -0.176526   0.851354
 Mulliken charges:
               1
     1  C   -0.575854
     2  C   -0.415919
     3  C    0.586772
     4  O   -0.010952
     5  O   -0.688843
     6  O   -0.417274
     7  H    0.507935
     8  H    0.232152
     9  H    0.238667
    10  H    0.200163
    11  H    0.233309
    12  H    0.109844
 Sum of Mulliken charges =  -0.00000
 Mulliken charges with hydrogens summed into heavy atoms:
               1
     1  C    0.095128
     2  C   -0.072766
     3  C    0.586772
     4  O   -0.010952
     5  O   -0.180908
     6  O   -0.417274
 APT charges:
               1
     1  C    0.411231
     2  C   -0.041905
     3  C    1.051303
     4  O   -0.397627
     5  O   -0.323451
     6  O   -0.724009
     7  H    0.279119
     8  H   -0.042237
     9  H    0.033873
    10  H   -0.108013
    11  H    0.187334
    12  H   -0.325618
 Sum of APT charges =  -0.00000
 APT charges with hydrogens summed into heavy atoms:
               1
     1  C    0.294855
     2  C   -0.180189
     3  C    1.051303
     4  O   -0.397627
     5  O   -0.044333
     6  O   -0.724009
 Electronic spatial extent (au):  <R**2>=            553.3411
 Charge=              0.0000 electrons
 Dipole moment (field-independent basis, Debye):
    X=              1.8721    Y=              1.4013    Z=              0.3408  Tot=              2.3631
 Quadrupole moment (field-independent basis, Debye-Ang):
   XX=            -40.2036   YY=            -31.6237   ZZ=            -37.2626
   XY=             -0.2933   XZ=              0.1391   YZ=             -2.5846
 Traceless Quadrupole moment (field-independent basis, Debye-Ang):
   XX=             -3.8403   YY=              4.7396   ZZ=             -0.8993
   XY=             -0.2933   XZ=              0.1391   YZ=             -2.5846
 Octapole moment (field-independent basis, Debye-Ang**2):
  XXX=             10.9786  YYY=            -32.2582  ZZZ=             -1.4385  XYY=              7.9605
  XXY=             -1.7357  XXZ=             -1.3657  XZZ=              0.9147  YZZ=              2.1853
  YYZ=              3.2685  XYZ=             -1.6159
 Hexadecapole moment (field-independent basis, Debye-Ang**3):
 XXXX=           -316.7524 YYYY=           -242.7919 ZZZZ=           -149.9232 XXXY=             -1.2796
 XXXZ=              2.2511 YYYX=            -19.8266 YYYZ=            -17.8373 ZZZX=             11.5628
 ZZZY=             -0.5988 XXYY=            -87.8279 XXZZ=            -76.6716 YYZZ=            -60.8137
 XXYZ=             -5.7128 YYXZ=              5.1142 ZZXY=              2.7968
 N-N= 2.447777783665D+02 E-N=-1.293184270068D+03  KE= 3.400459892062D+02
  Exact polarizability:  70.867   2.624  70.723 -11.278   2.451  75.748
 Approx polarizability: 118.894   6.794 122.647 -18.694  16.947 149.114
 Calling FoFJK, ICntrl=    100127 FMM=F ISym2X=0 I1Cent= 0 IOpClX= 0 NMat=1 NMatS=1 NMatT=0.
 ***** Axes restored to original set *****
 -------------------------------------------------------------------
 Center     Atomic                   Forces (Hartrees/Bohr)
 Number     Number              X              Y              Z
 -------------------------------------------------------------------
      1        6           0.010125752   -0.046433202   -0.023547025
      2        6           0.014169672    0.011195461    0.091710386
      3        6          -0.033370532    0.009510856   -0.001533630
      4        8           0.010480424   -0.032167111   -0.013923885
      5        8          -0.021335305    0.018870725   -0.003663951
      6        8          -0.007571961   -0.012403846    0.008344043
      7        1           0.005336277    0.006825037    0.001699594
      8        1           0.030073904    0.040156081    0.027494852
      9        1          -0.022153276   -0.005617872   -0.005613416
     10        1          -0.033398201    0.005471537   -0.059640212
     11        1           0.020139481   -0.047634388   -0.056538618
     12        1           0.027503767    0.052226723    0.035211861
 -------------------------------------------------------------------
 Cartesian Forces:  Max     0.091710386 RMS     0.030913216
 FormGI is forming the generalized inverse of G from B-inverse, IUseBI=4.

 GradGradGradGradGradGradGradGradGradGradGradGradGradGradGradGradGradGrad
 Berny optimization.
 Internal  Forces:  Max     0.063307302 RMS     0.027187287
 Search for a saddle point.
 Step number   1 out of a maximum of  100
 All quantities printed in internal units (Hartrees-Bohrs-Radians)
 Swapping is turned off.
 Second derivative matrix not updated -- analytic derivatives used.
 ITU=  0
     Eigenvalues ---   -0.39454  -0.27732  -0.05497  -0.02143  -0.00935
     Eigenvalues ---   -0.00568  -0.00248   0.00722   0.01526   0.02416
     Eigenvalues ---    0.04375   0.05372   0.07696   0.09409   0.10559
     Eigenvalues ---    0.11641   0.12965   0.15061   0.15920   0.17332
     Eigenvalues ---    0.18371   0.22539   0.25923   0.28421   0.32464
     Eigenvalues ---    0.34563   0.37130   0.41037   0.52005   1.01006
 Eigenvectors required to have negative eigenvalues:
                          R1        D11       D7        R5        A7
   1                    0.34253  -0.34059  -0.33076  -0.30480  -0.28601
                          A12       A9        A13       R8        A14
   1                   -0.28553   0.22715   0.22428   0.20497   0.16517
 RFO step:  Lambda0=4.280356690D-04 Lambda=-2.88526955D-01.
 Linear search not attempted -- option 19 set.
 Maximum step size (   0.300) exceeded in Quadratic search.
    -- Step size scaled by   0.345
 Iteration  1 RMS(Cart)=  0.09009719 RMS(Int)=  0.00435517
 Iteration  2 RMS(Cart)=  0.00402436 RMS(Int)=  0.00086185
 Iteration  3 RMS(Cart)=  0.00000893 RMS(Int)=  0.00086179
 Iteration  4 RMS(Cart)=  0.00000001 RMS(Int)=  0.00086179
 Variable       Old X    -DE/DX   Delta X   Delta X   Delta X     New X
                                 (Linear)    (Quad)   (Total)
    R1        3.17597   0.03613   0.00000   0.09867   0.09867   3.27464
    R2        2.13511  -0.00582   0.00000  -0.00471  -0.00471   2.13041
    R3        2.04008   0.01348   0.00000   0.00351   0.00351   2.04359
    R4        2.50460  -0.03870   0.00000  -0.06022  -0.06022   2.44438
    R5        2.95948  -0.04267   0.00000  -0.18992  -0.18992   2.76956
    R6        2.06116   0.00551   0.00000  -0.01578  -0.01578   2.04538
    R7        2.37784   0.01336   0.00000   0.04160   0.04160   2.41944
    R8        3.62855   0.00231   0.00000  -0.00225  -0.00225   3.62630
    R9        2.20688   0.00265   0.00000   0.00331   0.00331   2.21019
   R10        2.65093   0.02691   0.00000   0.01161   0.01161   2.66255
   R11        1.82561   0.00821   0.00000   0.00325   0.00325   1.82886
    A1        2.57534   0.02370   0.00000   0.05823   0.05641   2.63175
    A2        1.90313  -0.01327   0.00000  -0.03102  -0.03174   1.87139
    A3        1.09035   0.02268   0.00000   0.10661   0.10732   1.19767
    A4        1.68501   0.00561   0.00000   0.01271   0.01151   1.69652
    A5        1.48790   0.00494   0.00000  -0.04168  -0.04084   1.44706
    A6        2.39062  -0.03905   0.00000  -0.04226  -0.04416   2.34646
    A7        1.53956   0.02994   0.00000   0.05363   0.05346   1.59302
    A8        2.03467  -0.04200   0.00000   0.01259   0.01365   2.04832
    A9        2.70492   0.01310   0.00000  -0.06823  -0.06937   2.63555
   A10        1.61315  -0.04615   0.00000  -0.03356  -0.03209   1.58106
   A11        1.11617   0.06331   0.00000  -0.01448  -0.01164   1.10453
   A12        1.59339  -0.01148   0.00000   0.01597   0.01554   1.60894
   A13        2.73613  -0.00546   0.00000   0.02198   0.02187   2.75800
   A14        1.85080   0.02078   0.00000  -0.02043  -0.02089   1.82991
   A15        1.71227   0.03507   0.00000   0.02401   0.02401   1.73628
   A16        1.79649  -0.00573   0.00000  -0.00813  -0.00813   1.78837
   A17        3.15271  -0.01621   0.00000   0.02007   0.02137   3.17408
   A18        2.94964  -0.05011   0.00000  -0.08605  -0.08609   2.86354
    D1        1.18734  -0.02614   0.00000  -0.08798  -0.08866   1.09868
    D2       -1.89264  -0.03565   0.00000  -0.06803  -0.06758  -1.96022
    D3       -2.64989   0.01038   0.00000   0.00302   0.00351  -2.64638
    D4        0.55332   0.00087   0.00000   0.02297   0.02458   0.57790
    D5        1.29797   0.04973   0.00000   0.04086   0.03936   1.33734
    D6       -1.78201   0.04022   0.00000   0.06081   0.06044  -1.72157
    D7        0.81476  -0.04037   0.00000  -0.03251  -0.03297   0.78179
    D8       -3.04431  -0.01907   0.00000   0.00818   0.00787  -3.03644
    D9       -2.45742  -0.02657   0.00000  -0.05496  -0.05430  -2.51172
   D10       -0.03329  -0.00527   0.00000  -0.01427  -0.01347  -0.04676
   D11       -2.13488   0.00975   0.00000   0.05354   0.05313  -2.08175
   D12        0.28924   0.03104   0.00000   0.09423   0.09396   0.38320
   D13        0.90998   0.01295   0.00000   0.01408   0.01373   0.92371
   D14       -1.95838   0.01135   0.00000  -0.01498  -0.01462  -1.97301
   D15        2.26381   0.00140   0.00000   0.03435   0.03435   2.29817
         Item               Value     Threshold  Converged?
 Maximum Force            0.063307     0.000450     NO 
 RMS     Force            0.027187     0.000300     NO 
 Maximum Displacement     0.266750     0.001800     NO 
 RMS     Displacement     0.090207     0.001200     NO 
 Predicted change in Energy=-5.007307D-02
 GradGradGradGradGradGradGradGradGradGradGradGradGradGradGradGradGradGrad

                          Input orientation:                          
 ---------------------------------------------------------------------
 Center     Atomic      Atomic             Coordinates (Angstroms)
 Number     Number       Type             X           Y           Z
 ---------------------------------------------------------------------
      1          6           0        1.232497    0.572434   -2.644818
      2          6           0        0.142038    0.460202   -1.302759
      3          6           0        1.228988    0.723344   -0.355527
      4          8           0        1.917748    2.155880   -1.430623
      5          8           0        0.743749    2.920914   -1.577638
      6          8           0        1.760511    0.843054    0.679399
      7          1           0        1.047713    3.813777   -1.360793
      8          1           0        2.129490    0.200588   -3.217602
      9          1           0        0.658245    0.910352   -3.496594
     10          1           0        1.358447   -0.557626   -2.028164
     11          1           0       -0.880699    0.176642   -1.515184
     12          1           0       -0.726477    0.718022   -0.398098
 ---------------------------------------------------------------------
                    Distance matrix (angstroms):
                    1          2          3          4          5
     1  C    0.000000
     2  C    1.732864   0.000000
     3  C    2.294262   1.465590   0.000000
     4  O    2.109772   2.458621   1.918953   0.000000
     5  O    2.625472   2.548081   2.560923   1.408959   0.000000
     6  O    3.376752   2.587466   1.169581   2.490066   3.231953
     7  H    3.491299   3.474202   3.254873   1.873622   0.967791
     8  H    1.127363   2.772001   3.045595   2.657310   3.465535
     9  H    1.081423   2.298263   3.197971   2.721383   2.780658
    10  H    1.293508   1.744087   2.110772   2.834253   3.561049
    11  H    2.428646   1.082368   2.468697   3.428679   3.189633
    12  H    2.984381   1.280313   1.955935   3.182054   2.899243
                    6          7          8          9         10
     6  O    0.000000
     7  H    3.673644   0.000000
     8  H    3.966803   4.203941   0.000000
     9  H    4.319541   3.625356   1.657155   0.000000
    10  H    3.074811   4.432957   1.607532   2.191239   0.000000
    11  H    3.498041   4.119631   3.458329   2.613936   2.411654
    12  H    2.713253   3.695704   4.046466   3.399283   2.937908
                   11         12
    11  H    0.000000
    12  H    1.250903   0.000000
 Stoichiometry    C3H6O3
 Framework group  C1[X(C3H6O3)]
 Deg. of freedom    30
 Full point group                 C1      NOp   1
 Largest Abelian subgroup         C1      NOp   1
 Largest concise Abelian subgroup C1      NOp   1
                         Standard orientation:                         
 ---------------------------------------------------------------------
 Center     Atomic      Atomic             Coordinates (Angstroms)
 Number     Number       Type             X           Y           Z
 ---------------------------------------------------------------------
      1          6           0        1.005602    1.184218   -0.551671
      2          6           0       -0.101424    1.061169    0.775797
      3          6           0       -0.995804    0.203719   -0.007029
      4          8           0        0.467543   -0.852994   -0.658454
      5          8           0        1.074573   -1.189701    0.567640
      6          8           0       -1.952266   -0.418916   -0.262816
      7          1           0        1.204176   -2.144875    0.481229
      8          1           0        1.246770    1.504439   -1.605352
      9          1           0        1.990690    1.340306   -0.133683
     10          1           0       -0.031539    1.936018   -0.731383
     11          1           0        0.113354    1.649183    1.658764
     12          1           0       -0.692498    0.713175    1.856877
 ---------------------------------------------------------------------
 Rotational constants (GHZ):           4.3230817           3.4100257           2.5529124
 Standard basis: 6-31+G(d) (6D, 7F)
 There are   126 symmetry adapted cartesian basis functions of A   symmetry.
 There are   126 symmetry adapted basis functions of A   symmetry.
   126 basis functions,   216 primitive gaussians,   126 cartesian basis functions
    24 alpha electrons       24 beta electrons
       nuclear repulsion energy       245.1506149923 Hartrees.
 NAtoms=   12 NActive=   12 NUniq=   12 SFac= 1.00D+00 NAtFMM=   60 NAOKFM=F Big=F
 Integral buffers will be    131072 words long.
 Raffenetti 2 integral format.
 Two-electron integral symmetry is turned on.
 One-electron integrals computed using PRISM.
 NBasis=   126 RedAO= T EigKep=  9.05D-05  NBF=   126
 NBsUse=   126 1.00D-06 EigRej= -1.00D+00 NBFU=   126
 Initial guess from the checkpoint file:  "/scratch/bell/zhao922/YARP/paper-example/KHP-network/pp_0/TS-folder/Gau-18005.chk"
 B after Tr=     0.000000    0.000000   -0.000000
         Rot=    0.999018   -0.015063    0.020022   -0.036532 Ang=  -5.08 deg.
 ExpMin= 4.38D-02 ExpMax= 5.48D+03 ExpMxC= 8.25D+02 IAcc=3 IRadAn=         5 AccDes= 0.00D+00
 Harris functional with IExCor=  402 and IRadAn=       5 diagonalized for initial guess.
 HarFok:  IExCor=  402 AccDes= 0.00D+00 IRadAn=         5 IDoV= 1 UseB2=F ITyADJ=14
 ICtDFT=  3500011 ScaDFX=  1.000000  1.000000  1.000000  1.000000
 FoFCou: FMM=F IPFlag=           0 FMFlag=      100000 FMFlg1=           0
         NFxFlg=           0 DoJE=T BraDBF=F KetDBF=T FulRan=T
         wScrn=  0.000000 ICntrl=       500 IOpCl=  0 I1Cent=   200000004 NGrid=           0
         NMat0=    1 NMatS0=      1 NMatT0=    0 NMatD0=    1 NMtDS0=    0 NMtDT0=    0
 Petite list used in FoFCou.
 Keep R1 ints in memory in canonical form, NReq=47237537.
 Requested convergence on RMS density matrix=1.00D-08 within 128 cycles.
 Requested convergence on MAX density matrix=1.00D-06.
 Requested convergence on             energy=1.00D-06.
 No special actions if energy rises.
 SCF Done:  E(RB3LYP) =  -343.098295664     A.U. after   15 cycles
            NFock= 15  Conv=0.64D-08     -V/T= 2.0090
 DoSCS=F DFT=T ScalE2(SS,OS)=  1.000000  1.000000
 Range of M.O.s used for correlation:     1   126
 NBasis=   126 NAE=    24 NBE=    24 NFC=     0 NFV=     0
 NROrb=    126 NOA=    24 NOB=    24 NVA=   102 NVB=   102

 **** Warning!!: The largest alpha MO coefficient is  0.33041970D+02

 Symmetrizing basis deriv contribution to polar:
 IMax=3 JMax=2 DiffMx= 0.00D+00
 G2DrvN: will do    13 centers at a time, making    1 passes.
 Calling FoFCou, ICntrl=  3107 FMM=F I1Cent=   0 AccDes= 0.00D+00.
 End of G2Drv F.D. properties file   721 does not exist.
 End of G2Drv F.D. properties file   722 does not exist.
 End of G2Drv F.D. properties file   788 does not exist.
          IDoAtm=111111111111
          Differentiating once with respect to electric field.
                with respect to dipole field.
          Differentiating once with respect to nuclear coordinates.
 Keep R1 ints in memory in canonical form, NReq=47193552.
          There are    39 degrees of freedom in the 1st order CPHF.  IDoFFX=6 NUNeed=     3.
     36 vectors produced by pass  0 Test12= 6.28D-15 2.56D-09 XBig12= 1.23D+02 5.75D+00.
 AX will form    36 AO Fock derivatives at one time.
     36 vectors produced by pass  1 Test12= 6.28D-15 2.56D-09 XBig12= 4.35D+01 1.21D+00.
     36 vectors produced by pass  2 Test12= 6.28D-15 2.56D-09 XBig12= 5.22D-01 9.60D-02.
     36 vectors produced by pass  3 Test12= 6.28D-15 2.56D-09 XBig12= 2.72D-03 9.36D-03.
     36 vectors produced by pass  4 Test12= 6.28D-15 2.56D-09 XBig12= 7.51D-06 4.07D-04.
     33 vectors produced by pass  5 Test12= 6.28D-15 2.56D-09 XBig12= 8.84D-09 1.30D-05.
      9 vectors produced by pass  6 Test12= 6.28D-15 2.56D-09 XBig12= 8.55D-12 5.20D-07.
      3 vectors produced by pass  7 Test12= 6.28D-15 2.56D-09 XBig12= 7.56D-15 1.01D-08.
 InvSVY:  IOpt=1 It=  1 EMax= 3.55D-15
 Solved reduced A of dimension   225 with    39 vectors.
 Isotropic polarizability for W=    0.000000       70.51 Bohr**3.
 End of Minotr F.D. properties file   721 does not exist.
 End of Minotr F.D. properties file   722 does not exist.
 End of Minotr F.D. properties file   788 does not exist.
 Calling FoFJK, ICntrl=    100127 FMM=F ISym2X=0 I1Cent= 0 IOpClX= 0 NMat=1 NMatS=1 NMatT=0.
 ***** Axes restored to original set *****
 -------------------------------------------------------------------
 Center     Atomic                   Forces (Hartrees/Bohr)
 Number     Number              X              Y              Z
 -------------------------------------------------------------------
      1        6           0.017854039   -0.068426823   -0.019541693
      2        6           0.007744140    0.024141466    0.088461265
      3        6          -0.041937519    0.010311097   -0.004767167
      4        8           0.010709109   -0.027139102   -0.012056020
      5        8          -0.016981440    0.016240006   -0.003259076
      6        8          -0.000974512   -0.016661687    0.008012485
      7        1           0.005100843    0.004690995    0.001124662
      8        1           0.030356825    0.049114191    0.022360119
      9        1          -0.022740045   -0.010604172   -0.002375562
     10        1          -0.030488356    0.018682069   -0.053670788
     11        1           0.017232865   -0.049945245   -0.040701739
     12        1           0.024124052    0.049597205    0.016413514
 -------------------------------------------------------------------
 Cartesian Forces:  Max     0.088461265 RMS     0.030766870
 FormGI is forming the generalized inverse of G from B-inverse, IUseBI=4.

 GradGradGradGradGradGradGradGradGradGradGradGradGradGradGradGradGradGrad
 Berny optimization.
 Internal  Forces:  Max     0.048072474 RMS     0.024436715
 Search for a saddle point.
 Step number   2 out of a maximum of  100
 All quantities printed in internal units (Hartrees-Bohrs-Radians)
 Swapping is turned off.
 Second derivative matrix not updated -- analytic derivatives used.
 ITU=  0  0
     Eigenvalues ---   -0.44798  -0.07549  -0.03696  -0.01607  -0.00517
     Eigenvalues ---   -0.00165   0.00464   0.00751   0.02390   0.03946
     Eigenvalues ---    0.05266   0.05877   0.08694   0.09608   0.11114
     Eigenvalues ---    0.12915   0.13633   0.16347   0.18099   0.18368
     Eigenvalues ---    0.20684   0.22753   0.26351   0.29475   0.33969
     Eigenvalues ---    0.35343   0.36697   0.39977   0.51442   1.00994
 Eigenvectors required to have negative eigenvalues:
                          R1        A7        D11       R5        A12
   1                    0.35330  -0.33955  -0.30232  -0.29839  -0.29352
                          D7        A13       A9        R8        A17
   1                   -0.28190   0.24553   0.23687   0.21709  -0.19946
 RFO step:  Lambda0=1.397554636D-04 Lambda=-1.20396045D-01.
 Linear search not attempted -- option 19 set.
 Maximum step size (   0.300) exceeded in Quadratic search.
    -- Step size scaled by   0.335
 Iteration  1 RMS(Cart)=  0.10818452 RMS(Int)=  0.00775021
 Iteration  2 RMS(Cart)=  0.00764713 RMS(Int)=  0.00206289
 Iteration  3 RMS(Cart)=  0.00005118 RMS(Int)=  0.00206232
 Iteration  4 RMS(Cart)=  0.00000014 RMS(Int)=  0.00206232
 Variable       Old X    -DE/DX   Delta X   Delta X   Delta X     New X
                                 (Linear)    (Quad)   (Total)
    R1        3.27464   0.03734   0.00000   0.07931   0.07931   3.35395
    R2        2.13041  -0.00341   0.00000   0.00637   0.00637   2.13677
    R3        2.04359   0.01063   0.00000   0.00908   0.00908   2.05267
    R4        2.44438  -0.04488   0.00000  -0.11478  -0.11478   2.32959
    R5        2.76956  -0.04202   0.00000  -0.06858  -0.06858   2.70098
    R6        2.04538   0.00479   0.00000   0.00110   0.00110   2.04648
    R7        2.41944   0.00522   0.00000  -0.02555  -0.02555   2.39389
    R8        3.62630   0.00290   0.00000   0.01146   0.01146   3.63776
    R9        2.21019   0.00494   0.00000   0.00084   0.00084   2.21103
   R10        2.66255   0.02149   0.00000   0.01655   0.01655   2.67910
   R11        1.82886   0.00618   0.00000   0.00278   0.00278   1.83164
    A1        2.63175   0.02935   0.00000   0.13959   0.14058   2.77232
    A2        1.87139  -0.02180   0.00000  -0.10703  -0.10560   1.76580
    A3        1.19767   0.02619   0.00000   0.09005   0.09053   1.28820
    A4        1.69652   0.00477   0.00000  -0.02575  -0.02397   1.67255
    A5        1.44706   0.00954   0.00000   0.04593   0.04639   1.49345
    A6        2.34646  -0.03693   0.00000  -0.06426  -0.06275   2.28370
    A7        1.59302   0.02517   0.00000   0.04404   0.04248   1.63550
    A8        2.04832  -0.02986   0.00000   0.01620   0.01705   2.06537
    A9        2.63555   0.00521   0.00000  -0.06975  -0.07280   2.56275
   A10        1.58106  -0.03449   0.00000  -0.02922  -0.02469   1.55637
   A11        1.10453   0.04807   0.00000   0.01196   0.01998   1.12451
   A12        1.60894  -0.00755   0.00000  -0.00575  -0.00622   1.60272
   A13        2.75800  -0.00209   0.00000   0.01306   0.01275   2.77075
   A14        1.82991   0.01447   0.00000   0.01231   0.01181   1.84173
   A15        1.73628   0.02851   0.00000   0.01347   0.01347   1.74976
   A16        1.78837  -0.00591   0.00000  -0.01203  -0.01203   1.77634
   A17        3.17408  -0.00932   0.00000   0.01482   0.01779   3.19187
   A18        2.86354  -0.04796   0.00000  -0.09517  -0.09547   2.76807
    D1        1.09868  -0.02766   0.00000  -0.03064  -0.03277   1.06592
    D2       -1.96022  -0.03205   0.00000   0.03710   0.03965  -1.92057
    D3       -2.64638   0.00390   0.00000  -0.07421  -0.07746  -2.72384
    D4        0.57790  -0.00050   0.00000  -0.00647  -0.00505   0.57285
    D5        1.33734   0.03649   0.00000  -0.03757  -0.03921   1.29813
    D6       -1.72157   0.03209   0.00000   0.03017   0.03321  -1.68836
    D7        0.78179  -0.03637   0.00000  -0.06273  -0.06465   0.71714
    D8       -3.03644  -0.01347   0.00000   0.00615   0.00433  -3.03211
    D9       -2.51172  -0.03205   0.00000  -0.16732  -0.16392  -2.67564
   D10       -0.04676  -0.00915   0.00000  -0.09843  -0.09494  -0.14170
   D11       -2.08175   0.01159   0.00000   0.03244   0.03082  -2.05093
   D12        0.38320   0.03449   0.00000   0.10133   0.09980   0.48300
   D13        0.92371   0.01278   0.00000   0.05341   0.05328   0.97698
   D14       -1.97301   0.00791   0.00000   0.02470   0.02483  -1.94818
   D15        2.29817   0.00142   0.00000   0.00312   0.00312   2.30128
         Item               Value     Threshold  Converged?
 Maximum Force            0.048072     0.000450     NO 
 RMS     Force            0.024437     0.000300     NO 
 Maximum Displacement     0.270578     0.001800     NO 
 RMS     Displacement     0.109243     0.001200     NO 
 Predicted change in Energy=-4.234802D-02
 GradGradGradGradGradGradGradGradGradGradGradGradGradGradGradGradGradGrad

                          Input orientation:                          
 ---------------------------------------------------------------------
 Center     Atomic      Atomic             Coordinates (Angstroms)
 Number     Number       Type             X           Y           Z
 ---------------------------------------------------------------------
      1          6           0        1.243531    0.575809   -2.648764
      2          6           0        0.133610    0.443843   -1.270106
      3          6           0        1.151940    0.717199   -0.305132
      4          8           0        1.919559    2.091287   -1.413435
      5          8           0        0.788823    2.925829   -1.600245
      6          8           0        1.654518    0.843835    0.743840
      7          1           0        1.154802    3.801657   -1.404156
      8          1           0        2.123075    0.343771   -3.320417
      9          1           0        0.554174    0.822785   -3.451062
     10          1           0        1.496190   -0.501807   -2.105972
     11          1           0       -0.869044    0.076636   -1.450724
     12          1           0       -0.738928    0.796740   -0.422225
 ---------------------------------------------------------------------
                    Distance matrix (angstroms):
                    1          2          3          4          5
     1  C    0.000000
     2  C    1.774835   0.000000
     3  C    2.349679   1.429299   0.000000
     4  O    2.068750   2.433975   1.925018   0.000000
     5  O    2.613187   2.588156   2.585965   1.417717   0.000000
     6  O    3.427902   2.555217   1.170026   2.506037   3.252516
     7  H    3.458759   3.512224   3.274407   1.873581   0.969261
     8  H    1.130733   2.858629   3.189748   2.594573   3.377313
     9  H    1.086228   2.253229   3.203959   2.761394   2.811295
    10  H    1.232768   1.857296   2.201706   2.717165   3.536215
    11  H    2.479405   1.082949   2.409788   3.440424   3.299815
    12  H    2.989386   1.266791   1.896160   3.118639   2.873112
                    6          7          8          9         10
     6  O    0.000000
     7  H    3.689487   0.000000
     8  H    4.121625   4.070206   0.000000
     9  H    4.336866   3.663913   1.645592   0.000000
    10  H    3.155510   4.373659   1.607129   2.109788   0.000000
    11  H    3.431190   4.239564   3.538345   2.565861   2.521562
    12  H    2.662801   3.685096   4.098262   3.293425   3.084960
                   11         12
    11  H    0.000000
    12  H    1.262256   0.000000
 Stoichiometry    C3H6O3
 Framework group  C1[X(C3H6O3)]
 Deg. of freedom    30
 Full point group                 C1      NOp   1
 Largest Abelian subgroup         C1      NOp   1
 Largest concise Abelian subgroup C1      NOp   1
                         Standard orientation:                         
 ---------------------------------------------------------------------
 Center     Atomic      Atomic             Coordinates (Angstroms)
 Number     Number       Type             X           Y           Z
 ---------------------------------------------------------------------
      1          6           0        1.083877    1.150141   -0.516967
      2          6           0       -0.155871    1.068257    0.750454
      3          6           0       -1.014136    0.219081   -0.014515
      4          8           0        0.476519   -0.823318   -0.644629
      5          8           0        1.049907   -1.216303    0.590973
      6          8           0       -1.968425   -0.394799   -0.299902
      7          1           0        1.177680   -2.167592    0.456102
      8          1           0        1.549910    1.369162   -1.523644
      9          1           0        1.967414    1.389083    0.067979
     10          1           0        0.153401    1.862478   -0.899731
     11          1           0       -0.057119    1.720844    1.609033
     12          1           0       -0.738514    0.676511    1.804884
 ---------------------------------------------------------------------
 Rotational constants (GHZ):           4.3935891           3.3450198           2.5192244
 Standard basis: 6-31+G(d) (6D, 7F)
 There are   126 symmetry adapted cartesian basis functions of A   symmetry.
 There are   126 symmetry adapted basis functions of A   symmetry.
   126 basis functions,   216 primitive gaussians,   126 cartesian basis functions
    24 alpha electrons       24 beta electrons
       nuclear repulsion energy       244.8183375052 Hartrees.
 NAtoms=   12 NActive=   12 NUniq=   12 SFac= 1.00D+00 NAtFMM=   60 NAOKFM=F Big=F
 Integral buffers will be    131072 words long.
 Raffenetti 2 integral format.
 Two-electron integral symmetry is turned on.
 One-electron integrals computed using PRISM.
 NBasis=   126 RedAO= T EigKep=  8.13D-05  NBF=   126
 NBsUse=   126 1.00D-06 EigRej= -1.00D+00 NBFU=   126
 Initial guess from the checkpoint file:  "/scratch/bell/zhao922/YARP/paper-example/KHP-network/pp_0/TS-folder/Gau-18005.chk"
 B after Tr=    -0.000000   -0.000000    0.000000
         Rot=    0.999776    0.001679    0.019484    0.008083 Ang=   2.43 deg.
 ExpMin= 4.38D-02 ExpMax= 5.48D+03 ExpMxC= 8.25D+02 IAcc=3 IRadAn=         5 AccDes= 0.00D+00
 Harris functional with IExCor=  402 and IRadAn=       5 diagonalized for initial guess.
 HarFok:  IExCor=  402 AccDes= 0.00D+00 IRadAn=         5 IDoV= 1 UseB2=F ITyADJ=14
 ICtDFT=  3500011 ScaDFX=  1.000000  1.000000  1.000000  1.000000
 FoFCou: FMM=F IPFlag=           0 FMFlag=      100000 FMFlg1=           0
         NFxFlg=           0 DoJE=T BraDBF=F KetDBF=T FulRan=T
         wScrn=  0.000000 ICntrl=       500 IOpCl=  0 I1Cent=   200000004 NGrid=           0
         NMat0=    1 NMatS0=      1 NMatT0=    0 NMatD0=    1 NMtDS0=    0 NMtDT0=    0
 Petite list used in FoFCou.
 Keep R1 ints in memory in canonical form, NReq=47237537.
 Requested convergence on RMS density matrix=1.00D-08 within 128 cycles.
 Requested convergence on MAX density matrix=1.00D-06.
 Requested convergence on             energy=1.00D-06.
 No special actions if energy rises.
 SCF Done:  E(RB3LYP) =  -343.139411529     A.U. after   14 cycles
            NFock= 14  Conv=0.57D-08     -V/T= 2.0090
 DoSCS=F DFT=T ScalE2(SS,OS)=  1.000000  1.000000
 Range of M.O.s used for correlation:     1   126
 NBasis=   126 NAE=    24 NBE=    24 NFC=     0 NFV=     0
 NROrb=    126 NOA=    24 NOB=    24 NVA=   102 NVB=   102

 **** Warning!!: The largest alpha MO coefficient is  0.39458979D+02

 Symmetrizing basis deriv contribution to polar:
 IMax=3 JMax=2 DiffMx= 0.00D+00
 G2DrvN: will do    13 centers at a time, making    1 passes.
 Calling FoFCou, ICntrl=  3107 FMM=F I1Cent=   0 AccDes= 0.00D+00.
 End of G2Drv F.D. properties file   721 does not exist.
 End of G2Drv F.D. properties file   722 does not exist.
 End of G2Drv F.D. properties file   788 does not exist.
          IDoAtm=111111111111
          Differentiating once with respect to electric field.
                with respect to dipole field.
          Differentiating once with respect to nuclear coordinates.
 Keep R1 ints in memory in canonical form, NReq=47193552.
          There are    39 degrees of freedom in the 1st order CPHF.  IDoFFX=6 NUNeed=     3.
     36 vectors produced by pass  0 Test12= 6.28D-15 2.56D-09 XBig12= 1.04D+02 5.55D+00.
 AX will form    36 AO Fock derivatives at one time.
     36 vectors produced by pass  1 Test12= 6.28D-15 2.56D-09 XBig12= 3.84D+01 1.25D+00.
     36 vectors produced by pass  2 Test12= 6.28D-15 2.56D-09 XBig12= 4.68D-01 1.13D-01.
     36 vectors produced by pass  3 Test12= 6.28D-15 2.56D-09 XBig12= 2.32D-03 7.92D-03.
     36 vectors produced by pass  4 Test12= 6.28D-15 2.56D-09 XBig12= 5.09D-06 2.77D-04.
     32 vectors produced by pass  5 Test12= 6.28D-15 2.56D-09 XBig12= 5.91D-09 9.91D-06.
      7 vectors produced by pass  6 Test12= 6.28D-15 2.56D-09 XBig12= 6.42D-12 2.85D-07.
      3 vectors produced by pass  7 Test12= 6.28D-15 2.56D-09 XBig12= 6.09D-15 1.17D-08.
 InvSVY:  IOpt=1 It=  1 EMax= 8.88D-15
 Solved reduced A of dimension   222 with    39 vectors.
 Isotropic polarizability for W=    0.000000       68.73 Bohr**3.
 End of Minotr F.D. properties file   721 does not exist.
 End of Minotr F.D. properties file   722 does not exist.
 End of Minotr F.D. properties file   788 does not exist.
 Calling FoFJK, ICntrl=    100127 FMM=F ISym2X=0 I1Cent= 0 IOpClX= 0 NMat=1 NMatS=1 NMatT=0.
 ***** Axes restored to original set *****
 -------------------------------------------------------------------
 Center     Atomic                   Forces (Hartrees/Bohr)
 Number     Number              X              Y              Z
 -------------------------------------------------------------------
      1        6           0.021172982   -0.070219544   -0.024036442
      2        6          -0.012949218    0.035694234    0.081484680
      3        6          -0.029905091    0.007266256   -0.003364977
      4        8           0.008702628   -0.023435638   -0.011360060
      5        8          -0.012041209    0.014383610   -0.001743592
      6        8          -0.000127395   -0.014763893    0.006926432
      7        1           0.004214631    0.003022524    0.000818017
      8        1           0.026573080    0.051992505    0.020802899
      9        1          -0.018808624   -0.015675175    0.000639801
     10        1          -0.030895284    0.019433169   -0.041665798
     11        1           0.019273186   -0.050436099   -0.032067201
     12        1           0.024790315    0.042738052    0.003566241
 -------------------------------------------------------------------
 Cartesian Forces:  Max     0.081484680 RMS     0.029014760
 FormGI is forming the generalized inverse of G from B-inverse, IUseBI=4.

 GradGradGradGradGradGradGradGradGradGradGradGradGradGradGradGradGradGrad
 Berny optimization.
 Internal  Forces:  Max     0.041665150 RMS     0.020230907
 Search for a saddle point.
 Step number   3 out of a maximum of  100
 All quantities printed in internal units (Hartrees-Bohrs-Radians)
 Swapping is turned off.
 Second derivative matrix not updated -- analytic derivatives used.
 ITU=  0  0  0
     Eigenvalues ---   -0.54828  -0.05357  -0.02938  -0.01688   0.00006
     Eigenvalues ---    0.00482   0.00646   0.01442   0.03256   0.04650
     Eigenvalues ---    0.05350   0.07605   0.09193   0.11225   0.11907
     Eigenvalues ---    0.13717   0.14153   0.16807   0.17763   0.18282
     Eigenvalues ---    0.21391   0.25673   0.26167   0.31112   0.32737
     Eigenvalues ---    0.35343   0.35865   0.38761   0.50987   1.01255
 Eigenvectors required to have negative eigenvalues:
                          A7        A12       R1        R5        A13
   1                    0.36842   0.34467  -0.33516   0.29808  -0.27646
                          D11       A17       D7        A9        R8
   1                    0.25430   0.23817   0.23483  -0.23410  -0.22230
 RFO step:  Lambda0=5.534745614D-05 Lambda=-9.53808413D-02.
 Linear search not attempted -- option 19 set.
 Maximum step size (   0.300) exceeded in Quadratic search.
    -- Step size scaled by   0.348
 Iteration  1 RMS(Cart)=  0.10181069 RMS(Int)=  0.00699374
 Iteration  2 RMS(Cart)=  0.00736111 RMS(Int)=  0.00206954
 Iteration  3 RMS(Cart)=  0.00004195 RMS(Int)=  0.00206885
 Iteration  4 RMS(Cart)=  0.00000013 RMS(Int)=  0.00206885
 Variable       Old X    -DE/DX   Delta X   Delta X   Delta X     New X
                                 (Linear)    (Quad)   (Total)
    R1        3.35395   0.03208   0.00000   0.08167   0.08167   3.43562
    R2        2.13677  -0.00236   0.00000   0.00384   0.00384   2.14062
    R3        2.05267   0.00790   0.00000   0.00945   0.00945   2.06213
    R4        2.32959  -0.04167   0.00000  -0.10582  -0.10582   2.22377
    R5        2.70098  -0.02925   0.00000  -0.02882  -0.02882   2.67216
    R6        2.04648   0.00461   0.00000   0.00730   0.00730   2.05378
    R7        2.39389  -0.00278   0.00000  -0.06491  -0.06491   2.32898
    R8        3.63776   0.00312   0.00000   0.01241   0.01241   3.65016
    R9        2.21103   0.00456   0.00000   0.00028   0.00028   2.21130
   R10        2.67910   0.01661   0.00000   0.01436   0.01436   2.69345
   R11        1.83164   0.00449   0.00000   0.00226   0.00226   1.83390
    A1        2.77232   0.02854   0.00000   0.15262   0.15400   2.92632
    A2        1.76580  -0.02211   0.00000  -0.11180  -0.10723   1.65856
    A3        1.28820   0.01905   0.00000   0.06725   0.06934   1.35755
    A4        1.67255   0.00279   0.00000  -0.03958  -0.03468   1.63787
    A5        1.49345   0.01262   0.00000   0.07570   0.07786   1.57131
    A6        2.28370  -0.03153   0.00000  -0.06699  -0.06560   2.21810
    A7        1.63550   0.01882   0.00000   0.02279   0.02091   1.65641
    A8        2.06537  -0.02065   0.00000   0.00922   0.00906   2.07443
    A9        2.56275   0.00144   0.00000  -0.05106  -0.05371   2.50904
   A10        1.55637  -0.02461   0.00000  -0.01319  -0.00902   1.54735
   A11        1.12451   0.03990   0.00000   0.04394   0.05124   1.17575
   A12        1.60272  -0.00619   0.00000  -0.00888  -0.00914   1.59358
   A13        2.77075  -0.00122   0.00000   0.00629   0.00606   2.77681
   A14        1.84173   0.01155   0.00000   0.01647   0.01620   1.85793
   A15        1.74976   0.02214   0.00000   0.01608   0.01608   1.76584
   A16        1.77634  -0.00488   0.00000  -0.00960  -0.00960   1.76674
   A17        3.19187  -0.00580   0.00000   0.00960   0.01189   3.20376
   A18        2.76807  -0.04018   0.00000  -0.08683  -0.08666   2.68141
    D1        1.06592  -0.02232   0.00000   0.01679   0.01575   1.08166
    D2       -1.92057  -0.02176   0.00000   0.09797   0.09980  -1.82077
    D3       -2.72384  -0.00303   0.00000  -0.10439  -0.10687  -2.83071
    D4        0.57285  -0.00247   0.00000  -0.02321  -0.02281   0.55004
    D5        1.29813   0.02477   0.00000  -0.05959  -0.06039   1.23774
    D6       -1.68836   0.02533   0.00000   0.02159   0.02367  -1.66469
    D7        0.71714  -0.02932   0.00000  -0.04988  -0.05134   0.66579
    D8       -3.03211  -0.00825   0.00000   0.01007   0.00864  -3.02347
    D9       -2.67564  -0.03367   0.00000  -0.16178  -0.15873  -2.83437
   D10       -0.14170  -0.01260   0.00000  -0.10182  -0.09874  -0.24044
   D11       -2.05093   0.01085   0.00000   0.03695   0.03531  -2.01562
   D12        0.48300   0.03193   0.00000   0.09690   0.09530   0.57831
   D13        0.97698   0.01281   0.00000   0.04533   0.04534   1.02232
   D14       -1.94818   0.00754   0.00000   0.02383   0.02382  -1.92436
   D15        2.30128   0.00104   0.00000   0.00272   0.00272   2.30400
         Item               Value     Threshold  Converged?
 Maximum Force            0.041665     0.000450     NO 
 RMS     Force            0.020231     0.000300     NO 
 Maximum Displacement     0.273645     0.001800     NO 
 RMS     Displacement     0.102541     0.001200     NO 
 Predicted change in Energy=-3.499992D-02
 GradGradGradGradGradGradGradGradGradGradGradGradGradGradGradGradGradGrad

                          Input orientation:                          
 ---------------------------------------------------------------------
 Center     Atomic      Atomic             Coordinates (Angstroms)
 Number     Number       Type             X           Y           Z
 ---------------------------------------------------------------------
      1          6           0        1.257754    0.582611   -2.649401
      2          6           0        0.113623    0.433171   -1.244427
      3          6           0        1.091536    0.712255   -0.261916
      4          8           0        1.920366    2.035256   -1.399336
      5          8           0        0.835003    2.933775   -1.614215
      6          8           0        1.571454    0.838808    0.797785
      7          1           0        1.258783    3.788235   -1.435063
      8          1           0        2.084167    0.488578   -3.418398
      9          1           0        0.473732    0.702461   -3.398887
     10          1           0        1.611016   -0.420762   -2.146175
     11          1           0       -0.860861   -0.019564   -1.407431
     12          1           0       -0.744326    0.862761   -0.470936
 ---------------------------------------------------------------------
                    Distance matrix (angstroms):
                    1          2          3          4          5
     1  C    0.000000
     2  C    1.818053   0.000000
     3  C    2.396773   1.414048   0.000000
     4  O    2.027781   2.419709   1.931584   0.000000
     5  O    2.603517   2.628716   2.613364   1.425315   0.000000
     6  O    3.470898   2.541740   1.170172   2.525978   3.278564
     7  H    3.427921   3.550237   3.296346   1.874008   0.970457
     8  H    1.132765   2.934666   3.316433   2.548657   3.285495
     9  H    1.091230   2.200884   3.197243   2.804870   2.879988
    10  H    1.176770   1.945389   2.259208   2.585632   3.483977
    11  H    2.528563   1.086811   2.378995   3.457973   3.411880
    12  H    2.971956   1.232442   1.853843   3.055693   2.844375
                    6          7          8          9         10
     6  O    0.000000
     7  H    3.712477   0.000000
     8  H    4.261658   3.937336   0.000000
     9  H    4.340004   3.740977   1.624693   0.000000
    10  H    3.202340   4.283154   1.633806   2.030845   0.000000
    11  H    3.393514   4.358094   3.602136   2.503669   2.610916
    12  H    2.640656   3.674287   4.102185   3.175257   3.162514
                   11         12
    11  H    0.000000
    12  H    1.291937   0.000000
 Stoichiometry    C3H6O3
 Framework group  C1[X(C3H6O3)]
 Deg. of freedom    30
 Full point group                 C1      NOp   1
 Largest Abelian subgroup         C1      NOp   1
 Largest concise Abelian subgroup C1      NOp   1
                         Standard orientation:                         
 ---------------------------------------------------------------------
 Center     Atomic      Atomic             Coordinates (Angstroms)
 Number     Number       Type             X           Y           Z
 ---------------------------------------------------------------------
      1          6           0        1.127746    1.126572   -0.505518
      2          6           0       -0.206379    1.082445    0.728775
      3          6           0       -1.035982    0.216725   -0.020772
      4          8           0        0.493259   -0.795539   -0.627202
      5          8           0        1.050806   -1.223243    0.612851
      6          8           0       -1.982937   -0.401991   -0.320385
      7          1           0        1.192956   -2.167613    0.440385
      8          1           0        1.788153    1.252588   -1.417187
      9          1           0        1.885175    1.499926    0.185635
     10          1           0        0.279792    1.749118   -1.032964
     11          1           0       -0.201946    1.814216    1.532298
     12          1           0       -0.745469    0.663491    1.754822
 ---------------------------------------------------------------------
 Rotational constants (GHZ):           4.4499526           3.2792329           2.4818384
 Standard basis: 6-31+G(d) (6D, 7F)
 There are   126 symmetry adapted cartesian basis functions of A   symmetry.
 There are   126 symmetry adapted basis functions of A   symmetry.
   126 basis functions,   216 primitive gaussians,   126 cartesian basis functions
    24 alpha electrons       24 beta electrons
       nuclear repulsion energy       244.3356796511 Hartrees.
 NAtoms=   12 NActive=   12 NUniq=   12 SFac= 1.00D+00 NAtFMM=   60 NAOKFM=F Big=F
 Integral buffers will be    131072 words long.
 Raffenetti 2 integral format.
 Two-electron integral symmetry is turned on.
 One-electron integrals computed using PRISM.
 NBasis=   126 RedAO= T EigKep=  7.81D-05  NBF=   126
 NBsUse=   126 1.00D-06 EigRej= -1.00D+00 NBFU=   126
 Initial guess from the checkpoint file:  "/scratch/bell/zhao922/YARP/paper-example/KHP-network/pp_0/TS-folder/Gau-18005.chk"
 B after Tr=    -0.000000    0.000000    0.000000
         Rot=    0.999897    0.005725    0.013150    0.000019 Ang=   1.64 deg.
 ExpMin= 4.38D-02 ExpMax= 5.48D+03 ExpMxC= 8.25D+02 IAcc=3 IRadAn=         5 AccDes= 0.00D+00
 Harris functional with IExCor=  402 and IRadAn=       5 diagonalized for initial guess.
 HarFok:  IExCor=  402 AccDes= 0.00D+00 IRadAn=         5 IDoV= 1 UseB2=F ITyADJ=14
 ICtDFT=  3500011 ScaDFX=  1.000000  1.000000  1.000000  1.000000
 FoFCou: FMM=F IPFlag=           0 FMFlag=      100000 FMFlg1=           0
         NFxFlg=           0 DoJE=T BraDBF=F KetDBF=T FulRan=T
         wScrn=  0.000000 ICntrl=       500 IOpCl=  0 I1Cent=   200000004 NGrid=           0
         NMat0=    1 NMatS0=      1 NMatT0=    0 NMatD0=    1 NMtDS0=    0 NMtDT0=    0
 Petite list used in FoFCou.
 Keep R1 ints in memory in canonical form, NReq=47237537.
 Requested convergence on RMS density matrix=1.00D-08 within 128 cycles.
 Requested convergence on MAX density matrix=1.00D-06.
 Requested convergence on             energy=1.00D-06.
 No special actions if energy rises.
 SCF Done:  E(RB3LYP) =  -343.174030713     A.U. after   14 cycles
            NFock= 14  Conv=0.20D-08     -V/T= 2.0090
 DoSCS=F DFT=T ScalE2(SS,OS)=  1.000000  1.000000
 Range of M.O.s used for correlation:     1   126
 NBasis=   126 NAE=    24 NBE=    24 NFC=     0 NFV=     0
 NROrb=    126 NOA=    24 NOB=    24 NVA=   102 NVB=   102

 **** Warning!!: The largest alpha MO coefficient is  0.38912754D+02

 Symmetrizing basis deriv contribution to polar:
 IMax=3 JMax=2 DiffMx= 0.00D+00
 G2DrvN: will do    13 centers at a time, making    1 passes.
 Calling FoFCou, ICntrl=  3107 FMM=F I1Cent=   0 AccDes= 0.00D+00.
 End of G2Drv F.D. properties file   721 does not exist.
 End of G2Drv F.D. properties file   722 does not exist.
 End of G2Drv F.D. properties file   788 does not exist.
          IDoAtm=111111111111
          Differentiating once with respect to electric field.
                with respect to dipole field.
          Differentiating once with respect to nuclear coordinates.
 Keep R1 ints in memory in canonical form, NReq=47193552.
          There are    39 degrees of freedom in the 1st order CPHF.  IDoFFX=6 NUNeed=     3.
     36 vectors produced by pass  0 Test12= 6.28D-15 2.56D-09 XBig12= 1.03D+02 5.74D+00.
 AX will form    36 AO Fock derivatives at one time.
     36 vectors produced by pass  1 Test12= 6.28D-15 2.56D-09 XBig12= 3.70D+01 1.30D+00.
     36 vectors produced by pass  2 Test12= 6.28D-15 2.56D-09 XBig12= 4.54D-01 1.04D-01.
     36 vectors produced by pass  3 Test12= 6.28D-15 2.56D-09 XBig12= 1.90D-03 6.42D-03.
     36 vectors produced by pass  4 Test12= 6.28D-15 2.56D-09 XBig12= 3.69D-06 2.81D-04.
     30 vectors produced by pass  5 Test12= 6.28D-15 2.56D-09 XBig12= 4.28D-09 7.72D-06.
      7 vectors produced by pass  6 Test12= 6.28D-15 2.56D-09 XBig12= 5.07D-12 2.60D-07.
      3 vectors produced by pass  7 Test12= 6.28D-15 2.56D-09 XBig12= 4.79D-15 9.23D-09.
 InvSVY:  IOpt=1 It=  1 EMax= 5.33D-15
 Solved reduced A of dimension   220 with    39 vectors.
 Isotropic polarizability for W=    0.000000       67.02 Bohr**3.
 End of Minotr F.D. properties file   721 does not exist.
 End of Minotr F.D. properties file   722 does not exist.
 End of Minotr F.D. properties file   788 does not exist.
 Calling FoFJK, ICntrl=    100127 FMM=F ISym2X=0 I1Cent= 0 IOpClX= 0 NMat=1 NMatS=1 NMatT=0.
 ***** Axes restored to original set *****
 -------------------------------------------------------------------
 Center     Atomic                   Forces (Hartrees/Bohr)
 Number     Number              X              Y              Z
 -------------------------------------------------------------------
      1        6           0.017577119   -0.062594745   -0.032079468
      2        6          -0.028390044    0.042712469    0.074178198
      3        6          -0.019721528    0.003965268   -0.002134930
      4        8           0.006497656   -0.019626817   -0.010780751
      5        8          -0.007874086    0.012516716   -0.000107755
      6        8          -0.000121692   -0.012070029    0.005198718
      7        1           0.003240645    0.001849576    0.000622973
      8        1           0.022922058    0.051180021    0.022037927
      9        1          -0.013478838   -0.018523339    0.002890521
     10        1          -0.027776358    0.012817916   -0.030793072
     11        1           0.023009747   -0.049355729   -0.024942049
     12        1           0.024115321    0.037128692   -0.004090311
 -------------------------------------------------------------------
 Cartesian Forces:  Max     0.074178198 RMS     0.027059365
 FormGI is forming the generalized inverse of G from B-inverse, IUseBI=4.

 GradGradGradGradGradGradGradGradGradGradGradGradGradGradGradGradGradGrad
 Berny optimization.
 Internal  Forces:  Max     0.033952284 RMS     0.016705562
 Search for a saddle point.
 Step number   4 out of a maximum of  100
 All quantities printed in internal units (Hartrees-Bohrs-Radians)
 Swapping is turned off.
 Second derivative matrix not updated -- analytic derivatives used.
 ITU=  0  0  0  0
     Eigenvalues ---   -0.64117  -0.04976  -0.02516  -0.01264   0.00271
     Eigenvalues ---    0.00414   0.00756   0.01965   0.03686   0.04333
     Eigenvalues ---    0.05810   0.08795   0.10239   0.12058   0.13726
     Eigenvalues ---    0.14435   0.16461   0.17208   0.17618   0.19089
     Eigenvalues ---    0.20768   0.25267   0.26079   0.31307   0.33411
     Eigenvalues ---    0.34000   0.35461   0.37674   0.50602   1.01405
 Eigenvectors required to have negative eigenvalues:
                          A12       A7        R1        R5        A13
   1                   -0.38412  -0.37751   0.32604  -0.30269   0.29960
                          A17       R8        A9        D11       D7
   1                   -0.25651   0.22458   0.22310  -0.20817  -0.20071
 RFO step:  Lambda0=2.645101546D-05 Lambda=-8.01382154D-02.
 Linear search not attempted -- option 19 set.
 Maximum step size (   0.300) exceeded in Quadratic search.
    -- Step size scaled by   0.373
 Iteration  1 RMS(Cart)=  0.06572655 RMS(Int)=  0.02012663
 Iteration  2 RMS(Cart)=  0.02975605 RMS(Int)=  0.00533124
 Iteration  3 RMS(Cart)=  0.00295915 RMS(Int)=  0.00266272
 Iteration  4 RMS(Cart)=  0.00022149 RMS(Int)=  0.00265827
 Iteration  5 RMS(Cart)=  0.00000059 RMS(Int)=  0.00265827
 Variable       Old X    -DE/DX   Delta X   Delta X   Delta X     New X
                                 (Linear)    (Quad)   (Total)
    R1        3.43562   0.02744   0.00000   0.07832   0.07832   3.51394
    R2        2.14062  -0.00249   0.00000  -0.00378  -0.00378   2.13683
    R3        2.06213   0.00566   0.00000   0.00892   0.00892   2.07105
    R4        2.22377  -0.03244   0.00000  -0.06892  -0.06892   2.15485
    R5        2.67216  -0.02008   0.00000  -0.01941  -0.01941   2.65276
    R6        2.05378   0.00367   0.00000   0.00645   0.00645   2.06023
    R7        2.32898  -0.00641   0.00000  -0.06350  -0.06350   2.26547
    R8        3.65016   0.00324   0.00000   0.02626   0.02626   3.67642
    R9        2.21130   0.00335   0.00000  -0.00093  -0.00093   2.21038
   R10        2.69345   0.01251   0.00000   0.01156   0.01156   2.70501
   R11        1.83390   0.00316   0.00000   0.00166   0.00166   1.83555
    A1        2.92632   0.02804   0.00000   0.16389   0.16644   3.09276
    A2        1.65856  -0.02020   0.00000  -0.10309  -0.09375   1.56481
    A3        1.35755   0.01562   0.00000   0.07082   0.07368   1.43123
    A4        1.63787   0.00085   0.00000  -0.04252  -0.03278   1.60509
    A5        1.57131   0.01311   0.00000   0.08714   0.09024   1.66156
    A6        2.21810  -0.02668   0.00000  -0.07003  -0.06769   2.15041
    A7        1.65641   0.01373   0.00000   0.00937   0.00763   1.66404
    A8        2.07443  -0.01390   0.00000   0.00981   0.00941   2.08383
    A9        2.50904  -0.00187   0.00000  -0.04563  -0.04744   2.46160
   A10        1.54735  -0.01669   0.00000  -0.00107   0.00251   1.54986
   A11        1.17575   0.03395   0.00000   0.06274   0.06927   1.24502
   A12        1.59358  -0.00480   0.00000  -0.01468  -0.01495   1.57863
   A13        2.77681  -0.00062   0.00000   0.01269   0.01253   2.78934
   A14        1.85793   0.00875   0.00000   0.01356   0.01328   1.87121
   A15        1.76584   0.01668   0.00000   0.01352   0.01352   1.77935
   A16        1.76674  -0.00376   0.00000  -0.00671  -0.00671   1.76003
   A17        3.20376  -0.00296   0.00000   0.00831   0.01014   3.21390
   A18        2.68141  -0.03387   0.00000  -0.09474  -0.09426   2.58715
    D1        1.08166  -0.01531   0.00000   0.06577   0.06509   1.14675
    D2       -1.82077  -0.01028   0.00000   0.14544   0.14650  -1.67427
    D3       -2.83071  -0.00843   0.00000  -0.11403  -0.11625  -2.94696
    D4        0.55004  -0.00340   0.00000  -0.03436  -0.03483   0.51521
    D5        1.23774   0.01559   0.00000  -0.05967  -0.05939   1.17835
    D6       -1.66469   0.02062   0.00000   0.02000   0.02202  -1.64267
    D7        0.66579  -0.02303   0.00000  -0.04306  -0.04421   0.62158
    D8       -3.02347  -0.00484   0.00000   0.00760   0.00652  -3.01695
    D9       -2.83437  -0.03267   0.00000  -0.14017  -0.13749  -2.97186
   D10       -0.24044  -0.01448   0.00000  -0.08950  -0.08676  -0.32720
   D11       -2.01562   0.01084   0.00000   0.05168   0.05005  -1.96557
   D12        0.57831   0.02903   0.00000   0.10234   0.10078   0.67909
   D13        1.02232   0.01272   0.00000   0.05099   0.05083   1.07315
   D14       -1.92436   0.00767   0.00000   0.02882   0.02897  -1.89539
   D15        2.30400   0.00065   0.00000   0.00091   0.00091   2.30491
         Item               Value     Threshold  Converged?
 Maximum Force            0.033952     0.000450     NO 
 RMS     Force            0.016706     0.000300     NO 
 Maximum Displacement     0.298953     0.001800     NO 
 RMS     Displacement     0.097831     0.001200     NO 
 Predicted change in Energy=-3.157659D-02
 GradGradGradGradGradGradGradGradGradGradGradGradGradGradGradGradGradGrad

                          Input orientation:                          
 ---------------------------------------------------------------------
 Center     Atomic      Atomic             Coordinates (Angstroms)
 Number     Number       Type             X           Y           Z
 ---------------------------------------------------------------------
      1          6           0        1.272577    0.589863   -2.644274
      2          6           0        0.087067    0.423312   -1.221404
      3          6           0        1.036873    0.703498   -0.226437
      4          8           0        1.913953    1.981556   -1.402102
      5          8           0        0.876185    2.942648   -1.621948
      6          8           0        1.508849    0.830273    0.836258
      7          1           0        1.356988    3.770967   -1.460068
      8          1           0        2.020338    0.646777   -3.490584
      9          1           0        0.427573    0.571136   -3.341934
     10          1           0        1.717243   -0.350222   -2.176519
     11          1           0       -0.855441   -0.104365   -1.369135
     12          1           0       -0.749958    0.932140   -0.530252
 ---------------------------------------------------------------------
                    Distance matrix (angstroms):
                    1          2          3          4          5
     1  C    0.000000
     2  C    1.859498   0.000000
     3  C    2.431955   1.403779   0.000000
     4  O    1.972603   2.407964   1.945480   0.000000
     5  O    2.595742   2.670243   2.643306   1.431431   0.000000
     6  O    3.496816   2.533980   1.169681   2.549474   3.302298
     7  H    3.395422   3.588377   3.321699   1.874983   0.971333
     8  H    1.130763   2.989423   3.409557   2.480868   3.173627
[...]
   A17        3.33835   0.00000   0.00000   0.00000   0.00000   3.33835
   A18        1.31826  -0.00000   0.00000   0.00000   0.00000   1.31827
    D1       -0.13673  -0.00000   0.00000  -0.00001  -0.00001  -0.13674
    D2       -2.09907  -0.00000   0.00000  -0.00001  -0.00001  -2.09908
    D3       -2.37915  -0.00000   0.00000  -0.00001  -0.00001  -2.37916
    D4        1.94169  -0.00000   0.00000  -0.00001  -0.00001   1.94168
    D5        1.84832  -0.00000   0.00000  -0.00001  -0.00001   1.84831
    D6       -0.11402   0.00000   0.00000  -0.00001  -0.00001  -0.11403
    D7        0.82848  -0.00000   0.00000  -0.00000  -0.00000   0.82848
    D8       -2.17634  -0.00000   0.00000   0.00000   0.00000  -2.17634
    D9        2.91691  -0.00000   0.00000  -0.00000  -0.00000   2.91691
   D10       -0.08791   0.00000   0.00000   0.00000   0.00000  -0.08791
   D11       -0.48979  -0.00000   0.00000  -0.00000  -0.00000  -0.48979
   D12        2.78858  -0.00000   0.00000  -0.00000  -0.00000   2.78857
   D13       -3.06040   0.00000   0.00000  -0.00000  -0.00000  -3.06040
   D14       -0.01573  -0.00000   0.00000  -0.00000  -0.00000  -0.01573
   D15        0.02821   0.00000   0.00000   0.00000   0.00000   0.02822
         Item               Value     Threshold  Converged?
 Maximum Force            0.000000     0.000450     YES
 RMS     Force            0.000000     0.000300     YES
 Maximum Displacement     0.000019     0.001800     YES
 RMS     Displacement     0.000005     0.001200     YES
 Predicted change in Energy=-9.136655D-13
 Optimization completed.
    -- Stationary point found.
                           ----------------------------
                           !   Optimized Parameters   !
                           ! (Angstroms and Degrees)  !
 --------------------------                            --------------------------
 ! Name  Definition              Value          Derivative Info.                !
 --------------------------------------------------------------------------------
 ! R1    R(1,2)                  2.5979         -DE/DX =    0.0                 !
 ! R2    R(1,8)                  1.0847         -DE/DX =    0.0                 !
 ! R3    R(1,9)                  1.0826         -DE/DX =    0.0                 !
 ! R4    R(1,10)                 1.0808         -DE/DX =    0.0                 !
 ! R5    R(2,3)                  1.3798         -DE/DX =    0.0                 !
 ! R6    R(2,11)                 1.0837         -DE/DX =    0.0                 !
 ! R7    R(2,12)                 1.0823         -DE/DX =    0.0                 !
 ! R8    R(3,4)                  1.5641         -DE/DX =    0.0                 !
 ! R9    R(3,6)                  1.2171         -DE/DX =    0.0                 !
 ! R10   R(4,5)                  1.4252         -DE/DX =    0.0                 !
 ! R11   R(5,7)                  0.9968         -DE/DX =    0.0                 !
 ! A1    A(2,1,8)              134.4417         -DE/DX =    0.0                 !
 ! A2    A(2,1,9)               89.2639         -DE/DX =    0.0                 !
 ! A3    A(2,1,10)              75.8142         -DE/DX =    0.0                 !
 ! A4    A(8,1,9)              116.9512         -DE/DX =    0.0                 !
 ! A5    A(8,1,10)             116.7568         -DE/DX =    0.0                 !
 ! A6    A(9,1,10)             116.6623         -DE/DX =    0.0                 !
 ! A7    A(1,2,3)               71.1292         -DE/DX =    0.0                 !
 ! A8    A(1,2,11)             124.4762         -DE/DX =    0.0                 !
 ! A9    A(3,2,11)             118.7353         -DE/DX =    0.0                 !
 ! A10   A(3,2,12)             120.1443         -DE/DX =    0.0                 !
 ! A11   A(11,2,12)            119.3634         -DE/DX =    0.0                 !
 ! A12   A(2,3,4)              106.2761         -DE/DX =    0.0                 !
 ! A13   A(2,3,6)              139.5181         -DE/DX =    0.0                 !
 ! A14   A(4,3,6)              113.8407         -DE/DX =    0.0                 !
 ! A15   A(3,4,5)              109.9199         -DE/DX =    0.0                 !
 ! A16   A(4,5,7)              100.0934         -DE/DX =    0.0                 !
 ! A17   L(1,2,12,3,-1)        191.2735         -DE/DX =    0.0                 !
 ! A18   L(1,2,12,3,-2)         75.5309         -DE/DX =    0.0                 !
 ! D1    D(8,1,2,3)             -7.834          -DE/DX =    0.0                 !
 ! D2    D(8,1,2,11)          -120.2678         -DE/DX =    0.0                 !
 ! D3    D(9,1,2,3)           -136.3155         -DE/DX =    0.0                 !
 ! D4    D(9,1,2,11)           111.2508         -DE/DX =    0.0                 !
 ! D5    D(10,1,2,3)           105.901          -DE/DX =    0.0                 !
 ! D6    D(10,1,2,11)           -6.5327         -DE/DX =    0.0                 !
 ! D7    D(1,2,3,4)             47.4681         -DE/DX =    0.0                 !
 ! D8    D(1,2,3,6)           -124.6954         -DE/DX =    0.0                 !
 ! D9    D(11,2,3,4)           167.1265         -DE/DX =    0.0                 !
 ! D10   D(11,2,3,6)            -5.037          -DE/DX =    0.0                 !
 ! D11   D(12,2,3,4)           -28.0628         -DE/DX =    0.0                 !
 ! D12   D(12,2,3,6)           159.7737         -DE/DX =    0.0                 !
 ! D13   D(2,3,4,5)           -175.3478         -DE/DX =    0.0                 !
 ! D14   D(6,3,4,5)             -0.9013         -DE/DX =    0.0                 !
 ! D15   D(3,4,5,7)              1.6165         -DE/DX =    0.0                 !
 --------------------------------------------------------------------------------
 GradGradGradGradGradGradGradGradGradGradGradGradGradGradGradGradGradGrad


 ----------------------------------------------------------------------

 Electric dipole moment (input orientation):
 (Debye = 10**-18 statcoulomb cm , SI units = C m)
                  (au)            (Debye)         (10**-30 SI)
   Tot        0.147385D+01      0.374615D+01      0.124958D+02
   x          0.728033D-01      0.185048D+00      0.617252D+00
   y         -0.931965D+00     -0.236882D+01     -0.790153D+01
   z         -0.113946D+01     -0.289622D+01     -0.966074D+01

 Dipole polarizability, Alpha (input orientation).
 (esu units = cm**3 , SI units = C**2 m**2 J**-1)
 Alpha(0;0):
               (au)            (10**-24 esu)      (10**-40 SI)
   iso        0.669640D+02      0.992304D+01      0.110409D+02
   aniso      0.374791D+02      0.555383D+01      0.617947D+01
   xx         0.565506D+02      0.837993D+01      0.932393D+01
   yx         0.151514D+02      0.224520D+01      0.249813D+01
   yy         0.655885D+02      0.971922D+01      0.108141D+02
   zx        -0.106774D+02     -0.158223D+01     -0.176047D+01
   zy         0.289645D-01      0.429210D-02      0.477560D-02
   zz         0.787529D+02      0.116700D+02      0.129846D+02

 ----------------------------------------------------------------------

 Dipole orientation:
     6          2.22524001         -4.36254175          3.61783686
     6         -0.42194791         -1.20723568          0.94630584
     6          1.30754108         -2.38548604         -0.60925840
     8          1.12460432         -5.27463786         -0.01287996
     8          3.00151452         -6.61860446         -1.40018404
     8          2.99272067         -1.84430022         -2.07804533
     1          3.85536895         -5.18521684         -2.27446211
     1          3.61546547         -5.80268979          3.17665984
     1          0.50703740         -4.98350988          4.53866434
     1          2.94159109         -2.52720366          4.15595488
     1         -0.34206169          0.82967853          1.14266102
     1         -2.09050235         -2.21046938          1.57271959

 Electric dipole moment (dipole orientation):
 (Debye = 10**-18 statcoulomb cm , SI units = C m)
                  (au)            (Debye)         (10**-30 SI)
   Tot        0.147385D+01      0.374615D+01      0.124958D+02
   x          0.000000D+00      0.000000D+00      0.000000D+00
   y          0.000000D+00      0.000000D+00      0.000000D+00
   z          0.147385D+01      0.374615D+01      0.124958D+02

 Dipole polarizability, Alpha (dipole orientation).
 (esu units = cm**3 , SI units = C**2 m**2 J**-1)
 Alpha(0;0):
               (au)            (10**-24 esu)      (10**-40 SI)
   iso        0.669640D+02      0.992304D+01      0.110409D+02
   aniso      0.374791D+02      0.555383D+01      0.617947D+01
   xx         0.560873D+02      0.831128D+01      0.924754D+01
   yx        -0.178870D+02     -0.265057D+01     -0.294916D+01
   yy         0.714724D+02      0.105911D+02      0.117842D+02
   zx        -0.228674D+01     -0.338860D+00     -0.377032D+00
   zy        -0.731187D+01     -0.108351D+01     -0.120556D+01
   zz         0.733324D+02      0.108667D+02      0.120909D+02

 ----------------------------------------------------------------------
 1\1\GINC-BELL-A064\Freq\RB3LYP\6-31+G(d)\C3H6O3\ZHAO922\23-Dec-2020\0\
 \#N Geom=AllCheck Guess=TCheck SCRF=Check GenChk RB3LYP/6-31+G(d) Freq
 \\pp_10_0 TS\\0,1\C,1.3111624369,0.5981194099,-2.8817323878\C,-0.18698
 79984,0.1741959663,-0.8021410175\C,0.6972804635,1.1937368597,-0.514788
 095\O,0.6431295112,2.176577602,-1.730318307\O,1.6112456344,3.209107994
 4,-1.5634014085\O,1.5443734193,1.4791251238,0.3112574317\H,2.026248790
 1,2.9221492771,-0.7037639524\H,2.0477185279,1.3489420398,-3.1467977251
 \H,0.433038767,0.528478338,-3.5111582249\H,1.6866746433,-0.3274705216,
 -2.4690246939\H,-0.1586276595,-0.7255823479,-0.1987985305\H,-1.0430075
 358,0.3602032585,-1.4377320892\\Version=ES64L-G16RevB.01\State=1-A\HF=
 -343.3730276\RMSD=4.355e-09\RMSF=2.682e-07\ZeroPoint=0.0873498\Thermal
 =0.0945935\Dipole=0.0728033,-0.9319651,-1.1394591\DipoleDeriv=0.276423
 8,-0.0474934,-0.3016636,0.3914974,0.709165,-0.5601331,-0.2671606,0.127
 5237,0.5182666,-0.3186045,-0.1532969,-0.0730084,-0.1146791,-0.4119123,
 -0.5538832,0.2045108,-0.0667406,-0.6102251,0.4970487,0.2877021,1.34314
 25,0.165558,0.6137815,0.7235705,0.6449243,0.098969,1.1623113,0.0358479
 ,0.5098014,-0.1323383,-0.3084628,-0.4360007,0.5927692,-0.1387805,0.084
 3674,-0.1497773,-0.3314008,-0.3199417,0.0335265,-0.0400076,-0.576151,0
 .0389112,-0.0653719,-0.1658012,-0.1507759,-0.6366988,-0.2609255,-0.975
 4452,-0.1181466,-0.4871035,-0.3048609,-0.3928993,-0.168361,-1.0424596,
 0.2925095,0.0329642,0.0139212,-0.0044433,0.3172745,0.0667006,-0.001700
 7,0.0007529,0.2199793,0.0578591,0.0321949,0.0023329,-0.0696742,0.01269
 33,0.0508757,-0.0581082,-0.1131141,0.1424046,0.0270942,0.0137896,0.056
 6867,0.0210416,0.0602429,-0.086613,0.0152069,-0.035933,-0.0476606,-0.0
 06713,-0.010956,0.1074463,0.0782037,0.0694543,-0.0932652,0.1603419,0.0
 57552,-0.2289797,0.0560574,-0.0603005,0.0197429,0.0009397,0.0653984,0.
 0195645,-0.0068434,0.1242411,0.0087559,0.0505765,-0.0235383,-0.0943434
 ,-0.0018269,0.0631579,0.1063638,-0.0941192,0.0565439,0.1781607\Polar=5
 6.5505653,15.1513855,65.5885355,-10.6774404,0.0289645,78.7529424\Quadr
 upole=0.6066972,-0.376304,-0.2303932,0.6206841,-0.6456854,2.9913459\PG
 =C01 [X(C3H6O3)]\NImag=1\\0.56349737,0.07514669,0.48717342,0.17159530,
 -0.16108496,0.30237110,-0.00328137,-0.00199773,-0.00035659,0.49142031,
 0.00780748,-0.03214749,-0.00558810,0.15044815,0.59038320,-0.00681966,-
 0.02335279,0.00544979,0.24912856,-0.17494708,0.34356215,-0.00209828,0.
 04598249,-0.00640963,-0.19671955,-0.12914516,-0.04535410,0.63530223,0.
 00836834,0.08054411,-0.00269222,-0.14645435,-0.21717041,-0.00317594,0.
 27417503,0.36927297,0.00866843,-0.04394737,-0.02113196,-0.06564987,-0.
 04011919,-0.07590418,0.36070898,0.19168256,0.40813151,-0.02588589,-0.0
 3217570,0.00321227,0.00510305,-0.03530778,0.00998003,-0.03544855,0.001
 93192,-0.02623361,0.22095937,0.00093437,0.01319342,-0.00695394,-0.0076
 7495,-0.03041313,0.02988108,-0.03160706,-0.05683723,-0.00100341,0.1532
 8898,0.19373918,0.01615492,0.05605009,-0.00744169,0.00997233,0.0395504
 7,0.01245802,-0.05202004,-0.08546619,0.01261938,0.09247307,-0.00965713
 ,0.14881551,0.00248748,0.00738283,0.00343355,0.00225372,0.00244045,0.0
 0699842,-0.01890225,-0.02233227,0.00271076,-0.11720204,-0.12170643,-0.
 01904163,0.19789710,-0.00522735,-0.00122030,0.00390398,0.00357956,-0.0
 0708449,0.00724228,-0.01631163,-0.04283595,0.00826181,-0.07642388,-0.1
 1302715,0.02087485,0.08224347,0.23863542,-0.00651200,0.00975293,0.0028
 4520,0.00288976,0.00647748,0.00297541,0.00217500,-0.00094349,-0.005482
 10,-0.05816728,-0.03292452,-0.07697157,0.15618586,-0.13239064,0.368369
 25,-0.00347517,-0.01694930,0.00424170,-0.02507159,-0.02932572,-0.04196
 646,-0.36231775,-0.09985860,-0.28198528,-0.00817171,0.01686785,-0.0242
 8497,0.01016338,-0.00652115,0.01742552,0.38792550,-0.00347187,-0.01672
 183,0.00105183,-0.03462925,-0.00190592,-0.03517500,-0.10458217,-0.1086
 6747,-0.09670599,0.00112309,0.00960922,0.02890575,0.01242517,-0.002589
 89,0.02746527,0.12484807,0.11432256,-0.00643007,0.00345454,0.00308828,
 -0.02322318,-0.01730413,-0.01059554,-0.28640887,-0.09809129,-0.3329829
 8,-0.02385376,0.02679672,-0.06717467,-0.00662822,-0.00086776,-0.002819
 72,0.34522759,0.08521207,0.41644272,0.00077362,-0.00009988,-0.00032995
 ,-0.00008638,0.00077811,-0.00111848,-0.00205268,-0.00670851,-0.0018215
 7,-0.03220208,-0.00767030,-0.03190169,-0.07985286,0.01999043,-0.115161
 49,-0.00360824,0.00442184,0.00032673,0.11656263,-0.00150463,0.00675832
 ,0.00054512,0.00292534,0.00350834,0.00560946,-0.02412796,-0.01327564,-
 0.01433786,-0.02066372,-0.00731925,-0.03217595,0.03847125,-0.07506444,
 0.11979902,0.01519243,0.00876217,0.00149714,-0.01084205,0.07614682,-0.
 00141324,-0.00648150,-0.00117807,-0.00423511,-0.00110698,-0.00734569,0
 .01728343,0.01063939,0.02046097,-0.01055498,-0.00263084,-0.00715900,-0
 .13903783,0.09267652,-0.29074407,-0.01171872,-0.01183759,-0.00971052,0
 .14882973,-0.08035016,0.29698850,-0.18873768,-0.15039806,0.03745783,-0
 .00013696,-0.00228928,-0.00105669,0.00185969,0.00489509,-0.00211761,-0
 .00885504,0.00341121,0.01071616,0.00205897,0.00206597,0.00102097,-0.00
 102196,-0.00105071,-0.00028611,0.00015179,0.00045923,-0.00060938,0.191
 67597,-0.14822578,-0.19290100,0.06071815,-0.00099002,0.00353303,0.0049
 7398,-0.00318710,-0.00840205,0.00330145,0.01705457,-0.00664231,-0.0202
 8938,-0.00047537,0.00282440,0.00182184,0.00119980,0.00126431,0.0002057
 5,-0.00032982,-0.00004694,0.00003854,0.14994225,0.20750354,0.03666126,
 0.07616447,-0.05933302,0.00058471,0.00542979,0.00532979,-0.00583762,-0
 .01527737,0.00762233,0.02222591,-0.01036990,-0.02445386,-0.00396438,0.
 00139383,-0.00038774,0.00200875,0.00302086,-0.00039643,0.00040574,-0.0
 0155411,0.00033766,-0.04765429,-0.05621259,0.05557318,-0.25536832,-0.0
 1886550,-0.15544044,0.00004832,0.00008999,0.00349860,-0.00118316,-0.00
 140572,-0.00093885,0.00197980,0.00237081,0.00257942,0.00017273,-0.0001
 7705,0.00027088,0.00191231,0.00068583,0.00166690,-0.00022207,0.0001240
 7,0.00053100,-0.00849165,0.00183414,-0.01210437,0.26456556,-0.02049348
 ,-0.05316999,-0.00431521,-0.00065513,-0.00078883,-0.00282401,0.0017605
 8,0.00201049,-0.00004138,-0.00340131,-0.00224447,-0.00119591,0.0005116
 2,-0.00109012,-0.00088905,-0.00160059,-0.00065350,-0.00108965,0.000189
 03,-0.00003918,-0.00020123,-0.01544024,0.00289973,-0.01218665,0.019635
 25,0.04517586,-0.15707711,-0.00446780,-0.14455163,-0.00064133,0.000921
 99,-0.00324331,-0.00006403,0.00043111,0.00013453,-0.00327770,-0.001780
 28,-0.00321641,-0.00007650,-0.00079367,-0.00052370,-0.00097184,-0.0005
 5515,-0.00129024,0.00044321,-0.00018649,-0.00053729,0.00608196,0.00160
 572,0.01053433,0.16231214,0.00596395,0.14430964,-0.08698221,0.09218157
 ,-0.05483182,-0.00135873,0.00282797,0.00425759,-0.00502799,-0.00472693
 ,0.00374121,0.00161862,-0.00255748,-0.00415343,0.00016608,-0.00008120,
 -0.00079368,0.00162364,0.00143629,-0.00016072,0.00013908,-0.00051648,0
 .00053771,0.01145759,-0.01738535,0.00718266,-0.00348148,0.01972596,-0.
 00762557,0.08231290,0.08670285,-0.29131378,0.11351136,-0.00141966,-0.0
 0011593,-0.00171712,0.00463658,0.00534605,-0.00204488,-0.00167166,0.00
 201557,0.00393743,0.00025481,-0.00002844,0.00043011,-0.00225115,-0.001
 42596,-0.00048405,0.00014164,0.00032399,-0.00033902,0.00841679,-0.0097
 3837,0.00984898,-0.00402369,0.00737033,-0.00102126,-0.09120861,0.28783
 762,-0.05553843,0.09266854,-0.08047215,0.00353691,-0.01117861,-0.01264
 837,0.02001647,0.01520739,-0.00817044,-0.00513204,0.00626522,0.0125142
 7,0.00023118,-0.00037514,0.00201880,-0.00769981,-0.00312310,-0.0000710
 4,0.00018303,0.00125788,-0.00120908,-0.00381826,0.00451982,0.00542044,
 -0.00364020,0.01634547,-0.00097563,0.05132164,-0.12186258,0.08375494,0
 .00246283,0.00066942,-0.00227808,-0.04006645,0.00051992,-0.01888483,-0
 .00172865,-0.01771223,0.01173226,-0.00241024,-0.00326118,-0.00172298,0
 .00010507,-0.00487288,-0.00097684,0.00123864,0.00303953,0.00159924,0.0
 0017148,-0.00024863,0.00123658,-0.00000613,0.00003557,-0.00024179,-0.0
 0043373,0.00040491,0.00065883,-0.00033318,0.00050832,0.00072239,0.0375
 6505,-0.00211929,-0.00248178,0.00068235,-0.00189844,-0.25269507,0.1441
 9495,0.00532236,-0.01210700,0.01228943,-0.00388877,-0.00175483,0.00088
 472,0.00006615,0.00223921,0.00220852,0.00045209,0.00084126,-0.00105065
 ,0.00026797,0.00010380,0.00002075,-0.00014091,0.00014529,0.00056873,0.
 00036689,-0.00023696,-0.00051472,0.00025996,-0.00046908,-0.00036193,0.
 00197348,0.26587225,-0.00360725,-0.00244939,0.00133070,-0.02073377,0.1
 5302762,-0.13102908,0.00430897,-0.00418698,0.00310916,-0.00143700,-0.0
 0079612,0.00351105,-0.00061454,0.00346226,0.00266285,-0.00046533,-0.00
 113889,-0.00124968,0.00024735,0.00037244,-0.00067211,-0.00000791,0.000
 13054,0.00082311,0.00068613,-0.00044609,-0.00064973,0.00073122,-0.0005
 9267,-0.00102476,0.01881667,-0.15897952,0.12908925,-0.00339238,-0.0008
 7684,-0.00029412,-0.23210437,0.03115587,-0.15866298,-0.01168307,0.0098
 2824,-0.00881484,0.00051470,-0.00239582,0.00122882,0.00065264,0.001735
 73,0.00164330,0.00080294,-0.00424583,-0.00182952,0.00022573,0.00073115
 ,-0.00084920,0.00004541,0.00052711,0.00073343,0.00050169,-0.00063660,0
 .00023793,-0.00013434,-0.00008622,-0.00018288,0.00343531,-0.00066150,0
 .00207547,0.24113574,0.00208266,0.00228690,0.00022163,0.03876648,-0.05
 510332,0.04929020,-0.02291596,0.00212213,-0.01733516,0.00013426,-0.000
 31901,-0.00141875,0.00071833,-0.00075825,-0.00080747,-0.00205374,-0.00
 283494,0.00172131,-0.00013847,0.00014201,-0.00042789,0.00012866,-0.000
 43963,-0.00082602,-0.00063502,0.00076665,0.00039661,0.00004431,0.00019
 802,0.00063703,0.01894377,0.00054290,0.01159682,-0.03507528,0.05339655
 ,0.00431784,0.00369324,-0.00097655,-0.15127242,0.04483675,-0.12900900,
 -0.00839855,-0.00812696,-0.00840622,0.00076509,0.00317313,-0.00350103,
 -0.00019665,-0.00338833,-0.00194260,0.00018885,0.00287995,0.00675982,-
 0.00010260,-0.00047649,0.00076869,0.00027334,-0.00081383,-0.00106980,0
 .00057879,0.00087977,0.00000944,-0.00020680,0.00033371,0.00086301,-0.0
 1066146,0.00005736,-0.00590076,0.16471458,-0.04304830,0.14240500\\0.00
 000031,-0.00000016,0.00000024,-0.00000038,0.00000009,-0.00000027,-0.00
 000030,0.00000008,-0.00000006,0.00000012,0.00000010,-0.00000016,0.0000
 0028,-0.00000007,0.00000012,-0.00000044,0.00000001,0.00000018,-0.00000
 006,-0.00000014,0.00000027,0.00000056,-0.00000027,0.00000028,0.0000004
 8,0.00000004,-0.00000006,0.00000012,-0.00000009,0.00000027,-0.00000060
 ,0.00000019,-0.00000027,-0.00000010,0.00000022,-0.00000054\\\@


 There are more things in heaven and earth, Horatio,
 than are dreamt of in your philosophy.
                   -- Hamlet, Act I, Scene 5
 Job cpu time:       0 days  0 hours  4 minutes  8.0 seconds.
 Elapsed time:       0 days  0 hours  0 minutes 15.7 seconds.
 File lengths (MBytes):  RWF=     29 Int=      0 D2E=      0 Chk=      3 Scr=      1
 Normal termination of Gaussian 16 at Wed Dec 23 22:12:18 2020.
