 Entering Gaussian System, Link 0=g16
 Initial command:
 /apps/cent7/gaussian/g16-B.01/g16-haswell/g16/l1.exe "/scratch/bell/zhao922/YARP/paper-example/KHP-network/pp_0/TS-folder/Gau-18953.inp" -scrdir="/scratch/bell/zhao922/YARP/paper-example/KHP-network/pp_0/TS-folder/"
 Entering Link 1 = /apps/cent7/gaussian/g16-B.01/g16-haswell/g16/l1.exe PID=     18956.
  
 Copyright (c) 1988-2017, Gaussian, Inc.  All Rights Reserved.
  
 This is part of the Gaussian(R) 16 program.  It is based on
 the Gaussian(R) 09 system (copyright 2009, Gaussian, Inc.),
 the Gaussian(R) 03 system (copyright 2003, Gaussian, Inc.),
 the Gaussian(R) 98 system (copyright 1998, Gaussian, Inc.),
 the Gaussian(R) 94 system (copyright 1995, Gaussian, Inc.),
 the Gaussian 92(TM) system (copyright 1992, Gaussian, Inc.),
 the Gaussian 90(TM) system (copyright 1990, Gaussian, Inc.),
 the Gaussian 88(TM) system (copyright 1988, Gaussian, Inc.),
 the Gaussian 86(TM) system (copyright 1986, Carnegie Mellon
 University), and the Gaussian 82(TM) system (copyright 1983,
 Carnegie Mellon University). Gaussian is a federally registered
 trademark of Gaussian, Inc.
  
 This software contains proprietary and confidential information,
 including trade secrets, belonging to Gaussian, Inc.
  
 This software is provided under written license and may be
 used, copied, transmitted, or stored only in accord with that
 written license.
  
 The following legend is applicable only to US Government
 contracts under FAR:
  
                    RESTRICTED RIGHTS LEGEND
  
 Use, reproduction and disclosure by the US Government is
 subject to restrictions as set forth in subparagraphs (a)
 and (c) of the Commercial Computer Software - Restricted
 Rights clause in FAR 52.227-19.
  
 Gaussian, Inc.
 340 Quinnipiac St., Bldg. 40, Wallingford CT 06492
  
  
 ---------------------------------------------------------------
 Warning -- This program may not be used in any manner that
 competes with the business of Gaussian, Inc. or will provide
 assistance to any competitor of Gaussian, Inc.  The licensee
 of this program is prohibited from giving any competitor of
 Gaussian, Inc. access to this program.  By using this program,
 the user acknowledges that Gaussian, Inc. is engaged in the
 business of creating and licensing software in the field of
 computational chemistry and represents and warrants to the
 licensee that it is not a competitor of Gaussian, Inc. and that
 it will not use this program in any manner prohibited above.
 ---------------------------------------------------------------
  

 Cite this work as:
 Gaussian 16, Revision B.01,
 M. J. Frisch, G. W. Trucks, H. B. Schlegel, G. E. Scuseria, 
 M. A. Robb, J. R. Cheeseman, G. Scalmani, V. Barone, 
 G. A. Petersson, H. Nakatsuji, X. Li, M. Caricato, A. V. Marenich, 
 J. Bloino, B. G. Janesko, R. Gomperts, B. Mennucci, H. P. Hratchian, 
 J. V. Ortiz, A. F. Izmaylov, J. L. Sonnenberg, D. Williams-Young, 
 F. Ding, F. Lipparini, F. Egidi, J. Goings, B. Peng, A. Petrone, 
 T. Henderson, D. Ranasinghe, V. G. Zakrzewski, J. Gao, N. Rega, 
 G. Zheng, W. Liang, M. Hada, M. Ehara, K. Toyota, R. Fukuda, 
 J. Hasegawa, M. Ishida, T. Nakajima, Y. Honda, O. Kitao, H. Nakai, 
 T. Vreven, K. Throssell, J. A. Montgomery, Jr., J. E. Peralta, 
 F. Ogliaro, M. J. Bearpark, J. J. Heyd, E. N. Brothers, K. N. Kudin, 
 V. N. Staroverov, T. A. Keith, R. Kobayashi, J. Normand, 
 K. Raghavachari, A. P. Rendell, J. C. Burant, S. S. Iyengar, 
 J. Tomasi, M. Cossi, J. M. Millam, M. Klene, C. Adamo, R. Cammi, 
 J. W. Ochterski, R. L. Martin, K. Morokuma, O. Farkas, 
 J. B. Foresman, and D. J. Fox, Gaussian, Inc., Wallingford CT, 2016.
 
 ******************************************
 Gaussian 16:  ES64L-G16RevB.01 20-Dec-2017
                23-Dec-2020 
 ******************************************
 %NProcShared=16
 Will use up to   16 processors via shared memory.
 %Mem=6GB
 --------------------------------------------------------------
 # B3LYP/6-31+G* OPT=(TS, CALCALL, NOEIGEN, maxcycles=100) Freq
 --------------------------------------------------------------
 1/5=1,6=100,10=4,11=1,18=20,26=3,38=1/1,3;
 2/9=110,12=2,17=6,18=5,40=1/2;
 3/5=1,6=6,7=11,11=2,25=1,30=1,71=2,74=-5,140=1/1,2,3;
 4//1;
 5/5=2,38=5/2;
 8/6=4,10=90,11=11/1;
 11/6=1,8=1,9=11,15=111,16=1/1,2,10;
 10/6=1/2;
 6/7=2,8=2,9=2,10=2,18=1,28=1/1;
 7/10=1,25=1/1,2,3,16;
 1/5=1,6=100,10=4,11=1,18=20,26=3/3(3);
 2/9=110/2;
 7/8=1,9=1,25=1,44=-1/16;
 99//99;
 2/9=110/2;
 3/5=1,6=6,7=11,11=2,25=1,30=1,71=2,74=-5,140=1/1,2,3;
 4/5=5,16=3,69=1/1;
 5/5=2,38=5/2;
 8/6=4,10=90,11=11/1;
 11/6=1,8=1,9=11,15=111,16=1/1,2,10;
 10/6=1/2;
 7/10=1,25=1/1,2,3,16;
 1/5=1,6=100,10=4,11=1,18=20,26=3/3(-8);
 2/9=110/2;
 6/7=2,8=2,9=2,10=2,18=1,19=2,28=1/1;
 7/8=1,9=1,25=1,44=-1/16;
 99//99;
 ----------
 pp_17_0 TS
 ----------
 Symbolic Z-matrix:
 Charge =  0 Multiplicity = 1
 C                     1.67268   1.2814   -2.44817 
 C                     0.65289   1.0147   -0.97502 
 C                     1.20488  -0.50769  -0.81334 
 O                     0.45902   1.75629  -2.60206 
 O                     0.62162   3.2252   -1.38052 
 O                     1.85538  -0.75742   0.17316 
 H                     0.76868   3.81689  -2.11707 
 H                     2.40187   1.63594  -1.73553 
 H                     1.73781   1.01601  -3.50074 
 H                     0.83774  -1.30198  -1.48357 
 H                    -0.43738   0.94842  -1.04053 
 H                     0.90202   1.45033  -0.01863 
 
 Add virtual bond connecting atoms O5         and O4         Dist= 3.62D+00.

 GradGradGradGradGradGradGradGradGradGradGradGradGradGradGradGradGradGrad
 Berny optimization.
 Initialization pass.
                           ----------------------------
                           !    Initial Parameters    !
                           ! (Angstroms and Degrees)  !
 --------------------------                            --------------------------
 ! Name  Definition              Value          Derivative Info.                !
 --------------------------------------------------------------------------------
 ! R1    R(1,2)                  1.8114         calculate D2E/DX2 analytically  !
 ! R2    R(1,4)                  1.3123         calculate D2E/DX2 analytically  !
 ! R3    R(1,8)                  1.0795         calculate D2E/DX2 analytically  !
 ! R4    R(1,9)                  1.0875         calculate D2E/DX2 analytically  !
 ! R5    R(2,3)                  1.6274         calculate D2E/DX2 analytically  !
 ! R6    R(2,11)                 1.0942         calculate D2E/DX2 analytically  !
 ! R7    R(2,12)                 1.0801         calculate D2E/DX2 analytically  !
 ! R8    R(3,6)                  1.2078         calculate D2E/DX2 analytically  !
 ! R9    R(3,10)                 1.1022         calculate D2E/DX2 analytically  !
 ! R10   R(4,5)                  1.9174         calculate D2E/DX2 analytically  !
 ! R11   R(5,7)                  0.9562         calculate D2E/DX2 analytically  !
 ! A1    A(2,1,4)               68.1604         calculate D2E/DX2 analytically  !
 ! A2    A(2,1,8)               83.7861         calculate D2E/DX2 analytically  !
 ! A3    A(2,1,9)              141.7151         calculate D2E/DX2 analytically  !
 ! A4    A(4,1,8)              125.6816         calculate D2E/DX2 analytically  !
 ! A5    A(4,1,9)               91.7304         calculate D2E/DX2 analytically  !
 ! A6    A(8,1,9)              132.7415         calculate D2E/DX2 analytically  !
 ! A7    A(1,2,3)               91.58           calculate D2E/DX2 analytically  !
 ! A8    A(1,2,11)             121.4103         calculate D2E/DX2 analytically  !
 ! A9    A(1,2,12)             122.0661         calculate D2E/DX2 analytically  !
 ! A10   A(3,2,11)             106.6918         calculate D2E/DX2 analytically  !
 ! A11   A(3,2,12)             102.1868         calculate D2E/DX2 analytically  !
 ! A12   A(11,2,12)            107.8946         calculate D2E/DX2 analytically  !
 ! A13   A(2,3,6)              117.21           calculate D2E/DX2 analytically  !
 ! A14   A(2,3,10)             120.0483         calculate D2E/DX2 analytically  !
 ! A15   A(6,3,10)             121.8075         calculate D2E/DX2 analytically  !
 ! A16   A(1,4,5)               97.1289         calculate D2E/DX2 analytically  !
 ! A17   A(4,5,7)               89.7913         calculate D2E/DX2 analytically  !
 ! D1    D(4,1,2,3)            136.5941         calculate D2E/DX2 analytically  !
 ! D2    D(4,1,2,11)            25.8917         calculate D2E/DX2 analytically  !
 ! D3    D(4,1,2,12)          -117.951          calculate D2E/DX2 analytically  !
 ! D4    D(8,1,2,3)            -90.895          calculate D2E/DX2 analytically  !
 ! D5    D(8,1,2,11)           158.4026         calculate D2E/DX2 analytically  !
 ! D6    D(8,1,2,12)            14.5599         calculate D2E/DX2 analytically  !
 ! D7    D(9,1,2,3)             73.6742         calculate D2E/DX2 analytically  !
 ! D8    D(9,1,2,11)           -37.0282         calculate D2E/DX2 analytically  !
 ! D9    D(9,1,2,12)           179.129          calculate D2E/DX2 analytically  !
 ! D10   D(2,1,4,5)             70.2382         calculate D2E/DX2 analytically  !
 ! D11   D(8,1,4,5)              5.7915         calculate D2E/DX2 analytically  !
 ! D12   D(9,1,4,5)           -143.2594         calculate D2E/DX2 analytically  !
 ! D13   D(1,2,3,6)            115.2259         calculate D2E/DX2 analytically  !
 ! D14   D(1,2,3,10)           -75.633          calculate D2E/DX2 analytically  !
 ! D15   D(11,2,3,6)          -121.2307         calculate D2E/DX2 analytically  !
 ! D16   D(11,2,3,10)           47.9103         calculate D2E/DX2 analytically  !
 ! D17   D(12,2,3,6)            -8.0932         calculate D2E/DX2 analytically  !
 ! D18   D(12,2,3,10)          161.0479         calculate D2E/DX2 analytically  !
 ! D19   D(1,4,5,7)            100.0097         calculate D2E/DX2 analytically  !
 --------------------------------------------------------------------------------
 Trust Radius=3.00D-01 FncErr=1.00D-07 GrdErr=1.00D-06 EigMax=2.50D+02 EigMin=1.00D-04
 Number of steps in this run=    100 maximum allowed number of steps=    100.
 Search for a saddle point of order  1.
 GradGradGradGradGradGradGradGradGradGradGradGradGradGradGradGradGradGrad

                          Input orientation:                          
 ---------------------------------------------------------------------
 Center     Atomic      Atomic             Coordinates (Angstroms)
 Number     Number       Type             X           Y           Z
 ---------------------------------------------------------------------
      1          6           0        1.672684    1.281400   -2.448174
      2          6           0        0.652894    1.014704   -0.975023
      3          6           0        1.204880   -0.507691   -0.813343
      4          8           0        0.459023    1.756294   -2.602060
      5          8           0        0.621615    3.225195   -1.380522
      6          8           0        1.855381   -0.757423    0.173159
      7          1           0        0.768683    3.816886   -2.117074
      8          1           0        2.401874    1.635939   -1.735532
      9          1           0        1.737805    1.016006   -3.500736
     10          1           0        0.837740   -1.301977   -1.483568
     11          1           0       -0.437378    0.948416   -1.040530
     12          1           0        0.902023    1.450334   -0.018625
 ---------------------------------------------------------------------
                    Distance matrix (angstroms):
                    1          2          3          4          5
     1  C    0.000000
     2  C    1.811428   0.000000
     3  C    2.468271   1.627426   0.000000
     4  O    1.312318   1.798552   2.980174   0.000000
     5  O    2.454173   2.247594   3.820514   1.917358   0.000000
     6  O    3.325893   2.429965   1.207768   3.996302   4.449421
     7  H    2.712109   3.028186   4.537835   2.139425   0.956157
     8  H    1.079479   2.005801   2.622666   2.130734   2.412693
     9  H    1.087456   2.748865   3.134923   1.729430   3.259096
    10  H    2.881221   2.379033   1.102218   3.278334   4.533499
    11  H    2.558261   1.094248   2.206552   1.973468   2.533926
    12  H    2.554440   1.080063   2.134751   2.638939   2.254667
                    6          7          8          9         10
     6  O    0.000000
     7  H    5.229759   0.000000
     8  H    3.109652   2.751257   0.000000
     9  H    4.081223   3.270879   1.985258   0.000000
    10  H    2.019128   5.158377   3.337866   3.201895   0.000000
    11  H    3.104782   3.292666   3.002843   3.284601   2.624210
    12  H    2.412439   3.165728   2.287307   3.607252   3.118558
                   11         12
    11  H    0.000000
    12  H    1.757898   0.000000
 Stoichiometry    C3H6O3
 Framework group  C1[X(C3H6O3)]
 Deg. of freedom    30
 Full point group                 C1      NOp   1
 Largest Abelian subgroup         C1      NOp   1
 Largest concise Abelian subgroup C1      NOp   1
                         Standard orientation:                         
 ---------------------------------------------------------------------
 Center     Atomic      Atomic             Coordinates (Angstroms)
 Number     Number       Type             X           Y           Z
 ---------------------------------------------------------------------
      1          6           0        0.529727    0.972292   -0.590728
      2          6           0       -0.152651   -0.388200    0.391460
      3          6           0       -1.657403    0.219863    0.271056
      4          8           0        1.278319    0.699661    0.452086
      5          8           0        1.939869   -0.990736   -0.165304
      6          8           0       -2.471783   -0.436883   -0.332412
      7          1           0        2.755311   -0.569662   -0.433608
      8          1           0        0.343223    0.309855   -1.422394
      9          1           0        0.773166    2.030419   -0.530172
     10          1           0       -1.948598    1.095701    0.873549
     11          1           0        0.062951   -0.484262    1.459948
     12          1           0       -0.275339   -1.382124   -0.013012
 ---------------------------------------------------------------------
 Rotational constants (GHZ):           7.6586439           2.0158292           1.7968541
 Standard basis: 6-31+G(d) (6D, 7F)
 There are   126 symmetry adapted cartesian basis functions of A   symmetry.
 There are   126 symmetry adapted basis functions of A   symmetry.
   126 basis functions,   216 primitive gaussians,   126 cartesian basis functions
    24 alpha electrons       24 beta electrons
       nuclear repulsion energy       238.0260886213 Hartrees.
 NAtoms=   12 NActive=   12 NUniq=   12 SFac= 1.00D+00 NAtFMM=   60 NAOKFM=F Big=F
 Integral buffers will be    131072 words long.
 Raffenetti 2 integral format.
 Two-electron integral symmetry is turned on.
 One-electron integrals computed using PRISM.
 NBasis=   126 RedAO= T EigKep=  1.87D-04  NBF=   126
 NBsUse=   126 1.00D-06 EigRej= -1.00D+00 NBFU=   126
 ExpMin= 4.38D-02 ExpMax= 5.48D+03 ExpMxC= 8.25D+02 IAcc=3 IRadAn=         5 AccDes= 0.00D+00
 Harris functional with IExCor=  402 and IRadAn=       5 diagonalized for initial guess.
 HarFok:  IExCor=  402 AccDes= 0.00D+00 IRadAn=         5 IDoV= 1 UseB2=F ITyADJ=14
 ICtDFT=  3500011 ScaDFX=  1.000000  1.000000  1.000000  1.000000
 FoFCou: FMM=F IPFlag=           0 FMFlag=      100000 FMFlg1=           0
         NFxFlg=           0 DoJE=T BraDBF=F KetDBF=T FulRan=T
         wScrn=  0.000000 ICntrl=       500 IOpCl=  0 I1Cent=   200000004 NGrid=           0
         NMat0=    1 NMatS0=      1 NMatT0=    0 NMatD0=    1 NMtDS0=    0 NMtDT0=    0
 Petite list used in FoFCou.
 Keep R1 ints in memory in canonical form, NReq=47237537.
 Requested convergence on RMS density matrix=1.00D-08 within 128 cycles.
 Requested convergence on MAX density matrix=1.00D-06.
 Requested convergence on             energy=1.00D-06.
 No special actions if energy rises.
 EnCoef did     6 forward-backward iterations
 EnCoef did     4 forward-backward iterations
 EnCoef did     5 forward-backward iterations
 EnCoef did     5 forward-backward iterations
 EnCoef did     2 forward-backward iterations
 SCF Done:  E(RB3LYP) =  -343.237076165     A.U. after   19 cycles
            NFock= 19  Conv=0.66D-08     -V/T= 2.0077
 DoSCS=F DFT=T ScalE2(SS,OS)=  1.000000  1.000000
 Range of M.O.s used for correlation:     1   126
 NBasis=   126 NAE=    24 NBE=    24 NFC=     0 NFV=     0
 NROrb=    126 NOA=    24 NOB=    24 NVA=   102 NVB=   102

 **** Warning!!: The largest alpha MO coefficient is  0.22067224D+02


 **** Warning!!: The smallest alpha delta epsilon is  0.63693224D-01

 Symmetrizing basis deriv contribution to polar:
 IMax=3 JMax=2 DiffMx= 0.00D+00
 G2DrvN: will do    13 centers at a time, making    1 passes.
 Calling FoFCou, ICntrl=  3107 FMM=F I1Cent=   0 AccDes= 0.00D+00.
 End of G2Drv F.D. properties file   721 does not exist.
 End of G2Drv F.D. properties file   722 does not exist.
 End of G2Drv F.D. properties file   788 does not exist.
          IDoAtm=111111111111
          Differentiating once with respect to electric field.
                with respect to dipole field.
          Differentiating once with respect to nuclear coordinates.
 Keep R1 ints in memory in canonical form, NReq=47193559.
          There are    39 degrees of freedom in the 1st order CPHF.  IDoFFX=6 NUNeed=     3.
     36 vectors produced by pass  0 Test12= 6.28D-15 2.56D-09 XBig12= 6.02D+02 2.26D+01.
 AX will form    36 AO Fock derivatives at one time.
     36 vectors produced by pass  1 Test12= 6.28D-15 2.56D-09 XBig12= 2.41D+02 2.81D+00.
     36 vectors produced by pass  2 Test12= 6.28D-15 2.56D-09 XBig12= 2.89D+00 2.33D-01.
     36 vectors produced by pass  3 Test12= 6.28D-15 2.56D-09 XBig12= 1.18D-02 1.41D-02.
     36 vectors produced by pass  4 Test12= 6.28D-15 2.56D-09 XBig12= 2.16D-05 9.28D-04.
     33 vectors produced by pass  5 Test12= 6.28D-15 2.56D-09 XBig12= 2.91D-08 2.49D-05.
      4 vectors produced by pass  6 Test12= 6.28D-15 2.56D-09 XBig12= 2.68D-11 5.40D-07.
      3 vectors produced by pass  7 Test12= 6.28D-15 2.56D-09 XBig12= 2.18D-14 1.72D-08.
 InvSVY:  IOpt=1 It=  1 EMax= 1.07D-14
 Solved reduced A of dimension   220 with    39 vectors.
 Isotropic polarizability for W=    0.000000       73.14 Bohr**3.
 End of Minotr F.D. properties file   721 does not exist.
 End of Minotr F.D. properties file   722 does not exist.
 End of Minotr F.D. properties file   788 does not exist.

 **********************************************************************

            Population analysis using the SCF Density.

 **********************************************************************

 Orbital symmetries:
       Occupied  (A) (A) (A) (A) (A) (A) (A) (A) (A) (A) (A) (A)
                 (A) (A) (A) (A) (A) (A) (A) (A) (A) (A) (A) (A)
       Virtual   (A) (A) (A) (A) (A) (A) (A) (A) (A) (A) (A) (A)
                 (A) (A) (A) (A) (A) (A) (A) (A) (A) (A) (A) (A)
                 (A) (A) (A) (A) (A) (A) (A) (A) (A) (A) (A) (A)
                 (A) (A) (A) (A) (A) (A) (A) (A) (A) (A) (A) (A)
                 (A) (A) (A) (A) (A) (A) (A) (A) (A) (A) (A) (A)
                 (A) (A) (A) (A) (A) (A) (A) (A) (A) (A) (A) (A)
                 (A) (A) (A) (A) (A) (A) (A) (A) (A) (A) (A) (A)
                 (A) (A) (A) (A) (A) (A) (A) (A) (A) (A) (A) (A)
                 (A) (A) (A) (A) (A) (A)
 The electronic state is 1-A.
 Alpha  occ. eigenvalues --  -19.21783 -19.20151 -19.12301 -10.32458 -10.30785
 Alpha  occ. eigenvalues --  -10.30220  -1.10743  -1.09417  -0.92212  -0.77607
 Alpha  occ. eigenvalues --   -0.68023  -0.62826  -0.55889  -0.51721  -0.49970
 Alpha  occ. eigenvalues --   -0.47801  -0.46378  -0.44174  -0.40755  -0.39162
 Alpha  occ. eigenvalues --   -0.33686  -0.30192  -0.26395  -0.19806
 Alpha virt. eigenvalues --   -0.13437  -0.07349  -0.05130   0.00156   0.01913
 Alpha virt. eigenvalues --    0.02225   0.03538   0.05444   0.06269   0.06963
 Alpha virt. eigenvalues --    0.07663   0.08625   0.10805   0.11711   0.13406
 Alpha virt. eigenvalues --    0.15034   0.16283   0.18066   0.18540   0.21363
 Alpha virt. eigenvalues --    0.21556   0.22221   0.23304   0.24089   0.24971
 Alpha virt. eigenvalues --    0.26284   0.27066   0.28293   0.29449   0.30665
 Alpha virt. eigenvalues --    0.31291   0.32752   0.35249   0.36712   0.39475
 Alpha virt. eigenvalues --    0.44091   0.59847   0.63982   0.65038   0.69415
 Alpha virt. eigenvalues --    0.72124   0.76238   0.78477   0.83650   0.86612
 Alpha virt. eigenvalues --    0.91502   0.92522   0.96253   1.01153   1.02014
 Alpha virt. eigenvalues --    1.05870   1.08937   1.10303   1.16428   1.19227
 Alpha virt. eigenvalues --    1.20288   1.22561   1.23580   1.26518   1.28317
 Alpha virt. eigenvalues --    1.32422   1.33855   1.37856   1.40959   1.42040
 Alpha virt. eigenvalues --    1.47850   1.51562   1.53636   1.58252   1.66565
 Alpha virt. eigenvalues --    1.68198   1.71244   1.74621   1.77689   1.82332
 Alpha virt. eigenvalues --    1.84860   1.88502   1.92295   1.99495   2.00339
 Alpha virt. eigenvalues --    2.11586   2.14102   2.18373   2.24584   2.31088
 Alpha virt. eigenvalues --    2.35478   2.42649   2.49145   2.53939   2.56322
 Alpha virt. eigenvalues --    2.59721   2.66101   2.71969   2.82035   2.93595
 Alpha virt. eigenvalues --    3.04206   4.10332   4.13935   4.14835   4.24611
 Alpha virt. eigenvalues --    4.36074   4.40124
          Condensed to atoms (all electrons):
               1          2          3          4          5          6
     1  C    5.702210  -0.003127  -0.159349  -0.133956   0.031019  -0.006483
     2  C   -0.003127   5.945280   0.049350  -0.069805   0.041028  -0.122137
     3  C   -0.159349   0.049350   5.114259   0.049504   0.020065   0.457580
     4  O   -0.133956  -0.069805   0.049504   8.775160  -0.253504   0.001927
     5  O    0.031019   0.041028   0.020065  -0.253504   8.823084  -0.001119
     6  O   -0.006483  -0.122137   0.457580   0.001927  -0.001119   8.035669
     7  H    0.011953  -0.006789  -0.000854   0.008356   0.148783   0.000050
     8  H    0.354444  -0.053239   0.008247  -0.029402  -0.013519   0.002209
     9  H    0.424219  -0.001078  -0.010862  -0.111330  -0.004439   0.000313
    10  H    0.022144  -0.111720   0.367611   0.007146  -0.000566  -0.055813
    11  H    0.013276   0.362429  -0.018623  -0.109751   0.028349   0.002363
    12  H   -0.021776   0.373605  -0.045888   0.025957  -0.042584   0.004105
               7          8          9         10         11         12
     1  C    0.011953   0.354444   0.424219   0.022144   0.013276  -0.021776
     2  C   -0.006789  -0.053239  -0.001078  -0.111720   0.362429   0.373605
     3  C   -0.000854   0.008247  -0.010862   0.367611  -0.018623  -0.045888
     4  O    0.008356  -0.029402  -0.111330   0.007146  -0.109751   0.025957
     5  O    0.148783  -0.013519  -0.004439  -0.000566   0.028349  -0.042584
     6  O    0.000050   0.002209   0.000313  -0.055813   0.002363   0.004105
     7  H    0.392504  -0.000314  -0.000305   0.000006   0.000276   0.001231
     8  H   -0.000314   0.466555  -0.031829   0.001189   0.004199  -0.000265
     9  H   -0.000305  -0.031829   0.518693  -0.000777  -0.002291   0.000457
    10  H    0.000006   0.001189  -0.000777   0.571003   0.001005   0.003433
    11  H    0.000276   0.004199  -0.002291   0.001005   0.492841  -0.034207
    12  H    0.001231  -0.000265   0.000457   0.003433  -0.034207   0.422493
 Mulliken charges:
               1
     1  C   -0.234575
     2  C   -0.403796
     3  C    0.168960
     4  O   -0.160302
     5  O   -0.776598
     6  O   -0.318664
     7  H    0.445103
     8  H    0.291726
     9  H    0.219230
    10  H    0.195340
    11  H    0.260134
    12  H    0.313440
 Sum of Mulliken charges =  -0.00000
 Mulliken charges with hydrogens summed into heavy atoms:
               1
     1  C    0.276381
     2  C    0.169779
     3  C    0.364300
     4  O   -0.160302
     5  O   -0.331495
     6  O   -0.318664
 APT charges:
               1
     1  C   -0.170880
     2  C   -0.121326
     3  C    0.994194
     4  O    0.577533
     5  O   -0.894583
     6  O   -0.797074
     7  H    0.223685
     8  H    0.079812
     9  H    0.049462
    10  H   -0.027467
    11  H    0.093106
    12  H   -0.006461
 Sum of APT charges =  -0.00000
 APT charges with hydrogens summed into heavy atoms:
               1
     1  C   -0.041607
     2  C   -0.034682
     3  C    0.966726
     4  O    0.577533
     5  O   -0.670897
     6  O   -0.797074
 Electronic spatial extent (au):  <R**2>=            666.1748
 Charge=             -0.0000 electrons
 Dipole moment (field-independent basis, Debye):
    X=             -0.6750    Y=              3.0841    Z=              0.2425  Tot=              3.1664
 Quadrupole moment (field-independent basis, Debye-Ang):
   XX=            -44.1360   YY=            -37.7173   ZZ=            -35.2207
   XY=              1.6348   XZ=             -5.1736   YZ=             -1.5394
 Traceless Quadrupole moment (field-independent basis, Debye-Ang):
   XX=             -5.1113   YY=              1.3074   ZZ=              3.8040
   XY=              1.6348   XZ=             -5.1736   YZ=             -1.5394
 Octapole moment (field-independent basis, Debye-Ang**2):
  XXX=             29.7413  YYY=              4.9006  ZZZ=              1.7331  XYY=             -6.1504
  XXY=             14.0349  XXZ=              1.3620  XZZ=             -1.1983  YZZ=             -0.7743
  YYZ=              0.8233  XYZ=             -0.8587
 Hexadecapole moment (field-independent basis, Debye-Ang**3):
 XXXX=           -585.4753 YYYY=           -163.5449 ZZZZ=            -84.7673 XXXY=             -4.1077
 XXXZ=            -29.3310 YYYX=             15.8189 YYYZ=              1.3970 ZZZX=              2.9879
 ZZZY=              1.4024 XXYY=           -135.4946 XXZZ=           -110.9749 YYZZ=            -45.8559
 XXYZ=              0.5669 YYXZ=             -2.2249 ZZXY=             -0.2863
 N-N= 2.380260886213D+02 E-N=-1.280438254154D+03  KE= 3.406009989742D+02
  Exact polarizability: 105.844 -14.247  66.249  -4.330   1.615  47.323
 Approx polarizability: 239.487 -64.440 138.549  -3.427   8.559  72.243
 Calling FoFJK, ICntrl=    100127 FMM=F ISym2X=0 I1Cent= 0 IOpClX= 0 NMat=1 NMatS=1 NMatT=0.
 ***** Axes restored to original set *****
 -------------------------------------------------------------------
 Center     Atomic                   Forces (Hartrees/Bohr)
 Number     Number              X              Y              Z
 -------------------------------------------------------------------
      1        6          -0.009759266    0.011177364   -0.052095820
      2        6          -0.034523990   -0.098576391    0.024803218
      3        6          -0.025434459    0.026642986    0.011629913
      4        8          -0.035941774    0.001414410    0.013815963
      5        8           0.003075497    0.047054861    0.037081780
      6        8           0.009135884   -0.002963765   -0.002559698
      7        1           0.000522992    0.013244719   -0.011862403
      8        1           0.011210531    0.007514133   -0.006010085
      9        1           0.061311334   -0.030564877    0.001120896
     10        1           0.002222042    0.003075909   -0.007507381
     11        1          -0.000712847   -0.002512291    0.000917774
     12        1           0.018894055    0.024492944   -0.009334157
 -------------------------------------------------------------------
 Cartesian Forces:  Max     0.098576391 RMS     0.027630702
 FormGI is forming the generalized inverse of G from B-inverse, IUseBI=4.

 GradGradGradGradGradGradGradGradGradGradGradGradGradGradGradGradGradGrad
 Berny optimization.
 Internal  Forces:  Max     0.062568030 RMS     0.020067216
 Search for a saddle point.
 Step number   1 out of a maximum of  100
 All quantities printed in internal units (Hartrees-Bohrs-Radians)
 Swapping is turned off.
 Second derivative matrix not updated -- analytic derivatives used.
 ITU=  0
     Eigenvalues ---   -0.83219  -0.09991  -0.05121   0.00044   0.00243
     Eigenvalues ---    0.01051   0.01484   0.03368   0.04349   0.05005
     Eigenvalues ---    0.05060   0.05904   0.06066   0.07439   0.08161
     Eigenvalues ---    0.10839   0.12026   0.13353   0.16898   0.18617
     Eigenvalues ---    0.21967   0.32157   0.32748   0.33664   0.35420
     Eigenvalues ---    0.37072   0.37805   0.55490   0.56433   0.86971
 Eigenvectors required to have negative eigenvalues:
                          A1        A5        R2        R10       D11
   1                    0.65283  -0.40085   0.28066  -0.27599  -0.23863
                          A2        D8        A7        A8        A4
   1                   -0.15624  -0.15185   0.14928  -0.12481   0.12100
 RFO step:  Lambda0=3.779572223D-04 Lambda=-1.22953121D-01.
 Linear search not attempted -- option 19 set.
 Maximum step size (   0.300) exceeded in Quadratic search.
    -- Step size scaled by   0.470
 Iteration  1 RMS(Cart)=  0.12471657 RMS(Int)=  0.00777264
 Iteration  2 RMS(Cart)=  0.00690677 RMS(Int)=  0.00278834
 Iteration  3 RMS(Cart)=  0.00007501 RMS(Int)=  0.00278792
 Iteration  4 RMS(Cart)=  0.00000080 RMS(Int)=  0.00278792
 Variable       Old X    -DE/DX   Delta X   Delta X   Delta X     New X
                                 (Linear)    (Quad)   (Total)
    R1        3.42310   0.03906   0.00000  -0.10384  -0.10384   3.31927
    R2        2.47992   0.04767   0.00000   0.05106   0.05106   2.53098
    R3        2.03992   0.00607   0.00000   0.00705   0.00705   2.04696
    R4        2.05499   0.01005   0.00000   0.00242   0.00242   2.05742
    R5        3.07539  -0.02965   0.00000  -0.02977  -0.02977   3.04562
    R6        2.06783   0.00081   0.00000   0.00953   0.00953   2.07735
    R7        2.04102   0.00597   0.00000  -0.00071  -0.00071   2.04031
    R8        2.28235   0.00344   0.00000  -0.00018  -0.00018   2.28217
    R9        2.08289   0.00161   0.00000   0.00189   0.00189   2.08478
   R10        3.62328   0.06257   0.00000   0.10655   0.10655   3.72983
   R11        1.80687   0.01741   0.00000   0.01381   0.01381   1.82068
    A1        1.18962  -0.01026   0.00000  -0.02320  -0.01273   1.17690
    A2        1.46234   0.01552   0.00000   0.11697   0.11782   1.58016
    A3        2.47340   0.00766   0.00000  -0.12927  -0.13408   2.33932
    A4        2.19356  -0.01650   0.00000  -0.06838  -0.07045   2.12311
    A5        1.60100   0.03490   0.00000   0.07328   0.08453   1.68552
    A6        2.31678  -0.02643   0.00000  -0.01620  -0.01952   2.29726
    A7        1.59837   0.00424   0.00000   0.05598   0.05669   1.65506
    A8        2.11901   0.01110   0.00000   0.02426   0.02427   2.14328
    A9        2.13046  -0.02668   0.00000  -0.08398  -0.08472   2.04573
   A10        1.86212  -0.00509   0.00000  -0.03783  -0.03865   1.82347
   A11        1.78350   0.00942   0.00000   0.02102   0.02368   1.80718
   A12        1.88312   0.00948   0.00000   0.03130   0.03099   1.91410
   A13        2.04570   0.01043   0.00000   0.02047   0.02032   2.06602
   A14        2.09524  -0.00879   0.00000  -0.01811  -0.01826   2.07698
   A15        2.12594   0.00005   0.00000   0.00312   0.00297   2.12891
   A16        1.69522   0.02751   0.00000   0.03066   0.03066   1.72588
   A17        1.56715   0.00487   0.00000   0.07747   0.07747   1.64462
    D1        2.38402   0.02050   0.00000   0.13538   0.13361   2.51763
    D2        0.45190   0.02091   0.00000   0.13734   0.13426   0.58616
    D3       -2.05863   0.02919   0.00000   0.18042   0.17665  -1.88199
    D4       -1.58642  -0.00390   0.00000  -0.00959  -0.00876  -1.59517
    D5        2.76465  -0.00349   0.00000  -0.00763  -0.00811   2.75654
    D6        0.25412   0.00479   0.00000   0.03544   0.03428   0.28840
    D7        1.28586  -0.02252   0.00000  -0.11182  -0.10757   1.17828
    D8       -0.64626  -0.02211   0.00000  -0.10986  -0.10692  -0.75319
    D9        3.12639  -0.01383   0.00000  -0.06679  -0.06454   3.06186
   D10        1.22589   0.03112   0.00000   0.19705   0.19732   1.42321
   D11        0.10108   0.00557   0.00000  -0.00483  -0.00194   0.09914
   D12       -2.50035   0.02229   0.00000   0.00355   0.00039  -2.49996
   D13        2.01107  -0.01789   0.00000  -0.05439  -0.05362   1.95745
   D14       -1.32005  -0.00813   0.00000  -0.02248  -0.02170  -1.34174
   D15       -2.11587  -0.00560   0.00000  -0.01605  -0.01630  -2.13217
   D16        0.83619   0.00416   0.00000   0.01586   0.01563   0.85182
   D17       -0.14125   0.00698   0.00000   0.01362   0.01308  -0.12817
   D18        2.81082   0.01673   0.00000   0.04553   0.04500   2.85582
   D19        1.74550   0.00438   0.00000   0.03542   0.03542   1.78091
         Item               Value     Threshold  Converged?
 Maximum Force            0.062568     0.000450     NO 
 RMS     Force            0.020067     0.000300     NO 
 Maximum Displacement     0.390798     0.001800     NO 
 RMS     Displacement     0.123265     0.001200     NO 
 Predicted change in Energy=-4.648787D-02
 GradGradGradGradGradGradGradGradGradGradGradGradGradGradGradGradGradGrad

                          Input orientation:                          
 ---------------------------------------------------------------------
 Center     Atomic      Atomic             Coordinates (Angstroms)
 Number     Number       Type             X           Y           Z
 ---------------------------------------------------------------------
      1          6           0        1.641278    1.281027   -2.407492
      2          6           0        0.629561    0.923940   -1.016759
      3          6           0        1.215214   -0.561964   -0.800915
      4          8           0        0.420717    1.823401   -2.506939
      5          8           0        0.710848    3.431997   -1.400637
      6          8           0        1.873929   -0.781293    0.187249
      7          1           0        0.805279    4.021974   -2.156462
      8          1           0        2.399893    1.703552   -1.759948
      9          1           0        1.690860    0.898181   -3.425492
     10          1           0        0.880227   -1.371539   -1.471334
     11          1           0       -0.457973    0.782427   -1.092126
     12          1           0        0.867391    1.426379   -0.091172
 ---------------------------------------------------------------------
                    Distance matrix (angstroms):
                    1          2          3          4          5
     1  C    0.000000
     2  C    1.756479   0.000000
     3  C    2.481781   1.611672   0.000000
     4  O    1.339338   1.753078   3.038373   0.000000
     5  O    2.550711   2.538566   4.070107   1.973742   0.000000
     6  O    3.322645   2.430207   1.207675   4.019316   4.650370
     7  H    2.876578   3.305694   4.797712   2.259302   0.963464
     8  H    1.083207   2.072245   2.730526   2.118843   2.443256
     9  H    1.088739   2.632302   3.040833   1.820174   3.388316
    10  H    2.914052   2.353443   1.103219   3.389878   4.807041
    11  H    2.526983   1.099288   2.166043   1.964031   2.912308
    12  H    2.446501   1.079685   2.139678   2.488589   2.400355
                    6          7          8          9         10
     6  O    0.000000
     7  H    5.450354   0.000000
     8  H    3.200417   2.841671   0.000000
     9  H    3.988238   3.486083   1.981258   0.000000
    10  H    2.021567   5.437371   3.442219   3.102820   0.000000
    11  H    3.085415   3.636383   3.076013   3.174189   2.564009
    12  H    2.442223   3.317588   2.282586   3.474879   3.119833
                   11         12
    11  H    0.000000
    12  H    1.781340   0.000000
 Stoichiometry    C3H6O3
 Framework group  C1[X(C3H6O3)]
 Deg. of freedom    30
 Full point group                 C1      NOp   1
 Largest Abelian subgroup         C1      NOp   1
 Largest concise Abelian subgroup C1      NOp   1
                         Standard orientation:                         
 ---------------------------------------------------------------------
 Center     Atomic      Atomic             Coordinates (Angstroms)
 Number     Number       Type             X           Y           Z
 ---------------------------------------------------------------------
      1          6           0        0.480369    0.908446   -0.640759
      2          6           0       -0.215049   -0.253780    0.477653
      3          6           0       -1.737962    0.209140    0.224812
      4          8           0        1.252463    0.704250    0.434417
      5          8           0        2.143307   -0.960148   -0.141636
      6          8           0       -2.485607   -0.557390   -0.333701
      7          1           0        2.964355   -0.519937   -0.387311
      8          1           0        0.422599    0.184748   -1.444663
      9          1           0        0.563466    1.993974   -0.649525
     10          1           0       -2.099250    1.139528    0.694856
     11          1           0       -0.083877   -0.184112    1.566861
     12          1           0       -0.212737   -1.290732    0.176912
 ---------------------------------------------------------------------
 Rotational constants (GHZ):           7.7582077           1.8729218           1.7013474
 Standard basis: 6-31+G(d) (6D, 7F)
 There are   126 symmetry adapted cartesian basis functions of A   symmetry.
 There are   126 symmetry adapted basis functions of A   symmetry.
   126 basis functions,   216 primitive gaussians,   126 cartesian basis functions
    24 alpha electrons       24 beta electrons
       nuclear repulsion energy       234.3917678263 Hartrees.
 NAtoms=   12 NActive=   12 NUniq=   12 SFac= 1.00D+00 NAtFMM=   60 NAOKFM=F Big=F
 Integral buffers will be    131072 words long.
 Raffenetti 2 integral format.
 Two-electron integral symmetry is turned on.
 One-electron integrals computed using PRISM.
 NBasis=   126 RedAO= T EigKep=  1.87D-04  NBF=   126
 NBsUse=   126 1.00D-06 EigRej= -1.00D+00 NBFU=   126
 Initial guess from the checkpoint file:  "/scratch/bell/zhao922/YARP/paper-example/KHP-network/pp_0/TS-folder/Gau-18956.chk"
 B after Tr=    -0.000000    0.000000    0.000000
         Rot=    0.999055    0.039477    0.005870   -0.017218 Ang=   4.98 deg.
 ExpMin= 4.38D-02 ExpMax= 5.48D+03 ExpMxC= 8.25D+02 IAcc=3 IRadAn=         5 AccDes= 0.00D+00
 Harris functional with IExCor=  402 and IRadAn=       5 diagonalized for initial guess.
 HarFok:  IExCor=  402 AccDes= 0.00D+00 IRadAn=         5 IDoV= 1 UseB2=F ITyADJ=14
 ICtDFT=  3500011 ScaDFX=  1.000000  1.000000  1.000000  1.000000
 FoFCou: FMM=F IPFlag=           0 FMFlag=      100000 FMFlg1=           0
         NFxFlg=           0 DoJE=T BraDBF=F KetDBF=T FulRan=T
         wScrn=  0.000000 ICntrl=       500 IOpCl=  0 I1Cent=   200000004 NGrid=           0
         NMat0=    1 NMatS0=      1 NMatT0=    0 NMatD0=    1 NMtDS0=    0 NMtDT0=    0
 Petite list used in FoFCou.
 Keep R1 ints in memory in canonical form, NReq=47237537.
 Requested convergence on RMS density matrix=1.00D-08 within 128 cycles.
 Requested convergence on MAX density matrix=1.00D-06.
 Requested convergence on             energy=1.00D-06.
 No special actions if energy rises.
 SCF Done:  E(RB3LYP) =  -343.280366049     A.U. after   16 cycles
            NFock= 16  Conv=0.31D-08     -V/T= 2.0084
 DoSCS=F DFT=T ScalE2(SS,OS)=  1.000000  1.000000
 Range of M.O.s used for correlation:     1   126
 NBasis=   126 NAE=    24 NBE=    24 NFC=     0 NFV=     0
 NROrb=    126 NOA=    24 NOB=    24 NVA=   102 NVB=   102

 **** Warning!!: The largest alpha MO coefficient is  0.24224149D+02


 **** Warning!!: The smallest alpha delta epsilon is  0.63956989D-01

 Symmetrizing basis deriv contribution to polar:
 IMax=3 JMax=2 DiffMx= 0.00D+00
 G2DrvN: will do    13 centers at a time, making    1 passes.
 Calling FoFCou, ICntrl=  3107 FMM=F I1Cent=   0 AccDes= 0.00D+00.
 End of G2Drv F.D. properties file   721 does not exist.
 End of G2Drv F.D. properties file   722 does not exist.
 End of G2Drv F.D. properties file   788 does not exist.
          IDoAtm=111111111111
          Differentiating once with respect to electric field.
                with respect to dipole field.
          Differentiating once with respect to nuclear coordinates.
 Keep R1 ints in memory in canonical form, NReq=47193559.
          There are    39 degrees of freedom in the 1st order CPHF.  IDoFFX=6 NUNeed=     3.
     36 vectors produced by pass  0 Test12= 6.28D-15 2.56D-09 XBig12= 7.62D+02 2.62D+01.
 AX will form    36 AO Fock derivatives at one time.
     36 vectors produced by pass  1 Test12= 6.28D-15 2.56D-09 XBig12= 3.51D+02 3.99D+00.
     36 vectors produced by pass  2 Test12= 6.28D-15 2.56D-09 XBig12= 5.46D+00 4.30D-01.
     36 vectors produced by pass  3 Test12= 6.28D-15 2.56D-09 XBig12= 2.22D-02 2.05D-02.
     36 vectors produced by pass  4 Test12= 6.28D-15 2.56D-09 XBig12= 3.68D-05 7.42D-04.
     33 vectors produced by pass  5 Test12= 6.28D-15 2.56D-09 XBig12= 4.10D-08 2.63D-05.
      4 vectors produced by pass  6 Test12= 6.28D-15 2.56D-09 XBig12= 3.62D-11 1.05D-06.
      3 vectors produced by pass  7 Test12= 6.28D-15 2.56D-09 XBig12= 3.04D-14 2.08D-08.
 InvSVY:  IOpt=1 It=  1 EMax= 3.55D-15
 Solved reduced A of dimension   220 with    39 vectors.
 Isotropic polarizability for W=    0.000000       75.34 Bohr**3.
 End of Minotr F.D. properties file   721 does not exist.
 End of Minotr F.D. properties file   722 does not exist.
 End of Minotr F.D. properties file   788 does not exist.
 Calling FoFJK, ICntrl=    100127 FMM=F ISym2X=0 I1Cent= 0 IOpClX= 0 NMat=1 NMatS=1 NMatT=0.
 ***** Axes restored to original set *****
 -------------------------------------------------------------------
 Center     Atomic                   Forces (Hartrees/Bohr)
 Number     Number              X              Y              Z
 -------------------------------------------------------------------
      1        6          -0.029517477    0.008191406   -0.024568155
      2        6          -0.013923434   -0.088472261    0.004844787
      3        6          -0.020402869    0.017023777    0.015056108
      4        8          -0.017629120    0.020051819    0.024829606
      5        8           0.005659273    0.028972643    0.009586309
      6        8           0.007820407   -0.002227688   -0.003779972
      7        1          -0.000052195    0.011200663   -0.005223186
      8        1           0.008781517    0.005181296   -0.007617461
      9        1           0.045547533   -0.023260455    0.005222073
     10        1           0.002480761    0.002374753   -0.006696643
     11        1           0.000087805   -0.003389866   -0.001225541
     12        1           0.011147799    0.024353913   -0.010427927
 -------------------------------------------------------------------
 Cartesian Forces:  Max     0.088472261 RMS     0.021567678
 FormGI is forming the generalized inverse of G from B-inverse, IUseBI=4.

 GradGradGradGradGradGradGradGradGradGradGradGradGradGradGradGradGradGrad
 Berny optimization.
 Internal  Forces:  Max     0.037361979 RMS     0.015725131
 Search for a saddle point.
 Step number   2 out of a maximum of  100
 All quantities printed in internal units (Hartrees-Bohrs-Radians)
 Swapping is turned off.
 Second derivative matrix not updated -- analytic derivatives used.
 ITU=  0  0
     Eigenvalues ---   -0.64147  -0.03241  -0.01521   0.00070   0.00870
     Eigenvalues ---    0.01277   0.02088   0.03450   0.03875   0.04720
     Eigenvalues ---    0.04956   0.05230   0.05981   0.06821   0.07871
     Eigenvalues ---    0.09942   0.12255   0.13064   0.16331   0.17168
     Eigenvalues ---    0.21222   0.26445   0.32197   0.33061   0.34149
     Eigenvalues ---    0.36534   0.38145   0.48383   0.53790   0.86990
 Eigenvectors required to have negative eigenvalues:
                          A1        A5        R2        R10       D11
   1                    0.68318  -0.35111   0.26899  -0.24783  -0.20967
                          D8        A7        D10       R1        A8
   1                   -0.17470   0.17014   0.15193  -0.14202  -0.13696
 RFO step:  Lambda0=6.270627586D-04 Lambda=-7.07822720D-02.
 Linear search not attempted -- option 19 set.
 Maximum step size (   0.300) exceeded in Quadratic search.
    -- Step size scaled by   0.461
 Iteration  1 RMS(Cart)=  0.09381175 RMS(Int)=  0.00673688
 Iteration  2 RMS(Cart)=  0.01088625 RMS(Int)=  0.00051638
 Iteration  3 RMS(Cart)=  0.00014182 RMS(Int)=  0.00051033
 Iteration  4 RMS(Cart)=  0.00000003 RMS(Int)=  0.00051033
 Variable       Old X    -DE/DX   Delta X   Delta X   Delta X     New X
                                 (Linear)    (Quad)   (Total)
    R1        3.31927   0.01584   0.00000   0.05119   0.05119   3.37045
    R2        2.53098   0.03318   0.00000   0.02345   0.02345   2.55443
    R3        2.04696   0.00362   0.00000   0.00041   0.00041   2.04738
    R4        2.05742   0.00537   0.00000   0.00295   0.00295   2.06036
    R5        3.04562  -0.01889   0.00000  -0.05851  -0.05851   2.98711
    R6        2.07735   0.00043   0.00000   0.00490   0.00490   2.08225
    R7        2.04031   0.00485   0.00000   0.00766   0.00766   2.04797
    R8        2.28217   0.00158   0.00000   0.00516   0.00516   2.28733
    R9        2.08478   0.00157   0.00000   0.00307   0.00307   2.08786
   R10        3.72983   0.03601   0.00000  -0.11348  -0.11348   3.61635
   R11        1.82068   0.01095   0.00000   0.01042   0.01042   1.83110
    A1        1.17690   0.01116   0.00000  -0.06367  -0.06368   1.11321
    A2        1.58016   0.01528   0.00000   0.07104   0.07039   1.65056
    A3        2.33932  -0.00392   0.00000   0.00399   0.00485   2.34416
    A4        2.12311  -0.01385   0.00000  -0.05553  -0.05355   2.06956
    A5        1.68552   0.02035   0.00000   0.10443   0.10442   1.78995
    A6        2.29726  -0.01780   0.00000  -0.07309  -0.07314   2.22412
    A7        1.65506   0.00873   0.00000   0.01220   0.01200   1.66707
    A8        2.14328   0.00651   0.00000   0.04283   0.04228   2.18556
    A9        2.04573  -0.02263   0.00000  -0.10140  -0.10144   1.94430
   A10        1.82347  -0.00534   0.00000   0.01015   0.00914   1.83261
   A11        1.80718   0.00774   0.00000   0.04023   0.04074   1.84792
   A12        1.91410   0.00860   0.00000   0.01840   0.01755   1.93165
   A13        2.06602   0.00908   0.00000   0.02658   0.02629   2.09230
   A14        2.07698  -0.00738   0.00000  -0.02074  -0.02103   2.05595
   A15        2.12891  -0.00036   0.00000   0.00042   0.00012   2.12903
   A16        1.72588   0.01811   0.00000   0.11568   0.11568   1.84156
   A17        1.64462   0.00983   0.00000   0.10588   0.10588   1.75050
    D1        2.51763   0.02491   0.00000   0.10910   0.11005   2.62768
    D2        0.58616   0.02305   0.00000   0.07350   0.07389   0.66005
    D3       -1.88199   0.03302   0.00000   0.13655   0.13682  -1.74516
    D4       -1.59517  -0.00120   0.00000   0.02914   0.02891  -1.56626
    D5        2.75654  -0.00306   0.00000  -0.00647  -0.00725   2.74929
    D6        0.28840   0.00691   0.00000   0.05659   0.05568   0.34408
    D7        1.17828  -0.02113   0.00000   0.02064   0.02116   1.19944
    D8       -0.75319  -0.02299   0.00000  -0.01496  -0.01500  -0.76819
    D9        3.06186  -0.01302   0.00000   0.04810   0.04793   3.10978
   D10        1.42321   0.03736   0.00000   0.23664   0.23730   1.66050
   D11        0.09914   0.00097   0.00000   0.15815   0.15846   0.25759
   D12       -2.49996   0.02051   0.00000   0.20784   0.20688  -2.29308
   D13        1.95745  -0.01456   0.00000  -0.07086  -0.07094   1.88651
   D14       -1.34174  -0.00533   0.00000  -0.02747  -0.02752  -1.36926
   D15       -2.13217  -0.00582   0.00000  -0.01737  -0.01759  -2.14976
   D16        0.85182   0.00341   0.00000   0.02602   0.02583   0.87765
   D17       -0.12817   0.00467   0.00000   0.02274   0.02299  -0.10518
   D18        2.85582   0.01390   0.00000   0.06613   0.06641   2.92223
   D19        1.78091   0.00347   0.00000  -0.01571  -0.01571   1.76520
         Item               Value     Threshold  Converged?
 Maximum Force            0.037362     0.000450     NO 
 RMS     Force            0.015725     0.000300     NO 
 Maximum Displacement     0.309091     0.001800     NO 
 RMS     Displacement     0.097652     0.001200     NO 
 Predicted change in Energy=-3.336637D-02
 GradGradGradGradGradGradGradGradGradGradGradGradGradGradGradGradGradGrad

                          Input orientation:                          
 ---------------------------------------------------------------------
 Center     Atomic      Atomic             Coordinates (Angstroms)
 Number     Number       Type             X           Y           Z
 ---------------------------------------------------------------------
      1          6           0        1.657955    1.273437   -2.371604
      2          6           0        0.604795    0.849265   -0.996090
      3          6           0        1.191514   -0.605145   -0.798359
      4          8           0        0.444151    1.867661   -2.343375
      5          8           0        0.724418    3.564672   -1.504434
      6          8           0        1.891731   -0.847943    0.158628
      7          1           0        0.739768    4.142065   -2.282443
      8          1           0        2.448661    1.680280   -1.752672
      9          1           0        1.732852    0.936348   -3.405775
     10          1           0        0.851800   -1.396296   -1.490716
     11          1           0       -0.487065    0.711371   -1.050537
     12          1           0        0.876643    1.402369   -0.104649
 ---------------------------------------------------------------------
                    Distance matrix (angstroms):
                    1          2          3          4          5
     1  C    0.000000
     2  C    1.783565   0.000000
     3  C    2.494341   1.580711   0.000000
     4  O    1.351747   1.696501   3.010050   0.000000
     5  O    2.621686   2.765169   4.254891   1.913692   0.000000
     6  O    3.310132   2.422827   1.210404   3.966108   4.857939
     7  H    3.013311   3.537718   4.994255   2.294344   0.968976
     8  H    1.083426   2.159361   2.777462   2.098119   2.566237
     9  H    1.090298   2.662082   3.076990   1.912273   3.397076
    10  H    2.924606   2.312620   1.104846   3.398033   4.962623
    11  H    2.581133   1.101879   2.148124   1.968654   3.132896
    12  H    2.401282   1.083740   2.147206   2.327110   2.580334
                    6          7          8          9         10
     6  O    0.000000
     7  H    5.673272   0.000000
     8  H    3.217942   3.043248   0.000000
     9  H    3.989224   3.539027   1.948991   0.000000
    10  H    2.025459   5.595786   3.476191   3.144031   0.000000
    11  H    3.090665   3.846085   3.170215   3.244348   2.535465
    12  H    2.482664   3.502492   2.294440   3.442049   3.123192
                   11         12
    11  H    0.000000
    12  H    1.797743   0.000000
 Stoichiometry    C3H6O3
 Framework group  C1[X(C3H6O3)]
 Deg. of freedom    30
 Full point group                 C1      NOp   1
 Largest Abelian subgroup         C1      NOp   1
 Largest concise Abelian subgroup C1      NOp   1
                         Standard orientation:                         
 ---------------------------------------------------------------------
 Center     Atomic      Atomic             Coordinates (Angstroms)
 Number     Number       Type             X           Y           Z
 ---------------------------------------------------------------------
      1          6           0        0.441186    0.938972   -0.590204
      2          6           0       -0.282570   -0.268953    0.504420
      3          6           0       -1.779217    0.168852    0.245535
      4          8           0        1.197376    0.559443    0.464005
      5          8           0        2.332460   -0.833118   -0.195217
      6          8           0       -2.512412   -0.543592   -0.402483
      7          1           0        3.156612   -0.339472   -0.321716
      8          1           0        0.407666    0.296530   -1.461959
      9          1           0        0.535181    2.025033   -0.570564
     10          1           0       -2.148363    1.072859    0.762436
     11          1           0       -0.173899   -0.278837    1.600882
     12          1           0       -0.192987   -1.271202    0.101974
 ---------------------------------------------------------------------
 Rotational constants (GHZ):           8.4093805           1.7566545           1.6444637
 Standard basis: 6-31+G(d) (6D, 7F)
 There are   126 symmetry adapted cartesian basis functions of A   symmetry.
 There are   126 symmetry adapted basis functions of A   symmetry.
   126 basis functions,   216 primitive gaussians,   126 cartesian basis functions
    24 alpha electrons       24 beta electrons
       nuclear repulsion energy       233.0627717999 Hartrees.
 NAtoms=   12 NActive=   12 NUniq=   12 SFac= 1.00D+00 NAtFMM=   60 NAOKFM=F Big=F
 Integral buffers will be    131072 words long.
 Raffenetti 2 integral format.
 Two-electron integral symmetry is turned on.
 One-electron integrals computed using PRISM.
 NBasis=   126 RedAO= T EigKep=  1.76D-04  NBF=   126
 NBsUse=   126 1.00D-06 EigRej= -1.00D+00 NBFU=   126
 Initial guess from the checkpoint file:  "/scratch/bell/zhao922/YARP/paper-example/KHP-network/pp_0/TS-folder/Gau-18956.chk"
 B after Tr=     0.000000    0.000000    0.000000
         Rot=    0.999240   -0.036922    0.004662   -0.011624 Ang=  -4.47 deg.
 ExpMin= 4.38D-02 ExpMax= 5.48D+03 ExpMxC= 8.25D+02 IAcc=3 IRadAn=         5 AccDes= 0.00D+00
 Harris functional with IExCor=  402 and IRadAn=       5 diagonalized for initial guess.
 HarFok:  IExCor=  402 AccDes= 0.00D+00 IRadAn=         5 IDoV= 1 UseB2=F ITyADJ=14
 ICtDFT=  3500011 ScaDFX=  1.000000  1.000000  1.000000  1.000000
 FoFCou: FMM=F IPFlag=           0 FMFlag=      100000 FMFlg1=           0
         NFxFlg=           0 DoJE=T BraDBF=F KetDBF=T FulRan=T
         wScrn=  0.000000 ICntrl=       500 IOpCl=  0 I1Cent=   200000004 NGrid=           0
         NMat0=    1 NMatS0=      1 NMatT0=    0 NMatD0=    1 NMtDS0=    0 NMtDT0=    0
 Petite list used in FoFCou.
 Keep R1 ints in memory in canonical form, NReq=47237537.
 Requested convergence on RMS density matrix=1.00D-08 within 128 cycles.
 Requested convergence on MAX density matrix=1.00D-06.
 Requested convergence on             energy=1.00D-06.
 No special actions if energy rises.
 SCF Done:  E(RB3LYP) =  -343.311765234     A.U. after   15 cycles
            NFock= 15  Conv=0.47D-08     -V/T= 2.0086
 DoSCS=F DFT=T ScalE2(SS,OS)=  1.000000  1.000000
 Range of M.O.s used for correlation:     1   126
 NBasis=   126 NAE=    24 NBE=    24 NFC=     0 NFV=     0
 NROrb=    126 NOA=    24 NOB=    24 NVA=   102 NVB=   102

 **** Warning!!: The largest alpha MO coefficient is  0.20051088D+02


 **** Warning!!: The smallest alpha delta epsilon is  0.83816745D-01

 Symmetrizing basis deriv contribution to polar:
 IMax=3 JMax=2 DiffMx= 0.00D+00
 G2DrvN: will do    13 centers at a time, making    1 passes.
 Calling FoFCou, ICntrl=  3107 FMM=F I1Cent=   0 AccDes= 0.00D+00.
 End of G2Drv F.D. properties file   721 does not exist.
 End of G2Drv F.D. properties file   722 does not exist.
 End of G2Drv F.D. properties file   788 does not exist.
          IDoAtm=111111111111
          Differentiating once with respect to electric field.
                with respect to dipole field.
          Differentiating once with respect to nuclear coordinates.
 Keep R1 ints in memory in canonical form, NReq=47193559.
          There are    39 degrees of freedom in the 1st order CPHF.  IDoFFX=6 NUNeed=     3.
     36 vectors produced by pass  0 Test12= 6.28D-15 2.56D-09 XBig12= 5.83D+02 2.29D+01.
 AX will form    36 AO Fock derivatives at one time.
     36 vectors produced by pass  1 Test12= 6.28D-15 2.56D-09 XBig12= 2.64D+02 2.88D+00.
     36 vectors produced by pass  2 Test12= 6.28D-15 2.56D-09 XBig12= 5.58D+00 5.72D-01.
     36 vectors produced by pass  3 Test12= 6.28D-15 2.56D-09 XBig12= 2.61D-02 2.72D-02.
     36 vectors produced by pass  4 Test12= 6.28D-15 2.56D-09 XBig12= 4.26D-05 8.94D-04.
     31 vectors produced by pass  5 Test12= 6.28D-15 2.56D-09 XBig12= 4.22D-08 2.96D-05.
      4 vectors produced by pass  6 Test12= 6.28D-15 2.56D-09 XBig12= 3.66D-11 1.09D-06.
      3 vectors produced by pass  7 Test12= 6.28D-15 2.56D-09 XBig12= 2.79D-14 2.87D-08.
 InvSVY:  IOpt=1 It=  1 EMax= 7.11D-15
 Solved reduced A of dimension   218 with    39 vectors.
 Isotropic polarizability for W=    0.000000       74.71 Bohr**3.
 End of Minotr F.D. properties file   721 does not exist.
 End of Minotr F.D. properties file   722 does not exist.
 End of Minotr F.D. properties file   788 does not exist.
 Calling FoFJK, ICntrl=    100127 FMM=F ISym2X=0 I1Cent= 0 IOpClX= 0 NMat=1 NMatS=1 NMatT=0.
 ***** Axes restored to original set *****
 -------------------------------------------------------------------
 Center     Atomic                   Forces (Hartrees/Bohr)
 Number     Number              X              Y              Z
 -------------------------------------------------------------------
      1        6          -0.026521008    0.009599827   -0.023617545
      2        6          -0.012332075   -0.063385655    0.005462920
      3        6          -0.012988366    0.010296778    0.012357609
      4        8          -0.002893510    0.015965827    0.032711668
      5        8           0.003816136    0.018432872   -0.004570810
      6        8           0.005160540   -0.001126130   -0.004068926
      7        1          -0.000953442    0.007158091   -0.003047219
      8        1           0.006302076    0.000259578   -0.003485020
      9        1           0.031810023   -0.013245669    0.003166084
     10        1           0.002272779    0.001690997   -0.005093594
     11        1           0.000424505   -0.003015353   -0.001176993
     12        1           0.005902341    0.017368836   -0.008638176
 -------------------------------------------------------------------
 Cartesian Forces:  Max     0.063385655 RMS     0.016244564
 FormGI is forming the generalized inverse of G from B-inverse, IUseBI=4.

 GradGradGradGradGradGradGradGradGradGradGradGradGradGradGradGradGradGrad
 Berny optimization.
 Internal  Forces:  Max     0.031517998 RMS     0.011307316
 Search for a saddle point.
 Step number   3 out of a maximum of  100
 All quantities printed in internal units (Hartrees-Bohrs-Radians)
 Swapping is turned off.
 Second derivative matrix not updated -- analytic derivatives used.
 ITU=  0  0  0
     Eigenvalues ---   -0.56111  -0.01737   0.00156   0.00190   0.00531
     Eigenvalues ---    0.02289   0.02392   0.03754   0.04233   0.04862
     Eigenvalues ---    0.05099   0.05597   0.05768   0.07751   0.08320
     Eigenvalues ---    0.10369   0.12812   0.12958   0.13484   0.18436
     Eigenvalues ---    0.21486   0.27075   0.31860   0.32784   0.34492
     Eigenvalues ---    0.36675   0.37230   0.47559   0.51788   0.85930
 Eigenvectors required to have negative eigenvalues:
                          A1        A5        R2        R1        R10
   1                    0.65744  -0.32293   0.26459  -0.23706  -0.21349
                          A7        D10       D8        D11       A8
   1                    0.19681   0.18802  -0.18730  -0.17879  -0.15210
 RFO step:  Lambda0=1.126214342D-03 Lambda=-4.13798608D-02.
 Linear search not attempted -- option 19 set.
 Maximum step size (   0.300) exceeded in Quadratic search.
    -- Step size scaled by   0.544
 Iteration  1 RMS(Cart)=  0.10273651 RMS(Int)=  0.00924449
 Iteration  2 RMS(Cart)=  0.01579910 RMS(Int)=  0.00081881
 Iteration  3 RMS(Cart)=  0.00023342 RMS(Int)=  0.00080561
 Iteration  4 RMS(Cart)=  0.00000003 RMS(Int)=  0.00080561
 Variable       Old X    -DE/DX   Delta X   Delta X   Delta X     New X
                                 (Linear)    (Quad)   (Total)
    R1        3.37045   0.01501   0.00000   0.17873   0.17873   3.54918
    R2        2.55443   0.01882   0.00000  -0.00406  -0.00406   2.55037
    R3        2.04738   0.00271   0.00000   0.00229   0.00229   2.04967
    R4        2.06036   0.00328   0.00000   0.00552   0.00552   2.06588
    R5        2.98711  -0.01166   0.00000  -0.08378  -0.08378   2.90333
    R6        2.08225   0.00001   0.00000  -0.00682  -0.00682   2.07543
    R7        2.04797   0.00324   0.00000   0.00673   0.00673   2.05471
    R8        2.28733  -0.00001   0.00000   0.00833   0.00833   2.29567
    R9        2.08786   0.00128   0.00000   0.00208   0.00208   2.08993
   R10        3.61635   0.01977   0.00000  -0.11215  -0.11215   3.50421
   R11        1.83110   0.00670   0.00000   0.00795   0.00795   1.83905
    A1        1.11321   0.01548   0.00000  -0.04045  -0.04079   1.07243
    A2        1.65056   0.00973   0.00000   0.01217   0.01208   1.66264
    A3        2.34416  -0.00292   0.00000   0.04848   0.04867   2.39284
    A4        2.06956  -0.00883   0.00000  -0.01536  -0.01520   2.05436
    A5        1.78995   0.01022   0.00000   0.08228   0.08199   1.87194
    A6        2.22412  -0.01185   0.00000  -0.06660  -0.06643   2.15769
    A7        1.66707   0.00355   0.00000  -0.04669  -0.04638   1.62069
    A8        2.18556   0.00430   0.00000   0.01105   0.01133   2.19689
    A9        1.94430  -0.01498   0.00000  -0.07535  -0.07471   1.86959
   A10        1.83261  -0.00241   0.00000   0.05602   0.05526   1.88787
   A11        1.84792   0.00674   0.00000   0.05403   0.05119   1.89911
   A12        1.93165   0.00518   0.00000   0.02046   0.01740   1.94905
   A13        2.09230   0.00609   0.00000   0.02494   0.02463   2.11693
   A14        2.05595  -0.00496   0.00000  -0.01730  -0.01761   2.03834
   A15        2.12903  -0.00037   0.00000  -0.00297  -0.00329   2.12575
   A16        1.84156   0.01132   0.00000   0.06903   0.06903   1.91059
   A17        1.75050   0.00684   0.00000   0.02406   0.02406   1.77456
    D1        2.62768   0.01883   0.00000   0.04581   0.04524   2.67292
    D2        0.66005   0.01735   0.00000   0.00686   0.00713   0.66718
    D3       -1.74516   0.02424   0.00000   0.06613   0.06668  -1.67848
    D4       -1.56626   0.00086   0.00000   0.02974   0.02909  -1.53718
    D5        2.74929  -0.00062   0.00000  -0.00921  -0.00902   2.74027
    D6        0.34408   0.00626   0.00000   0.05006   0.05053   0.39461
    D7        1.19944  -0.01510   0.00000  -0.00693  -0.00766   1.19178
    D8       -0.76819  -0.01658   0.00000  -0.04588  -0.04578  -0.81396
    D9        3.10978  -0.00969   0.00000   0.01340   0.01378   3.12356
   D10        1.66050   0.03152   0.00000   0.22438   0.22447   1.88498
   D11        0.25759   0.00396   0.00000   0.22539   0.22522   0.48282
   D12       -2.29308   0.02097   0.00000   0.24698   0.24705  -2.04603
   D13        1.88651  -0.01017   0.00000  -0.05717  -0.05756   1.82895
   D14       -1.36926  -0.00292   0.00000  -0.01245  -0.01282  -1.38208
   D15       -2.14976  -0.00481   0.00000  -0.04582  -0.04711  -2.19687
   D16        0.87765   0.00243   0.00000  -0.00109  -0.00237   0.87528
   D17       -0.10518   0.00296   0.00000   0.02709   0.02876  -0.07643
   D18        2.92223   0.01021   0.00000   0.07182   0.07350   2.99572
   D19        1.76520   0.00292   0.00000   0.03658   0.03658   1.80178
         Item               Value     Threshold  Converged?
 Maximum Force            0.031518     0.000450     NO 
 RMS     Force            0.011307     0.000300     NO 
 Maximum Displacement     0.346931     0.001800     NO 
 RMS     Displacement     0.115373     0.001200     NO 
 Predicted change in Energy=-2.178189D-02
 GradGradGradGradGradGradGradGradGradGradGradGradGradGradGradGradGradGrad

                          Input orientation:                          
 ---------------------------------------------------------------------
 Center     Atomic      Atomic             Coordinates (Angstroms)
 Number     Number       Type             X           Y           Z
 ---------------------------------------------------------------------
      1          6           0        1.688166    1.283444   -2.329713
      2          6           0        0.563791    0.794529   -0.906978
      3          6           0        1.159496   -0.619038   -0.820815
      4          8           0        0.493931    1.900574   -2.209839
      5          8           0        0.754598    3.646009   -1.640531
      6          8           0        1.925900   -0.927552    0.069812
      7          1           0        0.622533    4.144199   -2.466031
      8          1           0        2.500404    1.630103   -1.699999
      9          1           0        1.810364    1.015273   -3.382459
     10          1           0        0.804824   -1.355653   -1.565610
     11          1           0       -0.529700    0.703083   -0.953002
     12          1           0        0.882919    1.363111   -0.036864
 ---------------------------------------------------------------------
                    Distance matrix (angstroms):
                    1          2          3          4          5
     1  C    0.000000
     2  C    1.878146   0.000000
     3  C    2.485095   1.536378   0.000000
     4  O    1.349599   1.710457   2.953101   0.000000
     5  O    2.632154   2.950500   4.361938   1.854347   0.000000
     6  O    3.271505   2.403128   1.214815   3.904567   5.021423
     7  H    3.055827   3.695185   5.067888   2.261864   0.973183
     8  H    1.084639   2.253339   2.762179   2.087828   2.667443
     9  H    1.093217   2.780410   3.107510   1.972762   3.327120
    10  H    2.885996   2.261674   1.105944   3.333871   5.002475
    11  H    2.674151   1.098273   2.149153   2.015303   3.283737
    12  H    2.431446   1.087303   2.149416   2.272004   2.792819
                    6          7          8          9         10
     6  O    0.000000
     7  H    5.818241   0.000000
     8  H    3.162892   3.230152   0.000000
     9  H    3.963092   3.470009   1.919595   0.000000
    10  H    2.028469   5.576052   3.436246   3.151720   0.000000
    11  H    3.120111   3.931689   3.255595   3.387569   2.528762
    12  H    2.519192   3.701771   2.335286   3.489148   3.120070
                   11         12
    11  H    0.000000
    12  H    1.808435   0.000000
 Stoichiometry    C3H6O3
 Framework group  C1[X(C3H6O3)]
 Deg. of freedom    30
 Full point group                 C1      NOp   1
 Largest Abelian subgroup         C1      NOp   1
 Largest concise Abelian subgroup C1      NOp   1
                         Standard orientation:                         
 ---------------------------------------------------------------------
 Center     Atomic      Atomic             Coordinates (Angstroms)
 Number     Number       Type             X           Y           Z
 ---------------------------------------------------------------------
      1          6           0        0.424300    1.012941   -0.394560
      2          6           0       -0.358825   -0.456897    0.473614
      3          6           0       -1.780443    0.098333    0.297034
      4          8           0        1.154463    0.339082    0.518781
      5          8           0        2.470065   -0.642511   -0.343931
      6          8           0       -2.540163   -0.364098   -0.530467
      7          1           0        3.261341   -0.101344   -0.176286
      8          1           0        0.349563    0.591267   -1.391078
      9          1           0        0.562220    2.079313   -0.197202
     10          1           0       -2.098029    0.888748    1.002368
     11          1           0       -0.225259   -0.726529    1.529863
     12          1           0       -0.234951   -1.317502   -0.179259
 ---------------------------------------------------------------------
 Rotational constants (GHZ):           9.1953897           1.6781480           1.6147797
 Standard basis: 6-31+G(d) (6D, 7F)
 There are   126 symmetry adapted cartesian basis functions of A   symmetry.
 There are   126 symmetry adapted basis functions of A   symmetry.
   126 basis functions,   216 primitive gaussians,   126 cartesian basis functions
    24 alpha electrons       24 beta electrons
       nuclear repulsion energy       232.2535095029 Hartrees.
 NAtoms=   12 NActive=   12 NUniq=   12 SFac= 1.00D+00 NAtFMM=   60 NAOKFM=F Big=F
 Integral buffers will be    131072 words long.
 Raffenetti 2 integral format.
 Two-electron integral symmetry is turned on.
 One-electron integrals computed using PRISM.
 NBasis=   126 RedAO= T EigKep=  1.59D-04  NBF=   126
 NBsUse=   126 1.00D-06 EigRej= -1.00D+00 NBFU=   126
 Initial guess from the checkpoint file:  "/scratch/bell/zhao922/YARP/paper-example/KHP-network/pp_0/TS-folder/Gau-18956.chk"
 B after Tr=     0.000000   -0.000000   -0.000000
         Rot=    0.992687   -0.120597    0.003440   -0.004005 Ang= -13.87 deg.
 ExpMin= 4.38D-02 ExpMax= 5.48D+03 ExpMxC= 8.25D+02 IAcc=3 IRadAn=         5 AccDes= 0.00D+00
 Harris functional with IExCor=  402 and IRadAn=       5 diagonalized for initial guess.
 HarFok:  IExCor=  402 AccDes= 0.00D+00 IRadAn=         5 IDoV= 1 UseB2=F ITyADJ=14
 ICtDFT=  3500011 ScaDFX=  1.000000  1.000000  1.000000  1.000000
 FoFCou: FMM=F IPFlag=           0 FMFlag=      100000 FMFlg1=           0
         NFxFlg=           0 DoJE=T BraDBF=F KetDBF=T FulRan=T
         wScrn=  0.000000 ICntrl=       500 IOpCl=  0 I1Cent=   200000004 NGrid=           0
         NMat0=    1 NMatS0=      1 NMatT0=    0 NMatD0=    1 NMtDS0=    0 NMtDT0=    0
 Petite list used in FoFCou.
 Keep R1 ints in memory in canonical form, NReq=47237537.
 Requested convergence on RMS density matrix=1.00D-08 within 128 cycles.
 Requested convergence on MAX density matrix=1.00D-06.
 Requested convergence on             energy=1.00D-06.
 No special actions if energy rises.
 SCF Done:  E(RB3LYP) =  -343.333091067     A.U. after   14 cycles
            NFock= 14  Conv=0.59D-08     -V/T= 2.0088
 DoSCS=F DFT=T ScalE2(SS,OS)=  1.000000  1.000000
 Range of M.O.s used for correlation:     1   126
 NBasis=   126 NAE=    24 NBE=    24 NFC=     0 NFV=     0
 NROrb=    126 NOA=    24 NOB=    24 NVA=   102 NVB=   102

 **** Warning!!: The largest alpha MO coefficient is  0.21092425D+02

 Symmetrizing basis deriv contribution to polar:
 IMax=3 JMax=2 DiffMx= 0.00D+00
 G2DrvN: will do    13 centers at a time, making    1 passes.
 Calling FoFCou, ICntrl=  3107 FMM=F I1Cent=   0 AccDes= 0.00D+00.
 End of G2Drv F.D. properties file   721 does not exist.
 End of G2Drv F.D. properties file   722 does not exist.
 End of G2Drv F.D. properties file   788 does not exist.
          IDoAtm=111111111111
          Differentiating once with respect to electric field.
                with respect to dipole field.
          Differentiating once with respect to nuclear coordinates.
 Keep R1 ints in memory in canonical form, NReq=47193559.
          There are    39 degrees of freedom in the 1st order CPHF.  IDoFFX=6 NUNeed=     3.
     36 vectors produced by pass  0 Test12= 6.28D-15 2.56D-09 XBig12= 4.40D+02 1.95D+01.
 AX will form    36 AO Fock derivatives at one time.
     36 vectors produced by pass  1 Test12= 6.28D-15 2.56D-09 XBig12= 1.96D+02 2.33D+00.
     36 vectors produced by pass  2 Test12= 6.28D-15 2.56D-09 XBig12= 4.56D+00 3.98D-01.
     36 vectors produced by pass  3 Test12= 6.28D-15 2.56D-09 XBig12= 2.09D-02 2.24D-02.
     36 vectors produced by pass  4 Test12= 6.28D-15 2.56D-09 XBig12= 3.76D-05 1.02D-03.
     28 vectors produced by pass  5 Test12= 6.28D-15 2.56D-09 XBig12= 4.14D-08 4.12D-05.
      4 vectors produced by pass  6 Test12= 6.28D-15 2.56D-09 XBig12= 4.14D-11 1.14D-06.
      3 vectors produced by pass  7 Test12= 6.28D-15 2.56D-09 XBig12= 3.69D-14 3.34D-08.
 InvSVY:  IOpt=1 It=  1 EMax= 7.11D-15
 Solved reduced A of dimension   215 with    39 vectors.
 Isotropic polarizability for W=    0.000000       73.51 Bohr**3.
 End of Minotr F.D. properties file   721 does not exist.
 End of Minotr F.D. properties file   722 does not exist.
 End of Minotr F.D. properties file   788 does not exist.
 Calling FoFJK, ICntrl=    100127 FMM=F ISym2X=0 I1Cent= 0 IOpClX= 0 NMat=1 NMatS=1 NMatT=0.
 ***** Axes restored to original set *****
 -------------------------------------------------------------------
 Center     Atomic                   Forces (Hartrees/Bohr)
 Number     Number              X              Y              Z
 -------------------------------------------------------------------
      1        6          -0.018426617    0.010768404   -0.023736268
      2        6          -0.011489162   -0.037346341    0.008642860
      3        6          -0.006115026    0.003468959    0.006986773
      4        8           0.001879621    0.007914078    0.030994273
      5        8           0.002919016    0.011230325   -0.009611759
      6        8           0.002888380   -0.000214945   -0.003026722
      7        1          -0.001948178    0.003298575   -0.001623462
      8        1           0.003741364   -0.003309245    0.000258010
      9        1           0.021595589   -0.006746257    0.002557900
     10        1           0.001453841    0.001053164   -0.002974280
     11        1           0.000233360   -0.000621054   -0.002039576
     12        1           0.003267810    0.010504337   -0.006427750
 -------------------------------------------------------------------
 Cartesian Forces:  Max     0.037346341 RMS     0.011462189
 FormGI is forming the generalized inverse of G from B-inverse, IUseBI=4.

 GradGradGradGradGradGradGradGradGradGradGradGradGradGradGradGradGradGrad
 Berny optimization.
 Internal  Forces:  Max     0.022598187 RMS     0.007200291
 Search for a saddle point.
 Step number   4 out of a maximum of  100
 All quantities printed in internal units (Hartrees-Bohrs-Radians)
 Swapping is turned off.
 Second derivative matrix not updated -- analytic derivatives used.
 ITU=  0  0  0  0
     Eigenvalues ---   -0.52785  -0.00317   0.00212   0.00357   0.00408
     Eigenvalues ---    0.01982   0.03002   0.03815   0.04441   0.05176
     Eigenvalues ---    0.05410   0.05914   0.06252   0.07319   0.08149
     Eigenvalues ---    0.10556   0.12909   0.13504   0.13637   0.20386
     Eigenvalues ---    0.23554   0.27121   0.31732   0.33258   0.34133
     Eigenvalues ---    0.36340   0.36598   0.47848   0.50248   0.84306
 Eigenvectors required to have negative eigenvalues:
                          A1        A5        R1        R2        A7
   1                    0.64498  -0.32536  -0.24468   0.23882   0.20931
                          R10       D10       D8        D11       D12
   1                   -0.19580   0.19514  -0.19398  -0.16970   0.16937
 RFO step:  Lambda0=4.015017768D-04 Lambda=-2.81550859D-02.
 Linear search not attempted -- option 19 set.
 Maximum step size (   0.300) exceeded in Quadratic search.
    -- Step size scaled by   0.528
 Iteration  1 RMS(Cart)=  0.10563403 RMS(Int)=  0.02477124
 Iteration  2 RMS(Cart)=  0.04159244 RMS(Int)=  0.00140801
 Iteration  3 RMS(Cart)=  0.00147732 RMS(Int)=  0.00074555
 Iteration  4 RMS(Cart)=  0.00000189 RMS(Int)=  0.00074555
 Iteration  5 RMS(Cart)=  0.00000000 RMS(Int)=  0.00074555
 Variable       Old X    -DE/DX   Delta X   Delta X   Delta X     New X
                                 (Linear)    (Quad)   (Total)
    R1        3.54918   0.01275   0.00000   0.20252   0.20252   3.75170
    R2        2.55037   0.00950   0.00000  -0.00478  -0.00478   2.54559
    R3        2.04967   0.00189   0.00000   0.00230   0.00230   2.05197
    R4        2.06588   0.00161   0.00000   0.00260   0.00260   2.06848
    R5        2.90333  -0.00459   0.00000  -0.05038  -0.05038   2.85296
    R6        2.07543  -0.00010   0.00000  -0.00896  -0.00896   2.06647
    R7        2.05471   0.00131   0.00000   0.00170   0.00170   2.05640
    R8        2.29567  -0.00034   0.00000   0.00653   0.00653   2.30220
    R9        2.08993   0.00084   0.00000   0.00131   0.00131   2.09125
   R10        3.50421   0.01036   0.00000  -0.14389  -0.14389   3.36032
   R11        1.83905   0.00333   0.00000   0.00397   0.00397   1.84302
    A1        1.07243   0.00833   0.00000  -0.03158  -0.03124   1.04119
    A2        1.66264   0.00514   0.00000  -0.01476  -0.01458   1.64806
    A3        2.39284  -0.00122   0.00000   0.07004   0.06983   2.46267
    A4        2.05436  -0.00427   0.00000  -0.00201  -0.00250   2.05186
    A5        1.87194   0.00623   0.00000   0.04743   0.04787   1.91981
    A6        2.15769  -0.00728   0.00000  -0.04998  -0.04994   2.10775
    A7        1.62069  -0.00035   0.00000  -0.05196  -0.05153   1.56916
    A8        2.19689   0.00183   0.00000  -0.01054  -0.00998   2.18692
    A9        1.86959  -0.00856   0.00000  -0.04983  -0.04929   1.82030
   A10        1.88787   0.00034   0.00000   0.05898   0.05784   1.94571
   A11        1.89911   0.00484   0.00000   0.03922   0.03663   1.93574
   A12        1.94905   0.00282   0.00000   0.01956   0.01666   1.96572
   A13        2.11693   0.00321   0.00000   0.01451   0.01442   2.13135
   A14        2.03834  -0.00257   0.00000  -0.00956  -0.00965   2.02869
   A15        2.12575  -0.00035   0.00000  -0.00340  -0.00349   2.12226
   A16        1.91059   0.00491   0.00000   0.02017   0.02017   1.93076
   A17        1.77456   0.00311   0.00000  -0.01946  -0.01946   1.75510
    D1        2.67292   0.01061   0.00000   0.01450   0.01385   2.68677
    D2        0.66718   0.00975   0.00000  -0.01509  -0.01522   0.65196
    D3       -1.67848   0.01416   0.00000   0.02953   0.02960  -1.64888
    D4       -1.53718   0.00114   0.00000   0.02672   0.02647  -1.51071
    D5        2.74027   0.00027   0.00000  -0.00287  -0.00260   2.73766
    D6        0.39461   0.00469   0.00000   0.04175   0.04222   0.43682
    D7        1.19178  -0.00956   0.00000   0.01915   0.01881   1.21059
    D8       -0.81396  -0.01043   0.00000  -0.01044  -0.01026  -0.82422
    D9        3.12356  -0.00601   0.00000   0.03418   0.03456  -3.12506
   D10        1.88498   0.02260   0.00000   0.26144   0.26149   2.14646
   D11        0.48282   0.00798   0.00000   0.29908   0.29896   0.78178
   D12       -2.04603   0.01750   0.00000   0.32299   0.32307  -1.72296
   D13        1.82895  -0.00602   0.00000  -0.02565  -0.02574   1.80322
   D14       -1.38208  -0.00148   0.00000  -0.00087  -0.00095  -1.38304
   D15       -2.19687  -0.00405   0.00000  -0.04179  -0.04309  -2.23996
   D16        0.87528   0.00049   0.00000  -0.01701  -0.01830   0.85697
   D17       -0.07643   0.00245   0.00000   0.04060   0.04199  -0.03444
   D18        2.99572   0.00699   0.00000   0.06538   0.06677   3.06249
   D19        1.80178   0.00330   0.00000   0.11867   0.11867   1.92045
         Item               Value     Threshold  Converged?
 Maximum Force            0.022598     0.000450     NO 
 RMS     Force            0.007200     0.000300     NO 
 Maximum Displacement     0.362362     0.001800     NO 
 RMS     Displacement     0.143413     0.001200     NO 
 Predicted change in Energy=-1.664322D-02
 GradGradGradGradGradGradGradGradGradGradGradGradGradGradGradGradGradGrad

                          Input orientation:                          
 ---------------------------------------------------------------------
 Center     Atomic      Atomic             Coordinates (Angstroms)
 Number     Number       Type             X           Y           Z
 ---------------------------------------------------------------------
[...]
    D5        2.57920  -0.00000   0.00000  -0.00003  -0.00003   2.57917
    D6        0.45052  -0.00000   0.00000  -0.00003  -0.00003   0.45049
    D7        0.49972   0.00000   0.00000  -0.00003  -0.00003   0.49969
    D8       -1.60094  -0.00000   0.00000  -0.00003  -0.00003  -1.60097
    D9        2.55357   0.00000   0.00000  -0.00003  -0.00003   2.55354
   D10        3.03349   0.00000   0.00000   0.00000   0.00000   3.03349
   D11        1.49731  -0.00000   0.00000  -0.00000  -0.00000   1.49731
   D12       -1.54961  -0.00000   0.00000  -0.00000  -0.00000  -1.54962
   D13        1.48744   0.00000   0.00000  -0.00000  -0.00000   1.48743
   D14       -1.64290   0.00000   0.00000   0.00000   0.00000  -1.64290
   D15       -2.74578  -0.00000   0.00000   0.00000   0.00000  -2.74577
   D16        0.40707  -0.00000   0.00000   0.00000   0.00000   0.40707
   D17       -0.27083  -0.00000   0.00000   0.00000   0.00000  -0.27083
   D18        2.88202  -0.00000   0.00000   0.00000   0.00000   2.88202
   D19        1.85392  -0.00000   0.00000   0.00000   0.00000   1.85392
         Item               Value     Threshold  Converged?
 Maximum Force            0.000000     0.000450     YES
 RMS     Force            0.000000     0.000300     YES
 Maximum Displacement     0.000048     0.001800     YES
 RMS     Displacement     0.000017     0.001200     YES
 Predicted change in Energy=-2.903426D-12
 Optimization completed.
    -- Stationary point found.
                           ----------------------------
                           !   Optimized Parameters   !
                           ! (Angstroms and Degrees)  !
 --------------------------                            --------------------------
 ! Name  Definition              Value          Derivative Info.                !
 --------------------------------------------------------------------------------
 ! R1    R(1,2)                  2.1149         -DE/DX =    0.0                 !
 ! R2    R(1,4)                  1.2837         -DE/DX =    0.0                 !
 ! R3    R(1,8)                  1.0924         -DE/DX =    0.0                 !
 ! R4    R(1,9)                  1.0938         -DE/DX =    0.0                 !
 ! R5    R(2,3)                  1.4742         -DE/DX =    0.0                 !
 ! R6    R(2,11)                 1.0867         -DE/DX =    0.0                 !
 ! R7    R(2,12)                 1.0866         -DE/DX =    0.0                 !
 ! R8    R(3,6)                  1.2224         -DE/DX =    0.0                 !
 ! R9    R(3,10)                 1.1088         -DE/DX =    0.0                 !
 ! R10   R(4,5)                  1.9471         -DE/DX =    0.0                 !
 ! R11   R(5,7)                  0.9776         -DE/DX =    0.0                 !
 ! A1    A(2,1,4)               73.8348         -DE/DX =    0.0                 !
 ! A2    A(2,1,8)               96.6938         -DE/DX =    0.0                 !
 ! A3    A(2,1,9)              104.4674         -DE/DX =    0.0                 !
 ! A4    A(4,1,8)              121.3738         -DE/DX =    0.0                 !
 ! A5    A(4,1,9)              121.0979         -DE/DX =    0.0                 !
 ! A6    A(8,1,9)              117.3169         -DE/DX =    0.0                 !
 ! A7    A(1,2,3)               94.5145         -DE/DX =    0.0                 !
 ! A8    A(1,2,11)             112.2845         -DE/DX =    0.0                 !
 ! A9    A(1,2,12)              97.5105         -DE/DX =    0.0                 !
 ! A10   A(3,2,11)             115.8721         -DE/DX =    0.0                 !
 ! A11   A(3,2,12)             116.6658         -DE/DX =    0.0                 !
 ! A12   A(11,2,12)            115.8543         -DE/DX =    0.0                 !
 ! A13   A(2,3,6)              123.6481         -DE/DX =    0.0                 !
 ! A14   A(2,3,10)             115.8052         -DE/DX =    0.0                 !
 ! A15   A(6,3,10)             120.5435         -DE/DX =    0.0                 !
 ! A16   A(1,4,5)               73.3086         -DE/DX =    0.0                 !
 ! A17   A(4,5,7)               99.6227         -DE/DX =    0.0                 !
 ! D1    D(4,1,2,3)            147.3553         -DE/DX =    0.0                 !
 ! D2    D(4,1,2,11)            26.9968         -DE/DX =    0.0                 !
 ! D3    D(4,1,2,12)           -94.9676         -DE/DX =    0.0                 !
 ! D4    D(8,1,2,3)            -91.8641         -DE/DX =    0.0                 !
 ! D5    D(8,1,2,11)           147.7773         -DE/DX =    0.0                 !
 ! D6    D(8,1,2,12)            25.813          -DE/DX =    0.0                 !
 ! D7    D(9,1,2,3)             28.6317         -DE/DX =    0.0                 !
 ! D8    D(9,1,2,11)           -91.7269         -DE/DX =    0.0                 !
 ! D9    D(9,1,2,12)           146.3087         -DE/DX =    0.0                 !
 ! D10   D(2,1,4,5)            173.8063         -DE/DX =    0.0                 !
 ! D11   D(8,1,4,5)             85.7897         -DE/DX =    0.0                 !
 ! D12   D(9,1,4,5)            -88.7864         -DE/DX =    0.0                 !
 ! D13   D(1,2,3,6)             85.2238         -DE/DX =    0.0                 !
 ! D14   D(1,2,3,10)           -94.1315         -DE/DX =    0.0                 !
 ! D15   D(11,2,3,6)          -157.3213         -DE/DX =    0.0                 !
 ! D16   D(11,2,3,10)           23.3234         -DE/DX =    0.0                 !
 ! D17   D(12,2,3,6)           -15.5174         -DE/DX =    0.0                 !
 ! D18   D(12,2,3,10)          165.1273         -DE/DX =    0.0                 !
 ! D19   D(1,4,5,7)            106.2218         -DE/DX =    0.0                 !
 --------------------------------------------------------------------------------
 GradGradGradGradGradGradGradGradGradGradGradGradGradGradGradGradGradGrad


 ----------------------------------------------------------------------

 Electric dipole moment (input orientation):
 (Debye = 10**-18 statcoulomb cm , SI units = C m)
                  (au)            (Debye)         (10**-30 SI)
   Tot        0.104903D+01      0.266636D+01      0.889403D+01
   x         -0.778723D+00     -0.197932D+01     -0.660229D+01
   y         -0.611662D+00     -0.155469D+01     -0.518589D+01
   z         -0.346293D+00     -0.880189D+00     -0.293599D+01

 Dipole polarizability, Alpha (input orientation).
 (esu units = cm**3 , SI units = C**2 m**2 J**-1)
 Alpha(0;0):
               (au)            (10**-24 esu)      (10**-40 SI)
   iso        0.778360D+02      0.115341D+02      0.128334D+02
   aniso      0.886533D+02      0.131371D+02      0.146170D+02
   xx         0.514649D+02      0.762632D+01      0.848542D+01
   yx        -0.315300D+00     -0.467226D-01     -0.519859D-01
   yy         0.118259D+03      0.175242D+02      0.194983D+02
   zx        -0.208657D+01     -0.309197D+00     -0.344029D+00
   zy        -0.367680D+02     -0.544845D+01     -0.606222D+01
   zz         0.637838D+02      0.945179D+01      0.105165D+02

 ----------------------------------------------------------------------

 Dipole orientation:
     6          3.08467448         -3.70609140         -2.93685041
     6          0.97512242         -0.95650523         -0.94620075
     6          3.21348425          0.48234756         -0.12130683
     8          1.13267298         -4.85291843         -2.06541267
     8          2.90027496         -7.25962914         -4.21516887
     8          4.23392300          2.10919441         -1.40519949
     1          3.62783729         -8.35588102         -2.91822565
     1          3.04509478         -2.75866687         -4.77054042
     1          4.89779050         -3.78200254         -1.94733105
     1          3.96680523         -0.00856958          1.77123810
     1         -0.16191729         -1.78143469          0.55173171
     1         -0.06490020         -0.20401916         -2.54885875

 Electric dipole moment (dipole orientation):
 (Debye = 10**-18 statcoulomb cm , SI units = C m)
                  (au)            (Debye)         (10**-30 SI)
   Tot        0.104903D+01      0.266636D+01      0.889403D+01
   x          0.000000D+00      0.000000D+00      0.000000D+00
   y          0.000000D+00      0.000000D+00      0.000000D+00
   z          0.104903D+01      0.266636D+01      0.889403D+01

 Dipole polarizability, Alpha (dipole orientation).
 (esu units = cm**3 , SI units = C**2 m**2 J**-1)
 Alpha(0;0):
               (au)            (10**-24 esu)      (10**-40 SI)
   iso        0.778360D+02      0.115341D+02      0.128334D+02
   aniso      0.886533D+02      0.131371D+02      0.146170D+02
   xx         0.494974D+02      0.733476D+01      0.816102D+01
   yx        -0.253093D+01     -0.375045D+00     -0.417294D+00
   yy         0.123944D+03      0.183667D+02      0.204357D+02
   zx        -0.488667D+01     -0.724130D+00     -0.805704D+00
   zy         0.310984D+02      0.460830D+01      0.512743D+01
   zz         0.600662D+02      0.890090D+01      0.990358D+01

 ----------------------------------------------------------------------
 1\1\GINC-BELL-A064\Freq\RB3LYP\6-31+G(d)\C3H6O3\ZHAO922\23-Dec-2020\0\
 \#N Geom=AllCheck Guess=TCheck SCRF=Check GenChk RB3LYP/6-31+G(d) Freq
 \\pp_17_0 TS\\0,1\C,1.4715482915,1.8348827595,-1.8422208655\C,0.509212
 2349,0.5008193281,-0.5128927385\C,1.1267131488,-0.705940802,-1.0923123
 093\O,0.3267315711,2.3538934204,-1.5815109062\O,1.3046263618,3.6608680
 793,-2.6429251135\O,2.2274791304,-1.1263616114,-0.7669224661\H,0.83188
 52206,3.5672436999,-3.4935349851\H,2.3427440294,2.0342753298,-1.214025
 1863\H,1.6317347036,1.2472493644,-2.7507324876\H,0.5322286013,-1.22622
 67538,-1.8703078288\H,-0.573682619,0.5593863459,-0.5824369539\H,0.9460
 033255,0.8779938399,0.4077938408\\Version=ES64L-G16RevB.01\State=1-A\H
 F=-343.3909601\RMSD=4.978e-09\RMSF=2.481e-07\ZeroPoint=0.0874827\Therm
 al=0.095052\Dipole=-0.7787231,-0.6116623,-0.346293\DipoleDeriv=0.66960
 42,0.3947418,-0.3008875,0.0521962,-0.0234914,0.2327748,-0.1110978,0.05
 6062,0.4797796,0.0417883,0.323967,-0.1074209,0.0054189,-1.0445949,0.36
 82157,0.068508,-0.2700562,0.1409129,0.7774974,-1.0178295,0.5667443,-0.
 2555292,1.4229802,-0.1251687,0.3002568,0.8606575,0.0959066,-0.5333252,
 0.1128857,0.0884673,0.1359919,1.3796824,-0.9274903,0.0188958,-1.003891
 6,0.2120918,-0.3667319,-0.4553863,0.33844,0.0320965,-1.2966551,0.52004
 87,0.1140454,0.9492372,-0.7822694,-0.7980838,0.8848622,-0.404954,0.188
 6754,-0.8262119,0.1363151,-0.1576109,-0.0682901,-0.3798602,0.2289828,-
 0.1946718,-0.0200135,-0.0645962,0.1900032,-0.0173766,-0.0847915,-0.106
 6033,0.1871256,-0.0195099,-0.0080847,-0.0129216,-0.0067327,0.0437813,-
 0.0119562,-0.045123,-0.0293131,0.0104025,0.0113618,0.0126649,-0.004343
 7,0.0122386,0.0287027,-0.071582,0.0341762,-0.0522459,-0.0527022,-0.061
 9593,-0.0595984,-0.1037487,-0.0537867,-0.016185,-0.0941017,-0.1271433,
 -0.2212744,-0.0163561,0.0121914,0.0026411,0.0008109,-0.037126,0.138812
 5,-0.0244084,-0.0030891,-0.0834922,0.0947011,0.0381843,0.003808,-0.040
 1727,-0.0088468,0.0031759,0.0147297,-0.0070268,-0.0307899,0.0102678\Po
 lar=51.4649399,-0.3152998,118.25919,-2.0865678,-36.7679761,63.7838311\
 Quadrupole=1.2515857,-7.509266,6.2576802,3.928187,-0.3201877,1.534308\
 PG=C01 [X(C3H6O3)]\NImag=1\\0.71344062,-0.17463984,0.12805512,0.082079
 56,0.36600004,0.43683810,-0.00609640,0.06470573,-0.04486414,0.57220754
 ,-0.01208772,0.00045055,-0.00481374,-0.05515075,0.29512626,0.00738889,
 -0.03406062,0.00142875,0.12311527,0.20439721,0.42884368,0.00663039,0.0
 0449425,-0.00877001,-0.10221137,-0.00037002,0.01160537,0.77517735,-0.0
 1055630,-0.02439298,0.01625961,0.04548176,-0.15063602,-0.08750098,-0.1
 5473538,0.45022806,-0.00480529,0.02216959,-0.00591691,0.01210773,-0.07
 186479,-0.11774526,0.22655691,0.12345248,0.41902673,-0.42334829,0.2128
 3574,0.04303994,-0.01240372,0.01628448,-0.00775728,0.00003451,0.001730
 17,-0.00572414,0.49113335,0.19334108,0.04323269,-0.15884851,-0.0502579
 4,-0.01007148,0.03384214,0.00548347,-0.00582564,-0.02032614,-0.2102857
 0,0.02751970,0.05515105,-0.16859130,-0.01422780,0.02798790,-0.01695092
 ,-0.02852258,-0.00828800,0.00281497,0.01573745,-0.07845951,0.12219249,
 0.04684530,-0.01061265,-0.06487498,0.04022724,0.02081919,0.00124261,-0
 .00838107,-0.00061736,0.00032051,0.00820068,-0.01365256,0.02927489,-0.
 03087527,0.13259917,0.02213920,-0.00760975,-0.02985188,-0.00439768,0.0
 0407972,-0.00083039,-0.00324300,0.00728488,0.00457670,-0.04153165,-0.0
 3661256,0.03326361,0.05075724,0.07465204,-0.01652134,0.01786285,-0.018
 90306,-0.00357264,0.00830989,0.00893532,0.00588594,-0.00554673,-0.0084
 0673,0.01978399,-0.00088449,-0.01590492,0.20278402,0.02231527,0.398543
 53,-0.00794325,-0.00247128,0.00643445,-0.03178120,0.06193236,-0.002955
 11,-0.57544733,0.17403293,-0.17508489,-0.00051630,-0.00598760,0.005755
 08,0.00198204,0.00282902,-0.00458223,0.64834014,0.00609074,-0.00170340
 ,-0.00241411,0.05158938,-0.02067482,0.00924843,0.18588608,-0.15165687,
 0.04194236,0.00001749,0.00524249,-0.00270902,-0.00215039,-0.00252389,0
 .00283008,-0.23837354,0.15119594,-0.00031865,-0.00517672,0.00186671,0.
 00759137,0.00649650,0.01859991,-0.16259584,0.03238859,-0.12808073,0.00
 157870,0.00449536,-0.00198718,-0.00202495,-0.00082479,0.00144559,0.190
 94017,-0.04486927,0.10066353,-0.00548345,-0.00884188,-0.00022609,0.001
 73858,-0.00456589,-0.00095654,-0.00180900,0.00121019,0.00169305,0.0085
 6395,0.00809594,0.00487453,-0.13100572,-0.02327946,-0.20571924,0.00136
 457,-0.00054426,-0.00011780,0.12625054,0.00647969,0.01195449,0.0033113
 5,-0.00287250,-0.00352107,0.00037842,-0.00140307,0.00115706,0.00037302
 ,0.00041293,-0.00338715,0.00485084,-0.02856172,-0.02163170,-0.04843157
 ,0.00080486,-0.00009773,0.00002196,0.02526410,0.01929037,0.00035894,0.
 00147620,-0.00092305,0.00076142,0.00061434,0.00072447,-0.00004578,0.00
 048312,0.00035924,-0.00287873,0.00030848,-0.00448373,-0.20007300,-0.04
 155425,-0.36783066,0.00029372,-0.00030278,-0.00006697,0.20117061,0.039
 34210,0.37166434,-0.20949579,-0.04239849,-0.13158918,-0.00288824,-0.00
 188638,-0.00093762,-0.00092463,0.00060421,0.00089832,-0.03568813,0.003
 86881,-0.01056071,0.00093804,-0.00038151,0.00209013,0.00083988,-0.0002
 6806,0.00000784,0.00030014,-0.00060713,0.00037280,0.23999014,-0.044713
 75,-0.05023810,-0.05720261,-0.00894394,-0.00340051,0.00126037,-0.00293
 246,0.00171568,-0.00197822,0.01681761,0.00008241,0.01502824,0.00858355
 ,-0.00290003,0.00619985,0.00178943,0.00073205,0.00053965,0.00106694,-0
 .00241529,-0.00018455,0.03893555,0.05256904,-0.12976203,-0.05379138,-0
 .15457781,0.00806843,0.00293775,-0.00113809,0.00081380,-0.00122634,-0.
 00023431,0.00722908,0.01120333,0.01205886,-0.00447824,0.00124581,-0.00
 246630,-0.00030012,-0.00006060,-0.00014283,-0.00021564,0.00045081,0.00
 051731,0.13563462,0.04480146,0.15345104,-0.05891730,0.01291273,0.00989
 515,-0.00166037,-0.00011111,0.00163970,0.00032427,0.00030898,0.0016497
 4,-0.01195258,0.02377585,0.03283997,0.00013108,-0.00129462,-0.00075565
 ,-0.00013440,-0.00016397,-0.00026910,0.00013804,0.00052021,0.00000315,
 0.00711789,-0.01026811,-0.01826911,0.06522754,0.01200455,-0.10568566,-
 0.13181859,-0.00524821,0.00042135,0.00691170,-0.00013957,-0.00032460,0
 .00180434,0.01146263,-0.01365965,-0.00483483,0.00549377,-0.00865391,-0
 .00374714,-0.00097228,0.00040925,-0.00013607,0.00099555,-0.00134832,0.
 00001376,0.00216357,0.00463193,-0.00686393,-0.02532253,0.12538872,0.00
 724257,-0.13364780,-0.24387475,0.00231353,0.00010501,-0.00350487,0.002
 39511,-0.00080375,-0.00177605,0.01579840,-0.00175274,0.00072847,-0.003
 10552,0.00813096,0.00315790,-0.00129471,0.00013566,0.00066729,0.000187
 12,-0.00025978,0.00013400,0.00328657,-0.00974421,-0.00744605,-0.027132
 70,0.13703749,0.25181820,0.00067890,0.00006829,-0.00081916,0.00976760,
 0.00894917,0.00623471,-0.10237538,-0.05604627,-0.07310831,-0.00020364,
 0.00018582,0.00023266,-0.00006031,-0.00012621,0.00012729,-0.03508443,-
 0.00413101,-0.03580635,-0.00002233,-0.00005827,-0.00002579,-0.00010431
 ,0.00000224,0.00010759,-0.00006261,0.00000858,0.00003472,0.12647047,0.
 00069578,0.00165331,-0.00147313,-0.01031938,-0.00710084,-0.02506655,-0
 .05194903,-0.12204036,-0.08022271,-0.00006938,0.00026117,0.00059798,-0
 .00013126,-0.00046022,0.00021219,0.00838430,0.02154833,0.00707801,0.00
 004793,-0.00003141,-0.00003403,0.00001405,-0.00005281,-0.00000354,-0.0
 0019690,-0.00007894,0.00028936,0.04999523,0.11005788,0.00097318,-0.003
 58519,0.00085044,-0.00887934,-0.01132639,-0.00126370,-0.06970732,-0.08
 609853,-0.16755384,0.00046892,0.00310952,-0.00256281,-0.00137248,-0.00
 093360,0.00162327,-0.02433109,-0.00040804,0.00298473,-0.00030744,-0.00
 007490,-0.00003977,-0.00002478,0.00049143,0.00014400,-0.00029494,-0.00
 005160,0.00034091,0.10311077,0.10007411,0.16457428,-0.00026007,0.00007
 540,-0.00111373,-0.34548300,0.02075104,-0.02343402,-0.00790504,-0.0047
 5356,-0.00538175,-0.00117300,0.00030668,0.00000667,0.00031949,-0.00065
 615,0.00055225,-0.00105903,0.00356141,0.00222375,-0.00006440,-0.000166
 66,0.00015163,-0.00007617,-0.00018599,0.00050100,-0.00006129,0.0000151
 6,0.00005344,0.00094095,0.00061096,0.00018024,0.36039179,-0.00235977,0
 .00961525,-0.00857476,0.01096664,-0.03229578,-0.01329907,0.02945199,0.
 00183384,0.00388648,-0.00907653,-0.01266062,0.00938972,0.00335806,-0.0
 0315510,0.00070299,0.00050254,-0.00444113,-0.00338555,0.00032796,-0.00
 057448,0.00029109,0.00012066,-0.00155484,0.00134572,0.00011316,-0.0006
 2320,0.00021320,-0.00162709,-0.00046293,0.00107123,-0.02172545,0.04268
 611,0.00105886,-0.01074955,0.00592011,-0.01928931,-0.01584203,-0.04792
 294,0.01253046,0.00612787,0.00291738,0.00710090,0.01025817,-0.00691845
 ,-0.00288466,0.00280860,-0.00029957,0.00184032,-0.00512045,0.00161787,
 -0.00030286,0.00044774,-0.00021219,0.00025318,0.00101878,-0.00065140,0
 .00034741,0.00113239,-0.00021235,-0.00072573,0.00050719,-0.00028076,0.
 02478803,0.00790111,0.04215990,0.00140728,-0.00186567,0.00570597,-0.10
 200860,-0.03498778,-0.10556230,0.00912360,0.00240276,0.01299797,-0.000
 79357,0.00219869,0.00133565,-0.00084040,-0.00081518,-0.00007252,-0.000
 56069,-0.00151386,-0.00120913,0.00002909,0.00018757,-0.00008895,-0.000
 00881,-0.00015109,0.00067061,-0.00015025,-0.00046123,0.00022146,0.0000
 5510,0.00291770,0.00018428,-0.00557024,-0.01005219,-0.02471659,0.09931
 750,0.00360633,-0.00533152,0.00942633,-0.03555310,-0.07237737,-0.09528
 065,-0.01054327,-0.00734306,-0.02381311,0.00140220,0.00587865,0.004948
 22,-0.00331228,-0.00246947,0.00017682,-0.00247075,0.00196978,0.0033723
 3,0.00022288,0.00060522,-0.00045348,-0.00016528,0.00083049,-0.00003908
 ,-0.00027368,-0.00047696,0.00029661,0.00277952,-0.00329318,-0.00226805
 ,0.00216716,0.00163289,0.00151018,0.04214026,0.08037453,-0.00284573,0.
 00209389,-0.00848072,-0.10534022,-0.10206282,-0.25843468,-0.01038065,-
 0.00035030,-0.00832697,-0.00018026,-0.00359762,-0.00076263,0.00198326,
 0.00165396,0.00010563,0.00328442,0.00172775,0.00243208,-0.00007970,-0.
 00040998,0.00015703,0.00056885,-0.00023020,0.00048559,0.00034637,0.000
 55246,-0.00003267,0.00063760,-0.00195887,0.00118325,0.00147250,0.00045
 785,0.00388242,0.11053356,0.10212388,0.26779167\\-0.00000009,-0.000000
 10,0.00000010,-0.00000019,0.00000008,-0.00000006,0.00000004,0.00000015
 ,0.00000012,-0.00000012,-0.00000004,-0.00000038,0.,-0.00000005,-0.0000
 0009,0.00000019,0.00000018,0.00000060,0.00000027,-0.00000020,-0.000000
 27,-0.00000021,0.00000012,0.00000035,0.00000044,0.00000004,0.00000014,
 0.00000045,-0.00000012,0.,-0.00000021,-0.00000023,-0.00000049,-0.00000
 057,0.00000017,-0.00000002\\\@


 MOST BUREAUCRACIES FUNCTION LIKE A SEPTIC TANK.
 THE LARGE CHUNKS RISE TO THE TOP.
 Job cpu time:       0 days  0 hours  4 minutes 11.1 seconds.
 Elapsed time:       0 days  0 hours  0 minutes 15.9 seconds.
 File lengths (MBytes):  RWF=     27 Int=      0 D2E=      0 Chk=      3 Scr=      1
 Normal termination of Gaussian 16 at Wed Dec 23 22:06:16 2020.
