 Entering Gaussian System, Link 0=g16
 Initial command:
 /apps/cent7/gaussian/g16-B.01/g16-haswell/g16/l1.exe "/scratch/bell/zhao922/YARP/paper-example/KHP-network/pp_0/TS-folder/Gau-19989.inp" -scrdir="/scratch/bell/zhao922/YARP/paper-example/KHP-network/pp_0/TS-folder/"
 Entering Link 1 = /apps/cent7/gaussian/g16-B.01/g16-haswell/g16/l1.exe PID=     19990.
  
 Copyright (c) 1988-2017, Gaussian, Inc.  All Rights Reserved.
  
 This is part of the Gaussian(R) 16 program.  It is based on
 the Gaussian(R) 09 system (copyright 2009, Gaussian, Inc.),
 the Gaussian(R) 03 system (copyright 2003, Gaussian, Inc.),
 the Gaussian(R) 98 system (copyright 1998, Gaussian, Inc.),
 the Gaussian(R) 94 system (copyright 1995, Gaussian, Inc.),
 the Gaussian 92(TM) system (copyright 1992, Gaussian, Inc.),
 the Gaussian 90(TM) system (copyright 1990, Gaussian, Inc.),
 the Gaussian 88(TM) system (copyright 1988, Gaussian, Inc.),
 the Gaussian 86(TM) system (copyright 1986, Carnegie Mellon
 University), and the Gaussian 82(TM) system (copyright 1983,
 Carnegie Mellon University). Gaussian is a federally registered
 trademark of Gaussian, Inc.
  
 This software contains proprietary and confidential information,
 including trade secrets, belonging to Gaussian, Inc.
  
 This software is provided under written license and may be
 used, copied, transmitted, or stored only in accord with that
 written license.
  
 The following legend is applicable only to US Government
 contracts under FAR:
  
                    RESTRICTED RIGHTS LEGEND
  
 Use, reproduction and disclosure by the US Government is
 subject to restrictions as set forth in subparagraphs (a)
 and (c) of the Commercial Computer Software - Restricted
 Rights clause in FAR 52.227-19.
  
 Gaussian, Inc.
 340 Quinnipiac St., Bldg. 40, Wallingford CT 06492
  
  
 ---------------------------------------------------------------
 Warning -- This program may not be used in any manner that
 competes with the business of Gaussian, Inc. or will provide
 assistance to any competitor of Gaussian, Inc.  The licensee
 of this program is prohibited from giving any competitor of
 Gaussian, Inc. access to this program.  By using this program,
 the user acknowledges that Gaussian, Inc. is engaged in the
 business of creating and licensing software in the field of
 computational chemistry and represents and warrants to the
 licensee that it is not a competitor of Gaussian, Inc. and that
 it will not use this program in any manner prohibited above.
 ---------------------------------------------------------------
  

 Cite this work as:
 Gaussian 16, Revision B.01,
 M. J. Frisch, G. W. Trucks, H. B. Schlegel, G. E. Scuseria, 
 M. A. Robb, J. R. Cheeseman, G. Scalmani, V. Barone, 
 G. A. Petersson, H. Nakatsuji, X. Li, M. Caricato, A. V. Marenich, 
 J. Bloino, B. G. Janesko, R. Gomperts, B. Mennucci, H. P. Hratchian, 
 J. V. Ortiz, A. F. Izmaylov, J. L. Sonnenberg, D. Williams-Young, 
 F. Ding, F. Lipparini, F. Egidi, J. Goings, B. Peng, A. Petrone, 
 T. Henderson, D. Ranasinghe, V. G. Zakrzewski, J. Gao, N. Rega, 
 G. Zheng, W. Liang, M. Hada, M. Ehara, K. Toyota, R. Fukuda, 
 J. Hasegawa, M. Ishida, T. Nakajima, Y. Honda, O. Kitao, H. Nakai, 
 T. Vreven, K. Throssell, J. A. Montgomery, Jr., J. E. Peralta, 
 F. Ogliaro, M. J. Bearpark, J. J. Heyd, E. N. Brothers, K. N. Kudin, 
 V. N. Staroverov, T. A. Keith, R. Kobayashi, J. Normand, 
 K. Raghavachari, A. P. Rendell, J. C. Burant, S. S. Iyengar, 
 J. Tomasi, M. Cossi, J. M. Millam, M. Klene, C. Adamo, R. Cammi, 
 J. W. Ochterski, R. L. Martin, K. Morokuma, O. Farkas, 
 J. B. Foresman, and D. J. Fox, Gaussian, Inc., Wallingford CT, 2016.
 
 ******************************************
 Gaussian 16:  ES64L-G16RevB.01 20-Dec-2017
                23-Dec-2020 
 ******************************************
 %NProcShared=16
 Will use up to   16 processors via shared memory.
 %Mem=6GB
 --------------------------------------------------------------
 # B3LYP/6-31+G* OPT=(TS, CALCALL, NOEIGEN, maxcycles=100) Freq
 --------------------------------------------------------------
 1/5=1,6=100,10=4,11=1,18=20,26=3,38=1/1,3;
 2/9=110,12=2,17=6,18=5,40=1/2;
 3/5=1,6=6,7=11,11=2,25=1,30=1,71=2,74=-5,140=1/1,2,3;
 4//1;
 5/5=2,38=5/2;
 8/6=4,10=90,11=11/1;
 11/6=1,8=1,9=11,15=111,16=1/1,2,10;
 10/6=1/2;
 6/7=2,8=2,9=2,10=2,18=1,28=1/1;
 7/10=1,25=1/1,2,3,16;
 1/5=1,6=100,10=4,11=1,18=20,26=3/3(3);
 2/9=110/2;
 7/8=1,9=1,25=1,44=-1/16;
 99//99;
 2/9=110/2;
 3/5=1,6=6,7=11,11=2,25=1,30=1,71=2,74=-5,140=1/1,2,3;
 4/5=5,16=3,69=1/1;
 5/5=2,38=5/2;
 8/6=4,10=90,11=11/1;
 11/6=1,8=1,9=11,15=111,16=1/1,2,10;
 10/6=1/2;
 7/10=1,25=1/1,2,3,16;
 1/5=1,6=100,10=4,11=1,18=20,26=3/3(-8);
 2/9=110/2;
 6/7=2,8=2,9=2,10=2,18=1,19=2,28=1/1;
 7/8=1,9=1,25=1,44=-1/16;
 99//99;
 ----------
 pp_19_0 TS
 ----------
 Symbolic Z-matrix:
 Charge =  0 Multiplicity = 1
 C                     1.81998   1.41078  -1.98555 
 C                     1.09589   0.68998  -0.8615 
 C                     0.62126  -0.58203  -1.2664 
 O                     1.05486   2.32207  -2.74284 
 O                     0.74193   3.44365  -1.91925 
 O                    -0.04704  -1.30906  -0.50968 
 H                     0.32619   4.05814  -2.5458 
 H                     2.69444   1.9319   -1.57035 
 H                     2.14458   0.69194  -2.73993 
 H                     0.76076  -0.8895   -2.31708 
 H                    -0.09585   0.17188  -0.17792 
 H                     1.32581   1.00324   0.14907 
 
 Add virtual bond connecting atoms H11        and C2         Dist= 2.77D+00.
 Add virtual bond connecting atoms H11        and C3         Dist= 2.85D+00.
 Add virtual bond connecting atoms H11        and O6         Dist= 2.87D+00.

 GradGradGradGradGradGradGradGradGradGradGradGradGradGradGradGradGradGrad
 Berny optimization.
 Initialization pass.
                           ----------------------------
                           !    Initial Parameters    !
                           ! (Angstroms and Degrees)  !
 --------------------------                            --------------------------
 ! Name  Definition              Value          Derivative Info.                !
 --------------------------------------------------------------------------------
 ! R1    R(1,2)                  1.519          calculate D2E/DX2 analytically  !
 ! R2    R(1,4)                  1.4104         calculate D2E/DX2 analytically  !
 ! R3    R(1,8)                  1.0994         calculate D2E/DX2 analytically  !
 ! R4    R(1,9)                  1.0914         calculate D2E/DX2 analytically  !
 ! R5    R(2,3)                  1.4168         calculate D2E/DX2 analytically  !
 ! R6    R(2,11)                 1.4683         calculate D2E/DX2 analytically  !
 ! R7    R(2,12)                 1.0827         calculate D2E/DX2 analytically  !
 ! R8    R(3,6)                  1.2441         calculate D2E/DX2 analytically  !
 ! R9    R(3,10)                 1.1036         calculate D2E/DX2 analytically  !
 ! R10   R(3,11)                 1.5058         calculate D2E/DX2 analytically  !
 ! R11   R(4,5)                  1.4262         calculate D2E/DX2 analytically  !
 ! R12   R(5,7)                  0.9711         calculate D2E/DX2 analytically  !
 ! R13   R(6,11)                 1.5184         calculate D2E/DX2 analytically  !
 ! A1    A(2,1,4)              116.4441         calculate D2E/DX2 analytically  !
 ! A2    A(2,1,8)              108.9423         calculate D2E/DX2 analytically  !
 ! A3    A(2,1,9)              109.921          calculate D2E/DX2 analytically  !
 ! A4    A(4,1,8)              109.1468         calculate D2E/DX2 analytically  !
 ! A5    A(4,1,9)              102.4607         calculate D2E/DX2 analytically  !
 ! A6    A(8,1,9)              109.6747         calculate D2E/DX2 analytically  !
 ! A7    A(1,2,3)              111.9777         calculate D2E/DX2 analytically  !
 ! A8    A(1,2,11)             154.0065         calculate D2E/DX2 analytically  !
 ! A9    A(1,2,12)             116.8833         calculate D2E/DX2 analytically  !
 ! A10   A(3,2,12)             126.7027         calculate D2E/DX2 analytically  !
 ! A11   A(11,2,12)             80.7882         calculate D2E/DX2 analytically  !
 ! A12   A(2,3,6)              122.0595         calculate D2E/DX2 analytically  !
 ! A13   A(2,3,10)             118.6776         calculate D2E/DX2 analytically  !
 ! A14   A(6,3,10)             118.9574         calculate D2E/DX2 analytically  !
 ! A15   A(10,3,11)            152.6096         calculate D2E/DX2 analytically  !
 ! A16   A(1,4,5)              108.4857         calculate D2E/DX2 analytically  !
 ! A17   A(4,5,7)              102.649          calculate D2E/DX2 analytically  !
 ! A18   A(2,11,6)             102.4938         calculate D2E/DX2 analytically  !
 ! D1    D(4,1,2,3)             95.4081         calculate D2E/DX2 analytically  !
 ! D2    D(4,1,2,11)            22.4735         calculate D2E/DX2 analytically  !
 ! D3    D(4,1,2,12)          -106.5916         calculate D2E/DX2 analytically  !
 ! D4    D(8,1,2,3)           -140.6753         calculate D2E/DX2 analytically  !
 ! D5    D(8,1,2,11)           146.3901         calculate D2E/DX2 analytically  !
 ! D6    D(8,1,2,12)            17.3251         calculate D2E/DX2 analytically  !
 ! D7    D(9,1,2,3)            -20.4773         calculate D2E/DX2 analytically  !
 ! D8    D(9,1,2,11)           -93.4119         calculate D2E/DX2 analytically  !
 ! D9    D(9,1,2,12)           137.5231         calculate D2E/DX2 analytically  !
 ! D10   D(2,1,4,5)             69.3151         calculate D2E/DX2 analytically  !
 ! D11   D(8,1,4,5)            -54.4963         calculate D2E/DX2 analytically  !
 ! D12   D(9,1,4,5)           -170.7096         calculate D2E/DX2 analytically  !
 ! D13   D(1,2,3,6)           -176.9638         calculate D2E/DX2 analytically  !
 ! D14   D(1,2,3,10)            -3.3798         calculate D2E/DX2 analytically  !
 ! D15   D(12,2,3,6)            27.6649         calculate D2E/DX2 analytically  !
 ! D16   D(12,2,3,10)         -158.751          calculate D2E/DX2 analytically  !
 ! D17   D(1,2,11,6)           102.3263         calculate D2E/DX2 analytically  !
 ! D18   D(12,2,11,6)         -122.2268         calculate D2E/DX2 analytically  !
 ! D19   D(6,3,11,2)           156.9242         calculate D2E/DX2 analytically  !
 ! D20   D(1,4,5,7)            172.7966         calculate D2E/DX2 analytically  !
 --------------------------------------------------------------------------------
 Trust Radius=3.00D-01 FncErr=1.00D-07 GrdErr=1.00D-06 EigMax=2.50D+02 EigMin=1.00D-04
 Number of steps in this run=    100 maximum allowed number of steps=    100.
 Search for a saddle point of order  1.
 GradGradGradGradGradGradGradGradGradGradGradGradGradGradGradGradGradGrad

                          Input orientation:                          
 ---------------------------------------------------------------------
 Center     Atomic      Atomic             Coordinates (Angstroms)
 Number     Number       Type             X           Y           Z
 ---------------------------------------------------------------------
      1          6           0        1.819975    1.410776   -1.985554
      2          6           0        1.095889    0.689982   -0.861497
      3          6           0        0.621256   -0.582028   -1.266397
      4          8           0        1.054864    2.322074   -2.742842
      5          8           0        0.741931    3.443646   -1.919253
      6          8           0       -0.047038   -1.309063   -0.509683
      7          1           0        0.326185    4.058139   -2.545798
      8          1           0        2.694435    1.931904   -1.570349
      9          1           0        2.144577    0.691941   -2.739929
     10          1           0        0.760758   -0.889500   -2.317083
     11          1           0       -0.095845    0.171879   -0.177916
     12          1           0        1.325814    1.003240    0.149069
 ---------------------------------------------------------------------
                    Distance matrix (angstroms):
                    1          2          3          4          5
     1  C    0.000000
     2  C    1.518996   0.000000
     3  C    2.434211   1.416767   0.000000
     4  O    1.410441   2.490957   3.286596   0.000000
     5  O    2.301985   2.970993   4.080053   1.426236   0.000000
     6  O    3.614064   2.329428   1.244111   4.402993   5.019721
     7  H    3.090924   3.843670   4.822352   1.893072   0.971084
     8  H    1.099386   2.144806   3.272661   2.053087   2.493866
     9  H    1.091408   2.151338   2.472812   1.960820   3.195748
    10  H    2.554040   2.173892   1.103604   3.252995   4.351411
    11  H    2.910805   1.468313   1.505789   3.539253   3.799813
    12  H    2.228653   1.082700   2.238978   3.189966   3.251839
                    6          7          8          9         10
     6  O    0.000000
     7  H    5.752557   0.000000
     8  H    4.375449   3.328811   0.000000
     9  H    3.712303   3.830865   1.791025   0.000000
    10  H    2.023675   4.971951   3.501005   2.143527   0.000000
    11  H    1.518434   4.570338   3.580813   3.442944   2.536992
    12  H    2.768650   4.194517   2.385778   3.018872   3.159693
                   11         12
    11  H    0.000000
    12  H    1.679046   0.000000
 Stoichiometry    C3H6O3
 Framework group  C1[X(C3H6O3)]
 Deg. of freedom    30
 Full point group                 C1      NOp   1
 Largest Abelian subgroup         C1      NOp   1
 Largest concise Abelian subgroup C1      NOp   1
                         Standard orientation:                         
 ---------------------------------------------------------------------
 Center     Atomic      Atomic             Coordinates (Angstroms)
 Number     Number       Type             X           Y           Z
 ---------------------------------------------------------------------
      1          6           0       -0.618555    0.782628    0.410431
      2          6           0        0.572657   -0.142926    0.588511
      3          6           0        1.675415    0.252913   -0.208022
      4          8           0       -1.593393    0.378744   -0.525471
      5          8           0       -2.270592   -0.764873   -0.008080
      6          8           0        2.730424   -0.405180   -0.249044
      7          1           0       -2.987068   -0.896333   -0.650252
      8          1           0       -1.098860    0.938069    1.387055
      9          1           0       -0.287632    1.741210    0.006967
     10          1           0        1.554809    1.112196   -0.889951
     11          1           0        1.500859   -1.196783    0.159827
     12          1           0        0.609272   -0.723587    1.501600
 ---------------------------------------------------------------------
 Rotational constants (GHZ):          10.4977300           1.5920870           1.5291039
 Standard basis: 6-31+G(d) (6D, 7F)
 There are   126 symmetry adapted cartesian basis functions of A   symmetry.
 There are   126 symmetry adapted basis functions of A   symmetry.
   126 basis functions,   216 primitive gaussians,   126 cartesian basis functions
    24 alpha electrons       24 beta electrons
       nuclear repulsion energy       235.3623294588 Hartrees.
 NAtoms=   12 NActive=   12 NUniq=   12 SFac= 1.00D+00 NAtFMM=   60 NAOKFM=F Big=F
 Integral buffers will be    131072 words long.
 Raffenetti 2 integral format.
 Two-electron integral symmetry is turned on.
 One-electron integrals computed using PRISM.
 NBasis=   126 RedAO= T EigKep=  1.23D-04  NBF=   126
 NBsUse=   126 1.00D-06 EigRej= -1.00D+00 NBFU=   126
 ExpMin= 4.38D-02 ExpMax= 5.48D+03 ExpMxC= 8.25D+02 IAcc=3 IRadAn=         5 AccDes= 0.00D+00
 Harris functional with IExCor=  402 and IRadAn=       5 diagonalized for initial guess.
 HarFok:  IExCor=  402 AccDes= 0.00D+00 IRadAn=         5 IDoV= 1 UseB2=F ITyADJ=14
 ICtDFT=  3500011 ScaDFX=  1.000000  1.000000  1.000000  1.000000
 FoFCou: FMM=F IPFlag=           0 FMFlag=      100000 FMFlg1=           0
         NFxFlg=           0 DoJE=T BraDBF=F KetDBF=T FulRan=T
         wScrn=  0.000000 ICntrl=       500 IOpCl=  0 I1Cent=   200000004 NGrid=           0
         NMat0=    1 NMatS0=      1 NMatT0=    0 NMatD0=    1 NMtDS0=    0 NMtDT0=    0
 Petite list used in FoFCou.
 Keep R1 ints in memory in canonical form, NReq=47237537.
 Requested convergence on RMS density matrix=1.00D-08 within 128 cycles.
 Requested convergence on MAX density matrix=1.00D-06.
 Requested convergence on             energy=1.00D-06.
 No special actions if energy rises.
 SCF Done:  E(RB3LYP) =  -343.357516139     A.U. after   14 cycles
            NFock= 14  Conv=0.64D-08     -V/T= 2.0086
 DoSCS=F DFT=T ScalE2(SS,OS)=  1.000000  1.000000
 Range of M.O.s used for correlation:     1   126
 NBasis=   126 NAE=    24 NBE=    24 NFC=     0 NFV=     0
 NROrb=    126 NOA=    24 NOB=    24 NVA=   102 NVB=   102

 **** Warning!!: The largest alpha MO coefficient is  0.32414980D+02

 Symmetrizing basis deriv contribution to polar:
 IMax=3 JMax=2 DiffMx= 0.00D+00
 G2DrvN: will do    13 centers at a time, making    1 passes.
 Calling FoFCou, ICntrl=  3107 FMM=F I1Cent=   0 AccDes= 0.00D+00.
 End of G2Drv F.D. properties file   721 does not exist.
 End of G2Drv F.D. properties file   722 does not exist.
 End of G2Drv F.D. properties file   788 does not exist.
          IDoAtm=111111111111
          Differentiating once with respect to electric field.
                with respect to dipole field.
          Differentiating once with respect to nuclear coordinates.
 Keep R1 ints in memory in canonical form, NReq=47193559.
          There are    39 degrees of freedom in the 1st order CPHF.  IDoFFX=6 NUNeed=     3.
     36 vectors produced by pass  0 Test12= 6.28D-15 2.56D-09 XBig12= 7.18D+01 4.06D+00.
 AX will form    36 AO Fock derivatives at one time.
     36 vectors produced by pass  1 Test12= 6.28D-15 2.56D-09 XBig12= 2.70D+01 8.56D-01.
     36 vectors produced by pass  2 Test12= 6.28D-15 2.56D-09 XBig12= 3.23D-01 8.15D-02.
     36 vectors produced by pass  3 Test12= 6.28D-15 2.56D-09 XBig12= 2.65D-03 6.74D-03.
     36 vectors produced by pass  4 Test12= 6.28D-15 2.56D-09 XBig12= 4.00D-06 2.55D-04.
     27 vectors produced by pass  5 Test12= 6.28D-15 2.56D-09 XBig12= 3.72D-09 9.58D-06.
      3 vectors produced by pass  6 Test12= 6.28D-15 2.56D-09 XBig12= 3.39D-12 2.50D-07.
      2 vectors produced by pass  7 Test12= 6.28D-15 2.56D-09 XBig12= 2.65D-15 5.89D-09.
 InvSVY:  IOpt=1 It=  1 EMax= 2.66D-15
 Solved reduced A of dimension   212 with    39 vectors.
 Isotropic polarizability for W=    0.000000       55.23 Bohr**3.
 End of Minotr F.D. properties file   721 does not exist.
 End of Minotr F.D. properties file   722 does not exist.
 End of Minotr F.D. properties file   788 does not exist.

 **********************************************************************

            Population analysis using the SCF Density.

 **********************************************************************

 Orbital symmetries:
       Occupied  (A) (A) (A) (A) (A) (A) (A) (A) (A) (A) (A) (A)
                 (A) (A) (A) (A) (A) (A) (A) (A) (A) (A) (A) (A)
       Virtual   (A) (A) (A) (A) (A) (A) (A) (A) (A) (A) (A) (A)
                 (A) (A) (A) (A) (A) (A) (A) (A) (A) (A) (A) (A)
                 (A) (A) (A) (A) (A) (A) (A) (A) (A) (A) (A) (A)
                 (A) (A) (A) (A) (A) (A) (A) (A) (A) (A) (A) (A)
                 (A) (A) (A) (A) (A) (A) (A) (A) (A) (A) (A) (A)
                 (A) (A) (A) (A) (A) (A) (A) (A) (A) (A) (A) (A)
                 (A) (A) (A) (A) (A) (A) (A) (A) (A) (A) (A) (A)
                 (A) (A) (A) (A) (A) (A) (A) (A) (A) (A) (A) (A)
                 (A) (A) (A) (A) (A) (A)
 The electronic state is 1-A.
 Alpha  occ. eigenvalues --  -19.22195 -19.22169 -19.16587 -10.30114 -10.26569
 Alpha  occ. eigenvalues --  -10.21178  -1.14502  -1.07477  -0.93600  -0.79832
 Alpha  occ. eigenvalues --   -0.67345  -0.61406  -0.56151  -0.51441  -0.49513
 Alpha  occ. eigenvalues --   -0.48648  -0.44167  -0.43360  -0.41893  -0.38004
 Alpha  occ. eigenvalues --   -0.35876  -0.29941  -0.25914  -0.25156
 Alpha virt. eigenvalues --   -0.06546  -0.00684   0.00221   0.01476   0.01768
 Alpha virt. eigenvalues --    0.03044   0.05171   0.06592   0.07132   0.07535
 Alpha virt. eigenvalues --    0.08733   0.10284   0.12354   0.12721   0.12973
 Alpha virt. eigenvalues --    0.16211   0.17640   0.19302   0.20202   0.20998
 Alpha virt. eigenvalues --    0.21472   0.22923   0.25112   0.25287   0.26312
 Alpha virt. eigenvalues --    0.27572   0.28416   0.28830   0.29791   0.30282
 Alpha virt. eigenvalues --    0.32694   0.34175   0.35392   0.37925   0.38625
 Alpha virt. eigenvalues --    0.41441   0.62254   0.64302   0.68108   0.69009
 Alpha virt. eigenvalues --    0.70996   0.75348   0.79896   0.82889   0.86702
 Alpha virt. eigenvalues --    0.93490   0.93618   0.95734   0.98019   1.03126
 Alpha virt. eigenvalues --    1.03426   1.09032   1.10346   1.12388   1.15655
 Alpha virt. eigenvalues --    1.18664   1.22553   1.24028   1.27035   1.29594
 Alpha virt. eigenvalues --    1.31473   1.32995   1.40815   1.42552   1.47627
 Alpha virt. eigenvalues --    1.52576   1.53706   1.57506   1.61887   1.66848
 Alpha virt. eigenvalues --    1.74177   1.74401   1.76175   1.78198   1.83625
 Alpha virt. eigenvalues --    1.85869   1.92024   1.95503   2.01404   2.04610
 Alpha virt. eigenvalues --    2.09207   2.14386   2.24416   2.29675   2.36789
 Alpha virt. eigenvalues --    2.42019   2.42482   2.47926   2.52149   2.58976
 Alpha virt. eigenvalues --    2.64467   2.71288   2.86428   2.95483   3.07100
 Alpha virt. eigenvalues --    3.11393   3.99316   4.11211   4.21508   4.26243
 Alpha virt. eigenvalues --    4.40117   4.46337
          Condensed to atoms (all electrons):
               1          2          3          4          5          6
     1  C    5.812422  -0.580185   0.056272   0.128877  -0.028096   0.038168
     2  C   -0.580185   6.940957   0.050894  -0.028494   0.016943  -0.213742
     3  C    0.056272   0.050894   5.229830  -0.041479   0.008444   0.217835
     4  O    0.128877  -0.028494  -0.041479   8.120195   0.042312   0.001894
     5  O   -0.028096   0.016943   0.008444   0.042312   8.312943  -0.000692
     6  O    0.038168  -0.213742   0.217835   0.001894  -0.000692   8.453136
     7  H    0.013890  -0.004165  -0.001081  -0.026872   0.193763   0.000004
     8  H    0.405161  -0.051792  -0.006548  -0.044933   0.000933  -0.001153
     9  H    0.443654  -0.101119   0.009112  -0.052385   0.009424   0.000744
    10  H    0.071155  -0.218204   0.428900   0.000735  -0.000321  -0.056358
    11  H    0.073954  -0.096653   0.173609  -0.003768   0.001015  -0.013795
    12  H   -0.015511   0.339708  -0.030704   0.005572  -0.001148   0.002897
               7          8          9         10         11         12
     1  C    0.013890   0.405161   0.443654   0.071155   0.073954  -0.015511
     2  C   -0.004165  -0.051792  -0.101119  -0.218204  -0.096653   0.339708
     3  C   -0.001081  -0.006548   0.009112   0.428900   0.173609  -0.030704
     4  O   -0.026872  -0.044933  -0.052385   0.000735  -0.003768   0.005572
     5  O    0.193763   0.000933   0.009424  -0.000321   0.001015  -0.001148
     6  O    0.000004  -0.001153   0.000744  -0.056358  -0.013795   0.002897
     7  H    0.341913   0.000070  -0.000297   0.000003  -0.000002   0.000005
     8  H    0.000070   0.528438  -0.029166   0.000230   0.000491  -0.005084
     9  H   -0.000297  -0.029166   0.508486   0.002672   0.000878   0.002508
    10  H    0.000003   0.000230   0.002672   0.578659   0.016090   0.001704
    11  H   -0.000002   0.000491   0.000878   0.016090   0.518980  -0.005603
    12  H    0.000005  -0.005084   0.002508   0.001704  -0.005603   0.451711
 Mulliken charges:
               1
     1  C   -0.419760
     2  C   -0.054146
     3  C   -0.095084
     4  O   -0.101655
     5  O   -0.555518
     6  O   -0.428937
     7  H    0.482770
     8  H    0.203354
     9  H    0.205490
    10  H    0.174735
    11  H    0.334805
    12  H    0.253947
 Sum of Mulliken charges =  -0.00000
 Mulliken charges with hydrogens summed into heavy atoms:
               1
     1  C   -0.010916
     2  C    0.534606
     3  C    0.079651
     4  O   -0.101655
     5  O   -0.072748
     6  O   -0.428937
 APT charges:
               1
     1  C    0.672545
     2  C   -0.589890
     3  C    0.726483
     4  O   -0.389193
     5  O   -0.341025
     6  O   -0.806692
     7  H    0.288188
     8  H   -0.054580
     9  H   -0.012139
    10  H   -0.004839
    11  H    0.384696
    12  H    0.126446
 Sum of APT charges =  -0.00000
 APT charges with hydrogens summed into heavy atoms:
               1
     1  C    0.605826
     2  C   -0.078747
     3  C    0.721644
     4  O   -0.389193
     5  O   -0.052838
     6  O   -0.806692
 Electronic spatial extent (au):  <R**2>=            755.8947
 Charge=             -0.0000 electrons
 Dipole moment (field-independent basis, Debye):
    X=             -2.2586    Y=              0.7455    Z=              0.3472  Tot=              2.4036
 Quadrupole moment (field-independent basis, Debye-Ang):
   XX=            -42.9255   YY=            -34.0935   ZZ=            -35.4295
   XY=              3.4339   XZ=              2.9260   YZ=              0.0284
 Traceless Quadrupole moment (field-independent basis, Debye-Ang):
   XX=             -5.4427   YY=              3.3893   ZZ=              2.0534
   XY=              3.4339   XZ=              2.9260   YZ=              0.0284
 Octapole moment (field-independent basis, Debye-Ang**2):
  XXX=            -68.4923  YYY=             -0.4241  ZZZ=             -1.7947  XYY=             -1.6374
  XXY=             -4.2133  XXZ=             -8.9212  XZZ=             -4.5590  YZZ=             -2.3350
  YYZ=             -1.7690  XYZ=             -7.3941
 Hexadecapole moment (field-independent basis, Debye-Ang**3):
 XXXX=           -744.6908 YYYY=           -117.8252 ZZZZ=            -86.0840 XXXY=             57.8389
 XXXZ=             50.2425 YYYX=              3.2376 YYYZ=             -1.2708 ZZZX=              2.3358
 ZZZY=             -1.7088 XXYY=           -130.1694 XXZZ=           -129.3152 YYZZ=            -33.3768
 XXYZ=              9.8332 YYXZ=              2.8845 ZZXY=              3.3116
 N-N= 2.353623294588D+02 E-N=-1.275187433337D+03  KE= 3.404361348469D+02
  Exact polarizability:  71.815  -0.793  50.737  -5.089  -2.383  43.136
 Approx polarizability: 103.836  -2.877  76.637 -12.473  -5.534  61.518
 Calling FoFJK, ICntrl=    100127 FMM=F ISym2X=0 I1Cent= 0 IOpClX= 0 NMat=1 NMatS=1 NMatT=0.
 ***** Axes restored to original set *****
 -------------------------------------------------------------------
 Center     Atomic                   Forces (Hartrees/Bohr)
 Number     Number              X              Y              Z
 -------------------------------------------------------------------
      1        6          -0.008024824    0.022454829    0.015774561
      2        6          -0.013569734   -0.013807890   -0.010957974
      3        6           0.030918230    0.003229228   -0.008665383
      4        8          -0.003034619   -0.007142386   -0.030081022
      5        8           0.000485225    0.012347109    0.024528971
      6        8          -0.028264985   -0.017071145    0.025656011
      7        1           0.000456301   -0.003527091   -0.006024666
      8        1           0.000604296   -0.000819120   -0.002047882
      9        1           0.000793191   -0.000290755   -0.000961727
     10        1           0.003849341   -0.001595497   -0.000390528
     11        1           0.002581524    0.018605319   -0.014692319
     12        1           0.013206056   -0.012382600    0.007861960
 -------------------------------------------------------------------
 Cartesian Forces:  Max     0.030918230 RMS     0.013797491
 FormGI is forming the generalized inverse of G from B-inverse, IUseBI=4.

 GradGradGradGradGradGradGradGradGradGradGradGradGradGradGradGradGradGrad
 Berny optimization.
 Internal  Forces:  Max     0.031003195 RMS     0.008157519
 Search for a saddle point.
 Step number   1 out of a maximum of  100
 All quantities printed in internal units (Hartrees-Bohrs-Radians)
 Swapping is turned off.
 Second derivative matrix not updated -- analytic derivatives used.
 ITU=  0
     Eigenvalues ---   -0.14577  -0.00417  -0.00252   0.00006   0.00096
     Eigenvalues ---    0.00855   0.02122   0.03265   0.04182   0.04785
     Eigenvalues ---    0.05397   0.05622   0.07754   0.10383   0.13584
     Eigenvalues ---    0.14171   0.16192   0.19281   0.21518   0.25652
     Eigenvalues ---    0.28634   0.32145   0.32263   0.34194   0.36505
     Eigenvalues ---    0.36909   0.38123   0.41652   0.50712   0.60267
 Eigenvectors required to have negative eigenvalues:
                          R13       R6        A8        R5        A15
   1                    0.69244  -0.53690  -0.21301   0.17616  -0.17081
                          D18       R8        D17       A11       D19
   1                    0.15376  -0.15152   0.13308   0.12430  -0.08811
 RFO step:  Lambda0=7.751813592D-04 Lambda=-2.74053899D-02.
 Linear search not attempted -- option 19 set.
 Maximum step size (   0.300) exceeded in Quadratic search.
    -- Step size scaled by   0.779
 Iteration  1 RMS(Cart)=  0.12284980 RMS(Int)=  0.05320785
 Iteration  2 RMS(Cart)=  0.05130588 RMS(Int)=  0.02274590
 Iteration  3 RMS(Cart)=  0.03521554 RMS(Int)=  0.00437411
 Iteration  4 RMS(Cart)=  0.00248795 RMS(Int)=  0.00332480
 Iteration  5 RMS(Cart)=  0.00000607 RMS(Int)=  0.00332480
 Iteration  6 RMS(Cart)=  0.00000000 RMS(Int)=  0.00332480
 Variable       Old X    -DE/DX   Delta X   Delta X   Delta X     New X
                                 (Linear)    (Quad)   (Total)
    R1        2.87049   0.00589   0.00000  -0.00736  -0.00736   2.86313
    R2        2.66535   0.00844   0.00000   0.02199   0.02199   2.68734
    R3        2.07754  -0.00068   0.00000  -0.00266  -0.00266   2.07487
    R4        2.06246   0.00109   0.00000   0.00537   0.00537   2.06783
    R5        2.67730   0.00646   0.00000  -0.01266  -0.01632   2.66098
    R6        2.77471  -0.00644   0.00000   0.00599   0.00154   2.77624
    R7        2.04601   0.00656   0.00000   0.01216   0.01216   2.05816
    R8        2.35103   0.03100   0.00000   0.05123   0.05289   2.40392
    R9        2.08551   0.00130   0.00000  -0.00540  -0.00540   2.08011
   R10        2.84553  -0.00468   0.00000   0.03294   0.03903   2.88456
   R11        2.69520   0.01742   0.00000   0.05380   0.05380   2.74899
   R12        1.83508   0.00146   0.00000   0.00318   0.00318   1.83826
   R13        2.86942   0.00432   0.00000  -0.18450  -0.18430   2.68513
    A1        2.03233   0.00512   0.00000  -0.00879  -0.00875   2.02359
    A2        1.90140   0.00033   0.00000   0.03071   0.03066   1.93206
    A3        1.91848  -0.00091   0.00000   0.00805   0.00798   1.92646
    A4        1.90497  -0.00216   0.00000  -0.01204  -0.01202   1.89295
    A5        1.78828  -0.00205   0.00000  -0.00396  -0.00395   1.78433
    A6        1.91418  -0.00069   0.00000  -0.01775  -0.01797   1.89622
    A7        1.95438   0.00412   0.00000   0.05500   0.06968   2.02406
    A8        2.68792  -0.00796   0.00000  -0.08754  -0.09210   2.59582
    A9        2.04000   0.00400   0.00000   0.03133   0.02534   2.06533
   A10        2.21138  -0.00840   0.00000  -0.09946  -0.10680   2.10458
   A11        1.41002   0.00101   0.00000  -0.00081   0.00266   1.41268
   A12        2.13034  -0.00417   0.00000  -0.07689  -0.08097   2.04937
   A13        2.07132   0.00151   0.00000   0.06637   0.06773   2.13904
   A14        2.07620   0.00179   0.00000   0.00367   0.00496   2.08116
   A15        2.66354  -0.00354   0.00000   0.04881   0.04631   2.70985
   A16        1.89343  -0.01674   0.00000  -0.05107  -0.05107   1.84236
   A17        1.79156  -0.01255   0.00000  -0.04522  -0.04522   1.74635
   A18        1.78885   0.01633   0.00000   0.04544   0.04201   1.83087
    D1        1.66519   0.00242   0.00000   0.07832   0.07689   1.74208
    D2        0.39224  -0.00326   0.00000  -0.08647  -0.08456   0.30768
    D3       -1.86037  -0.00030   0.00000   0.02340   0.02292  -1.83745
    D4       -2.45525   0.00363   0.00000   0.08106   0.07958  -2.37567
    D5        2.55499  -0.00205   0.00000  -0.08374  -0.08187   2.47312
    D6        0.30238   0.00090   0.00000   0.02614   0.02560   0.32798
    D7       -0.35740   0.00244   0.00000   0.08322   0.08184  -0.27556
    D8       -1.63034  -0.00324   0.00000  -0.08158  -0.07961  -1.70995
    D9        2.40023  -0.00029   0.00000   0.02830   0.02787   2.42810
   D10        1.20978   0.00060   0.00000   0.03045   0.03043   1.24021
   D11       -0.95114  -0.00190   0.00000   0.00572   0.00578  -0.94536
   D12       -2.97944   0.00080   0.00000   0.03290   0.03286  -2.94658
   D13       -3.08860   0.01439   0.00000   0.23243   0.22960  -2.85900
   D14       -0.05899   0.00542   0.00000   0.16133   0.16350   0.10451
   D15        0.48284   0.01368   0.00000   0.25347   0.24821   0.73105
   D16       -2.77073   0.00471   0.00000   0.18237   0.18211  -2.58862
   D17        1.78593   0.01424   0.00000   0.19378   0.18865   1.97458
   D18       -2.13326   0.01404   0.00000   0.12148   0.12075  -2.01251
   D19        2.73884   0.00226   0.00000   0.06332   0.06872   2.80756
   D20        3.01587  -0.00040   0.00000   0.55288   0.55288  -2.71443
         Item               Value     Threshold  Converged?
 Maximum Force            0.031003     0.000450     NO 
 RMS     Force            0.008158     0.000300     NO 
 Maximum Displacement     0.519033     0.001800     NO 
 RMS     Displacement     0.176444     0.001200     NO 
 Predicted change in Energy=-1.799379D-02
 GradGradGradGradGradGradGradGradGradGradGradGradGradGradGradGradGradGrad

                          Input orientation:                          
 ---------------------------------------------------------------------
 Center     Atomic      Atomic             Coordinates (Angstroms)
 Number     Number       Type             X           Y           Z
 ---------------------------------------------------------------------
      1          6           0        1.859706    1.419162   -2.035850
      2          6           0        1.111690    0.698089   -0.933097
      3          6           0        0.658612   -0.599026   -1.241394
      4          8           0        1.106694    2.367786   -2.781099
      5          8           0        0.881176    3.484434   -1.876442
      6          8           0       -0.226741   -1.106291   -0.481745
      7          1           0        0.076730    3.863058   -2.271137
      8          1           0        2.751727    1.919689   -1.636697
      9          1           0        2.172409    0.711692   -2.809857
     10          1           0        0.913509   -1.107089   -2.184021
     11          1           0       -0.171425    0.305900   -0.334655
     12          1           0        1.308715    0.985587    0.098763
 ---------------------------------------------------------------------
                    Distance matrix (angstroms):
                    1          2          3          4          5
     1  C    0.000000
     2  C    1.515103   0.000000
     3  C    2.479288   1.408131   0.000000
     4  O    1.422080   2.490587   3.372453   0.000000
     5  O    2.290913   2.950721   4.138534   1.454704   0.000000
     6  O    3.625799   2.291485   1.272100   4.374276   4.924167
     7  H    3.034302   3.588666   4.616184   1.885928   0.972766
     8  H    1.097976   2.162656   3.298684   2.053431   2.450482
     9  H    1.094250   2.155815   2.543548   1.969574   3.197912
    10  H    2.701701   2.205165   1.100747   3.531087   4.601927
    11  H    2.873832   1.469126   1.526444   3.445293   3.686212
    12  H    2.246809   1.089133   2.174777   3.200764   3.213793
                    6          7          8          9         10
     6  O    0.000000
     7  H    5.290412   0.000000
     8  H    4.400198   3.366720   0.000000
     9  H    3.805403   3.822721   1.780778   0.000000
    10  H    2.048882   5.040848   3.583294   2.298797   0.000000
    11  H    1.420908   4.057699   3.583915   3.432907   2.567834
    12  H    2.659054   3.926074   2.442673   3.046482   3.121952
                   11         12
    11  H    0.000000
    12  H    1.685420   0.000000
 Stoichiometry    C3H6O3
 Framework group  C1[X(C3H6O3)]
 Deg. of freedom    30
 Full point group                 C1      NOp   1
 Largest Abelian subgroup         C1      NOp   1
 Largest concise Abelian subgroup C1      NOp   1
                         Standard orientation:                         
 ---------------------------------------------------------------------
 Center     Atomic      Atomic             Coordinates (Angstroms)
 Number     Number       Type             X           Y           Z
 ---------------------------------------------------------------------
      1          6           0       -0.649025    0.843722    0.320512
      2          6           0        0.566681   -0.028331    0.559510
      3          6           0        1.729415    0.326534   -0.151092
      4          8           0       -1.614605    0.329501   -0.588082
      5          8           0       -2.250066   -0.780594    0.104769
      6          8           0        2.657036   -0.540626   -0.227177
      7          1           0       -2.560907   -1.300395   -0.656453
      8          1           0       -1.152476    1.075878    1.268241
      9          1           0       -0.356120    1.782595   -0.159182
     10          1           0        1.793131    1.237428   -0.765793
     11          1           0        1.418278   -1.142682    0.122091
     12          1           0        0.636748   -0.570618    1.501436
 ---------------------------------------------------------------------
 Rotational constants (GHZ):           9.7258303           1.6255558           1.5343052
 Standard basis: 6-31+G(d) (6D, 7F)
 There are   126 symmetry adapted cartesian basis functions of A   symmetry.
 There are   126 symmetry adapted basis functions of A   symmetry.
   126 basis functions,   216 primitive gaussians,   126 cartesian basis functions
    24 alpha electrons       24 beta electrons
       nuclear repulsion energy       234.5983885739 Hartrees.
 NAtoms=   12 NActive=   12 NUniq=   12 SFac= 1.00D+00 NAtFMM=   60 NAOKFM=F Big=F
 Integral buffers will be    131072 words long.
 Raffenetti 2 integral format.
 Two-electron integral symmetry is turned on.
 One-electron integrals computed using PRISM.
 NBasis=   126 RedAO= T EigKep=  1.03D-04  NBF=   126
 NBsUse=   126 1.00D-06 EigRej= -1.00D+00 NBFU=   126
 Initial guess from the checkpoint file:  "/scratch/bell/zhao922/YARP/paper-example/KHP-network/pp_0/TS-folder/Gau-19990.chk"
 B after Tr=    -0.000000    0.000000   -0.000000
         Rot=    0.998869    0.047464    0.002498   -0.001403 Ang=   5.45 deg.
 ExpMin= 4.38D-02 ExpMax= 5.48D+03 ExpMxC= 8.25D+02 IAcc=3 IRadAn=         5 AccDes= 0.00D+00
 Harris functional with IExCor=  402 and IRadAn=       5 diagonalized for initial guess.
 HarFok:  IExCor=  402 AccDes= 0.00D+00 IRadAn=         5 IDoV= 1 UseB2=F ITyADJ=14
 ICtDFT=  3500011 ScaDFX=  1.000000  1.000000  1.000000  1.000000
 FoFCou: FMM=F IPFlag=           0 FMFlag=      100000 FMFlg1=           0
         NFxFlg=           0 DoJE=T BraDBF=F KetDBF=T FulRan=T
         wScrn=  0.000000 ICntrl=       500 IOpCl=  0 I1Cent=   200000004 NGrid=           0
         NMat0=    1 NMatS0=      1 NMatT0=    0 NMatD0=    1 NMtDS0=    0 NMtDT0=    0
 Petite list used in FoFCou.
 Keep R1 ints in memory in canonical form, NReq=47237537.
 Requested convergence on RMS density matrix=1.00D-08 within 128 cycles.
 Requested convergence on MAX density matrix=1.00D-06.
 Requested convergence on             energy=1.00D-06.
 No special actions if energy rises.
 SCF Done:  E(RB3LYP) =  -343.374721483     A.U. after   14 cycles
            NFock= 14  Conv=0.32D-08     -V/T= 2.0089
 DoSCS=F DFT=T ScalE2(SS,OS)=  1.000000  1.000000
 Range of M.O.s used for correlation:     1   126
 NBasis=   126 NAE=    24 NBE=    24 NFC=     0 NFV=     0
 NROrb=    126 NOA=    24 NOB=    24 NVA=   102 NVB=   102

 **** Warning!!: The largest alpha MO coefficient is  0.29019568D+02

 Symmetrizing basis deriv contribution to polar:
 IMax=3 JMax=2 DiffMx= 0.00D+00
 G2DrvN: will do    13 centers at a time, making    1 passes.
 Calling FoFCou, ICntrl=  3107 FMM=F I1Cent=   0 AccDes= 0.00D+00.
 End of G2Drv F.D. properties file   721 does not exist.
 End of G2Drv F.D. properties file   722 does not exist.
 End of G2Drv F.D. properties file   788 does not exist.
          IDoAtm=111111111111
          Differentiating once with respect to electric field.
                with respect to dipole field.
          Differentiating once with respect to nuclear coordinates.
 Keep R1 ints in memory in canonical form, NReq=47193559.
          There are    39 degrees of freedom in the 1st order CPHF.  IDoFFX=6 NUNeed=     3.
     36 vectors produced by pass  0 Test12= 6.28D-15 2.56D-09 XBig12= 6.69D+01 3.12D+00.
 AX will form    36 AO Fock derivatives at one time.
     36 vectors produced by pass  1 Test12= 6.28D-15 2.56D-09 XBig12= 2.32D+01 7.10D-01.
     36 vectors produced by pass  2 Test12= 6.28D-15 2.56D-09 XBig12= 2.53D-01 8.60D-02.
     36 vectors produced by pass  3 Test12= 6.28D-15 2.56D-09 XBig12= 1.51D-03 6.32D-03.
     36 vectors produced by pass  4 Test12= 6.28D-15 2.56D-09 XBig12= 1.97D-06 1.86D-04.
     27 vectors produced by pass  5 Test12= 6.28D-15 2.56D-09 XBig12= 1.81D-09 5.30D-06.
      4 vectors produced by pass  6 Test12= 6.28D-15 2.56D-09 XBig12= 1.54D-12 1.38D-07.
      2 vectors produced by pass  7 Test12= 6.28D-15 2.56D-09 XBig12= 1.09D-15 4.25D-09.
 InvSVY:  IOpt=1 It=  1 EMax= 3.11D-15
 Solved reduced A of dimension   213 with    39 vectors.
 Isotropic polarizability for W=    0.000000       54.77 Bohr**3.
 End of Minotr F.D. properties file   721 does not exist.
 End of Minotr F.D. properties file   722 does not exist.
 End of Minotr F.D. properties file   788 does not exist.
 Calling FoFJK, ICntrl=    100127 FMM=F ISym2X=0 I1Cent= 0 IOpClX= 0 NMat=1 NMatS=1 NMatT=0.
 ***** Axes restored to original set *****
 -------------------------------------------------------------------
 Center     Atomic                   Forces (Hartrees/Bohr)
 Number     Number              X              Y              Z
 -------------------------------------------------------------------
      1        6          -0.003442318    0.010479867    0.008287875
      2        6          -0.006741043   -0.007664080   -0.009084250
      3        6           0.010838315   -0.002515987   -0.003556565
      4        8          -0.001443526   -0.001183847   -0.007166669
      5        8           0.000796536    0.004719786    0.004739700
      6        8          -0.012226618    0.001195195    0.007468551
      7        1          -0.000873008   -0.000988670   -0.000662796
      8        1           0.000103167   -0.000218386   -0.001102864
      9        1           0.000450314   -0.000647515   -0.000501046
     10        1           0.004416593   -0.003459066    0.002905598
     11        1          -0.000111937    0.006672947   -0.003877297
     12        1           0.008233524   -0.006390244    0.002549763
 -------------------------------------------------------------------
 Cartesian Forces:  Max     0.012226618 RMS     0.005373236
 FormGI is forming the generalized inverse of G from B-inverse, IUseBI=4.

 GradGradGradGradGradGradGradGradGradGradGradGradGradGradGradGradGradGrad
 Berny optimization.
 Internal  Forces:  Max     0.009587795 RMS     0.003470084
 Search for a saddle point.
 Step number   2 out of a maximum of  100
 All quantities printed in internal units (Hartrees-Bohrs-Radians)
 Swapping is turned off.
 Second derivative matrix not updated -- analytic derivatives used.
 ITU=  0  0
     Eigenvalues ---   -0.16161  -0.00188   0.00006   0.00449   0.00811
     Eigenvalues ---    0.00991   0.01998   0.03559   0.04634   0.04830
     Eigenvalues ---    0.05348   0.05490   0.07800   0.10379   0.13065
     Eigenvalues ---    0.13860   0.16799   0.18696   0.21479   0.24953
     Eigenvalues ---    0.28100   0.31938   0.33043   0.33725   0.35288
     Eigenvalues ---    0.35579   0.37011   0.41539   0.50152   0.51362
 Eigenvectors required to have negative eigenvalues:
                          R13       R6        A8        R8        R5
   1                    0.70847  -0.55952  -0.19525  -0.16785   0.16525
                          D18       D15       A11       D17       A15
   1                    0.13090   0.11364   0.11211   0.09759  -0.08350
 RFO step:  Lambda0=4.687422994D-05 Lambda=-1.35043019D-02.
 Linear search not attempted -- option 19 set.
 Maximum step size (   0.300) exceeded in Quadratic search.
    -- Step size scaled by   0.820
 Iteration  1 RMS(Cart)=  0.11789108 RMS(Int)=  0.08339799
 Iteration  2 RMS(Cart)=  0.05239506 RMS(Int)=  0.05314856
 Iteration  3 RMS(Cart)=  0.04564762 RMS(Int)=  0.02553190
 Iteration  4 RMS(Cart)=  0.04067840 RMS(Int)=  0.00537901
 Iteration  5 RMS(Cart)=  0.00332422 RMS(Int)=  0.00384662
 Iteration  6 RMS(Cart)=  0.00001189 RMS(Int)=  0.00384661
 Iteration  7 RMS(Cart)=  0.00000000 RMS(Int)=  0.00384661
 Variable       Old X    -DE/DX   Delta X   Delta X   Delta X     New X
                                 (Linear)    (Quad)   (Total)
    R1        2.86313   0.00100   0.00000  -0.00904  -0.00904   2.85409
    R2        2.68734   0.00412   0.00000   0.01912   0.01912   2.70646
    R3        2.07487  -0.00042   0.00000  -0.00294  -0.00294   2.07194
    R4        2.06783   0.00090   0.00000   0.00594   0.00594   2.07377
    R5        2.66098   0.00402   0.00000   0.00585   0.00424   2.66522
    R6        2.77624  -0.00153   0.00000   0.03006   0.02709   2.80333
    R7        2.05816   0.00222   0.00000   0.00630   0.00630   2.06446
    R8        2.40392   0.00959   0.00000   0.01494   0.01757   2.42149
    R9        2.08011   0.00013   0.00000  -0.00723  -0.00723   2.07288
   R10        2.88456   0.00026   0.00000   0.13071   0.13169   3.01625
   R11        2.74899   0.00541   0.00000   0.00508   0.00508   2.75407
   R12        1.83826   0.00061   0.00000   0.00098   0.00098   1.83924
   R13        2.68513  -0.00154   0.00000  -0.12222  -0.12095   2.56418
    A1        2.02359   0.00051   0.00000  -0.01805  -0.01800   2.00558
    A2        1.93206   0.00090   0.00000   0.02791   0.02787   1.95994
    A3        1.92646  -0.00046   0.00000   0.00528   0.00513   1.93159
    A4        1.89295  -0.00055   0.00000  -0.00386  -0.00374   1.88921
    A5        1.78433  -0.00014   0.00000  -0.00466  -0.00468   1.77965
    A6        1.89622  -0.00041   0.00000  -0.00949  -0.00966   1.88656
    A7        2.02406   0.00390   0.00000   0.06442   0.07662   2.10068
    A8        2.59582  -0.00420   0.00000  -0.05804  -0.06524   2.53058
    A9        2.06533   0.00055   0.00000  -0.00886  -0.01334   2.05200
   A10        2.10458  -0.00463   0.00000  -0.09074  -0.09955   2.00502
   A11        1.41268   0.00122   0.00000   0.01661   0.02242   1.43510
   A12        2.04937  -0.00305   0.00000  -0.07959  -0.08450   1.96487
   A13        2.13904   0.00260   0.00000   0.08326   0.08552   2.22456
   A14        2.08116  -0.00000   0.00000  -0.00141   0.00258   2.08374
   A15        2.70985   0.00029   0.00000   0.12629   0.11947   2.82932
   A16        1.84236  -0.00117   0.00000   0.01221   0.01221   1.85457
   A17        1.74635  -0.00213   0.00000   0.00611   0.00611   1.75245
   A18        1.83087   0.00600   0.00000  -0.00895  -0.01492   1.81595
    D1        1.74208   0.00174   0.00000   0.07232   0.07241   1.81449
    D2        0.30768  -0.00262   0.00000  -0.10876  -0.10751   0.20016
    D3       -1.83745   0.00014   0.00000  -0.03194  -0.03319  -1.87064
    D4       -2.37567   0.00215   0.00000   0.07641   0.07639  -2.29928
    D5        2.47312  -0.00220   0.00000  -0.10467  -0.10353   2.36958
    D6        0.32798   0.00056   0.00000  -0.02785  -0.02921   0.29877
    D7       -0.27556   0.00192   0.00000   0.08617   0.08628  -0.18928
    D8       -1.70995  -0.00244   0.00000  -0.09491  -0.09365  -1.80360
    D9        2.42810   0.00032   0.00000  -0.01809  -0.01933   2.40877
   D10        1.24021   0.00049   0.00000   0.03030   0.03027   1.27048
   D11       -0.94536  -0.00065   0.00000   0.00962   0.00960  -0.93576
   D12       -2.94658   0.00010   0.00000   0.02398   0.02402  -2.92256
   D13       -2.85900   0.00812   0.00000   0.19525   0.18853  -2.67047
   D14        0.10451   0.00522   0.00000   0.20888   0.21240   0.31691
   D15        0.73105   0.00830   0.00000   0.27887   0.26984   1.00089
   D16       -2.58862   0.00539   0.00000   0.29250   0.29371  -2.29491
   D17        1.97458   0.00797   0.00000   0.13919   0.13339   2.10797
   D18       -2.01251   0.00651   0.00000   0.08071   0.07597  -1.93654
   D19        2.80756   0.00182   0.00000   0.09797   0.10622   2.91378
   D20       -2.71443   0.00124   0.00000   0.77522   0.77522  -1.93921
         Item               Value     Threshold  Converged?
 Maximum Force            0.009588     0.000450     NO 
 RMS     Force            0.003470     0.000300     NO 
 Maximum Displacement     0.861045     0.001800     NO 
 RMS     Displacement     0.216850     0.001200     NO 
 Predicted change in Energy=-1.085989D-02
 GradGradGradGradGradGradGradGradGradGradGradGradGradGradGradGradGradGrad

                          Input orientation:                          
 ---------------------------------------------------------------------
 Center     Atomic      Atomic             Coordinates (Angstroms)
 Number     Number       Type             X           Y           Z
 ---------------------------------------------------------------------
      1          6           0        1.893065    1.444062   -2.090379
      2          6           0        1.102024    0.727689   -1.021678
      3          6           0        0.671413   -0.600157   -1.223071
      4          8           0        1.151580    2.409979   -2.844297
      5          8           0        0.937103    3.544482   -1.954976
      6          8           0       -0.386980   -0.880478   -0.557331
      7          1           0       -0.023931    3.479338   -1.815492
      8          1           0        2.786557    1.935478   -1.687486
      9          1           0        2.212847    0.742596   -2.871375
     10          1           0        1.052776   -1.321183   -1.956503
     11          1           0       -0.255823    0.468062   -0.483623
     12          1           0        1.302171    0.993123    0.018979
 ---------------------------------------------------------------------
                    Distance matrix (angstroms):
                    1          2          3          4          5
     1  C    0.000000
     2  C    1.510318   0.000000
     3  C    2.534460   1.410376   0.000000
     4  O    1.432198   2.480826   3.452514   0.000000
     5  O    2.311701   2.971963   4.217144   1.457391   0.000000
     6  O    3.598934   2.240301   1.281399   4.292375   4.825647
     7  H    2.809410   3.077253   4.180519   1.893091   0.973286
     8  H    1.096421   2.177087   3.334510   2.058280   2.465953
     9  H    1.097392   2.157668   2.626007   1.976661   3.212144
    10  H    2.893197   2.252599   1.096923   3.836602   4.867040
    11  H    2.855164   1.483461   1.596133   3.365205   3.612798
    12  H    2.236491   1.092465   2.116385   3.198204   3.246413
                    6          7          8          9         10
     6  O    0.000000
     7  H    4.552226   0.000000
     8  H    4.390694   3.209163   0.000000
     9  H    3.840347   3.688878   1.775867   0.000000
    10  H    2.055432   4.921807   3.699217   2.538098   0.000000
    11  H    1.356906   3.300822   3.585898   3.445440   2.661429
    12  H    2.587614   3.362304   2.450195   3.040764   3.052989
                   11         12
    11  H    0.000000
    12  H    1.719198   0.000000
 Stoichiometry    C3H6O3
 Framework group  C1[X(C3H6O3)]
 Deg. of freedom    30
 Full point group                 C1      NOp   1
 Largest Abelian subgroup         C1      NOp   1
 Largest concise Abelian subgroup C1      NOp   1
                         Standard orientation:                         
 ---------------------------------------------------------------------
 Center     Atomic      Atomic             Coordinates (Angstroms)
 Number     Number       Type             X           Y           Z
 ---------------------------------------------------------------------
      1          6           0       -0.670252    0.890877    0.247299
      2          6           0        0.563088    0.065302    0.527227
      3          6           0        1.787640    0.378394   -0.098557
      4          8           0       -1.622554    0.275221   -0.627504
      5          8           0       -2.258440   -0.785670    0.143307
      6          8           0        2.551049   -0.643030   -0.224589
      7          1           0       -1.904961   -1.569908   -0.312006
      8          1           0       -1.189783    1.187299    1.166190
      9          1           0       -0.409191    1.802102   -0.305678
     10          1           0        2.067974    1.322770   -0.581058
     11          1           0        1.337318   -1.135864    0.129201
     12          1           0        0.655349   -0.386008    1.517826
 ---------------------------------------------------------------------
 Rotational constants (GHZ):           9.1578406           1.6680941           1.5479013
 Standard basis: 6-31+G(d) (6D, 7F)
 There are   126 symmetry adapted cartesian basis functions of A   symmetry.
 There are   126 symmetry adapted basis functions of A   symmetry.
   126 basis functions,   216 primitive gaussians,   126 cartesian basis functions
    24 alpha electrons       24 beta electrons
       nuclear repulsion energy       234.5781017062 Hartrees.
 NAtoms=   12 NActive=   12 NUniq=   12 SFac= 1.00D+00 NAtFMM=   60 NAOKFM=F Big=F
 Integral buffers will be    131072 words long.
 Raffenetti 2 integral format.
 Two-electron integral symmetry is turned on.
 One-electron integrals computed using PRISM.
 NBasis=   126 RedAO= T EigKep=  1.08D-04  NBF=   126
 NBsUse=   126 1.00D-06 EigRej= -1.00D+00 NBFU=   126
 Initial guess from the checkpoint file:  "/scratch/bell/zhao922/YARP/paper-example/KHP-network/pp_0/TS-folder/Gau-19990.chk"
 B after Tr=     0.000000    0.000000   -0.000000
         Rot=    0.999282    0.037819    0.002401   -0.000584 Ang=   4.34 deg.
 ExpMin= 4.38D-02 ExpMax= 5.48D+03 ExpMxC= 8.25D+02 IAcc=3 IRadAn=         5 AccDes= 0.00D+00
 Harris functional with IExCor=  402 and IRadAn=       5 diagonalized for initial guess.
 HarFok:  IExCor=  402 AccDes= 0.00D+00 IRadAn=         5 IDoV= 1 UseB2=F ITyADJ=14
 ICtDFT=  3500011 ScaDFX=  1.000000  1.000000  1.000000  1.000000
 FoFCou: FMM=F IPFlag=           0 FMFlag=      100000 FMFlg1=           0
         NFxFlg=           0 DoJE=T BraDBF=F KetDBF=T FulRan=T
         wScrn=  0.000000 ICntrl=       500 IOpCl=  0 I1Cent=   200000004 NGrid=           0
         NMat0=    1 NMatS0=      1 NMatT0=    0 NMatD0=    1 NMtDS0=    0 NMtDT0=    0
 Petite list used in FoFCou.
 Keep R1 ints in memory in canonical form, NReq=47237537.
 Requested convergence on RMS density matrix=1.00D-08 within 128 cycles.
 Requested convergence on MAX density matrix=1.00D-06.
 Requested convergence on             energy=1.00D-06.
 No special actions if energy rises.
 SCF Done:  E(RB3LYP) =  -343.384249092     A.U. after   14 cycles
            NFock= 14  Conv=0.91D-08     -V/T= 2.0090
 DoSCS=F DFT=T ScalE2(SS,OS)=  1.000000  1.000000
 Range of M.O.s used for correlation:     1   126
 NBasis=   126 NAE=    24 NBE=    24 NFC=     0 NFV=     0
 NROrb=    126 NOA=    24 NOB=    24 NVA=   102 NVB=   102

 **** Warning!!: The largest alpha MO coefficient is  0.34601276D+02

 Symmetrizing basis deriv contribution to polar:
 IMax=3 JMax=2 DiffMx= 0.00D+00
 G2DrvN: will do    13 centers at a time, making    1 passes.
 Calling FoFCou, ICntrl=  3107 FMM=F I1Cent=   0 AccDes= 0.00D+00.
 End of G2Drv F.D. properties file   721 does not exist.
 End of G2Drv F.D. properties file   722 does not exist.
 End of G2Drv F.D. properties file   788 does not exist.
          IDoAtm=111111111111
          Differentiating once with respect to electric field.
                with respect to dipole field.
          Differentiating once with respect to nuclear coordinates.
 Keep R1 ints in memory in canonical form, NReq=47193552.
          There are    39 degrees of freedom in the 1st order CPHF.  IDoFFX=6 NUNeed=     3.
     36 vectors produced by pass  0 Test12= 6.28D-15 2.56D-09 XBig12= 6.44D+01 3.63D+00.
 AX will form    36 AO Fock derivatives at one time.
     36 vectors produced by pass  1 Test12= 6.28D-15 2.56D-09 XBig12= 1.88D+01 9.47D-01.
     36 vectors produced by pass  2 Test12= 6.28D-15 2.56D-09 XBig12= 1.73D-01 6.48D-02.
     36 vectors produced by pass  3 Test12= 6.28D-15 2.56D-09 XBig12= 8.31D-04 4.35D-03.
     36 vectors produced by pass  4 Test12= 6.28D-15 2.56D-09 XBig12= 1.01D-06 1.48D-04.
     27 vectors produced by pass  5 Test12= 6.28D-15 2.56D-09 XBig12= 1.01D-09 4.41D-06.
      3 vectors produced by pass  6 Test12= 6.28D-15 2.56D-09 XBig12= 9.40D-13 1.11D-07.
      3 vectors produced by pass  7 Test12= 6.28D-15 2.56D-09 XBig12= 8.84D-16 4.60D-09.
 InvSVY:  IOpt=1 It=  1 EMax= 1.78D-15
 Solved reduced A of dimension   213 with    39 vectors.
 Isotropic polarizability for W=    0.000000       54.79 Bohr**3.
 End of Minotr F.D. properties file   721 does not exist.
 End of Minotr F.D. properties file   722 does not exist.
 End of Minotr F.D. properties file   788 does not exist.
 Calling FoFJK, ICntrl=    100127 FMM=F ISym2X=0 I1Cent= 0 IOpClX= 0 NMat=1 NMatS=1 NMatT=0.
 ***** Axes restored to original set *****
 -------------------------------------------------------------------
 Center     Atomic                   Forces (Hartrees/Bohr)
 Number     Number              X              Y              Z
 -------------------------------------------------------------------
      1        6           0.001173635    0.003446317    0.001700250
      2        6          -0.002638673    0.000830455   -0.003020674
      3        6          -0.004230722   -0.002056921   -0.001801210
      4        8           0.000165277    0.001105051    0.000714073
      5        8          -0.000051511    0.000107026   -0.001163293
      6        8          -0.001712406   -0.001832803    0.000209606
      7        1          -0.001228727    0.000223958    0.000588036
      8        1          -0.000502966    0.000394072   -0.000153017
      9        1          -0.000019476   -0.000571694   -0.000018608
     10        1           0.002702532   -0.002106161    0.003995626
     11        1           0.000551687    0.003295955   -0.001932682
     12        1           0.005791351   -0.002835255    0.000881894
 -------------------------------------------------------------------
 Cartesian Forces:  Max     0.005791351 RMS     0.002077567
 FormGI is forming the generalized inverse of G from B-inverse, IUseBI=4.

 GradGradGradGradGradGradGradGradGradGradGradGradGradGradGradGradGradGrad
 Berny optimization.
 Internal  Forces:  Max     0.005170422 RMS     0.001708829
 Search for a saddle point.
 Step number   3 out of a maximum of  100
 All quantities printed in internal units (Hartrees-Bohrs-Radians)
 Swapping is turned off.
 Second derivative matrix not updated -- analytic derivatives used.
 ITU=  0  0  0
     Eigenvalues ---   -0.16066   0.00027   0.00458   0.00947   0.01170
     Eigenvalues ---    0.01465   0.01773   0.04086   0.04574   0.05245
     Eigenvalues ---    0.05335   0.05568   0.08300   0.10270   0.12293
     Eigenvalues ---    0.13567   0.17742   0.17863   0.21526   0.25617
     Eigenvalues ---    0.27794   0.31925   0.33278   0.34180   0.34641
     Eigenvalues ---    0.34886   0.35750   0.40157   0.49494   0.49786
 Eigenvectors required to have negative eigenvalues:
                          R13       R6        A8        R8        R5
   1                    0.70515  -0.57347  -0.19344  -0.16388   0.15221
                          D15       A11       D18       D13       D17
   1                    0.15058   0.11751   0.11422   0.09914   0.07669
 RFO step:  Lambda0=8.531002568D-05 Lambda=-3.49123494D-03.
 Linear search not attempted -- option 19 set.
 Iteration  1 RMS(Cart)=  0.07839641 RMS(Int)=  0.00555640
 Iteration  2 RMS(Cart)=  0.00484302 RMS(Int)=  0.00213297
 Iteration  3 RMS(Cart)=  0.00007416 RMS(Int)=  0.00213206
 Iteration  4 RMS(Cart)=  0.00000210 RMS(Int)=  0.00213206
 Iteration  5 RMS(Cart)=  0.00000007 RMS(Int)=  0.00213206
 Variable       Old X    -DE/DX   Delta X   Delta X   Delta X     New X
                                 (Linear)    (Quad)   (Total)
    R1        2.85409   0.00081   0.00000  -0.00167  -0.00167   2.85242
    R2        2.70646   0.00147   0.00000   0.00804   0.00804   2.71450
    R3        2.07194  -0.00029   0.00000  -0.00175  -0.00175   2.07018
    R4        2.07377   0.00037   0.00000   0.00226   0.00226   2.07603
    R5        2.66522   0.00517   0.00000   0.01405   0.01505   2.68027
    R6        2.80333   0.00017   0.00000   0.06457   0.06231   2.86564
    R7        2.06446   0.00121   0.00000   0.00484   0.00484   2.06930
    R8        2.42149   0.00018   0.00000   0.00110   0.00136   2.42285
    R9        2.07288  -0.00035   0.00000  -0.00424  -0.00424   2.06864
   R10        3.01625  -0.00087   0.00000   0.04848   0.04864   3.06490
   R11        2.75407   0.00010   0.00000  -0.00687  -0.00687   2.74719
   R12        1.83924   0.00128   0.00000   0.00320   0.00320   1.84245
   R13        2.56418   0.00171   0.00000  -0.08002  -0.07895   2.48523
    A1        2.00558  -0.00112   0.00000  -0.01729  -0.01729   1.98830
    A2        1.95994   0.00038   0.00000   0.00687   0.00681   1.96674
    A3        1.93159  -0.00004   0.00000   0.00800   0.00791   1.93951
    A4        1.88921   0.00030   0.00000   0.00072   0.00073   1.88994
    A5        1.77965   0.00042   0.00000  -0.00475  -0.00473   1.77492
    A6        1.88656   0.00011   0.00000   0.00656   0.00647   1.89304
    A7        2.10068   0.00349   0.00000   0.05056   0.05150   2.15219
    A8        2.53058  -0.00126   0.00000  -0.01709  -0.01669   2.51389
    A9        2.05200  -0.00145   0.00000  -0.02595  -0.02618   2.02582
   A10        2.00502  -0.00213   0.00000  -0.05783  -0.05968   1.94535
   A11        1.43510   0.00186   0.00000   0.04150   0.04141   1.47650
   A12        1.96487   0.00048   0.00000  -0.02687  -0.02809   1.93678
   A13        2.22456   0.00105   0.00000   0.04282   0.03801   2.26257
   A14        2.08374  -0.00135   0.00000  -0.00379  -0.00122   2.08252
   A15        2.82932   0.00119   0.00000   0.09081   0.07904   2.90836
   A16        1.85457   0.00296   0.00000   0.01463   0.01463   1.86920
   A17        1.75245   0.00090   0.00000   0.00841   0.00841   1.76086
   A18        1.81595   0.00229   0.00000  -0.00966  -0.01036   1.80559
    D1        1.81449   0.00044   0.00000  -0.03107  -0.03058   1.78391
    D2        0.20016  -0.00083   0.00000  -0.09644  -0.09683   0.10334
    D3       -1.87064  -0.00045   0.00000  -0.11545  -0.11557  -1.98622
    D4       -2.29928   0.00027   0.00000  -0.03835  -0.03790  -2.33717
    D5        2.36958  -0.00100   0.00000  -0.10373  -0.10414   2.26544
    D6        0.29877  -0.00062   0.00000  -0.12274  -0.12289   0.17589
    D7       -0.18928   0.00064   0.00000  -0.01962  -0.01909  -0.20837
    D8       -1.80360  -0.00063   0.00000  -0.08500  -0.08534  -1.88895
    D9        2.40877  -0.00025   0.00000  -0.10401  -0.10409   2.30469
   D10        1.27048  -0.00031   0.00000  -0.02175  -0.02178   1.24871
   D11       -0.93576  -0.00023   0.00000  -0.01851  -0.01855  -0.95431
   D12       -2.92256  -0.00065   0.00000  -0.02397  -0.02391  -2.94647
   D13       -2.67047   0.00225   0.00000   0.06377   0.06139  -2.60908
   D14        0.31691   0.00351   0.00000   0.15543   0.15908   0.47599
   D15        1.00089   0.00298   0.00000   0.13778   0.13506   1.13595
   D16       -2.29491   0.00423   0.00000   0.22945   0.23275  -2.06216
   D17        2.10797   0.00347   0.00000   0.05426   0.05276   2.16073
   D18       -1.93654   0.00257   0.00000   0.05743   0.05531  -1.88123
   D19        2.91378   0.00056   0.00000   0.04312   0.04523   2.95900
   D20       -1.93921   0.00026   0.00000   0.13527   0.13527  -1.80395
         Item               Value     Threshold  Converged?
 Maximum Force            0.005170     0.000450     NO 
 RMS     Force            0.001709     0.000300     NO 
 Maximum Displacement     0.216037     0.001800     NO 
 RMS     Displacement     0.078827     0.001200     NO 
 Predicted change in Energy=-2.102200D-03
 GradGradGradGradGradGradGradGradGradGradGradGradGradGradGradGradGradGrad

                          Input orientation:                          
 ---------------------------------------------------------------------
 Center     Atomic      Atomic             Coordinates (Angstroms)
 Number     Number       Type             X           Y           Z
 ---------------------------------------------------------------------
      1          6           0        1.923851    1.464841   -2.102315
      2          6           0        1.118450    0.728957   -1.059145
      3          6           0        0.642516   -0.595665   -1.233938
      4          8           0        1.165324    2.427291   -2.851793
      5          8           0        0.880758    3.537424   -1.957352
      6          8           0       -0.455684   -0.776361   -0.597437
      7          1           0       -0.054260    3.365016   -1.741463
      8          1           0        2.799692    1.970254   -1.680931
      9          1           0        2.263068    0.783145   -2.894225
     10          1           0        1.047498   -1.408168   -1.845612
     11          1           0       -0.278800    0.523660   -0.506775
     12          1           0        1.390387    0.922597   -0.016247
 ---------------------------------------------------------------------
                    Distance matrix (angstroms):
                    1          2          3          4          5
     1  C    0.000000
     2  C    1.509436   0.000000
     3  C    2.577127   1.418340   0.000000
     4  O    1.436451   2.469842   3.468292   0.000000
     5  O    2.324792   2.958169   4.202680   1.453753   0.000000
     6  O    3.598587   2.226444   1.282118   4.239478   4.716375
     7  H    2.766551   2.964728   4.053402   1.897247   0.974982
     8  H    1.095493   2.180370   3.381886   2.061785   2.492937
     9  H    1.098590   2.163470   2.698863   1.977387   3.220957
    10  H    3.014643   2.278347   1.094677   3.966992   4.949664
    11  H    2.878062   1.516432   1.621874   3.347897   3.539990
    12  H    2.220425   1.095026   2.084994   3.217930   3.296199
                    6          7          8          9         10
     6  O    0.000000
     7  H    4.315199   0.000000
     8  H    4.394921   3.177115   0.000000
     9  H    3.885731   3.655807   1.780247   0.000000
    10  H    2.053455   4.899796   3.809336   2.716441   0.000000
    11  H    1.315128   3.106152   3.598387   3.496905   2.698798
    12  H    2.575309   3.320961   2.419690   3.010611   2.982719
                   11         12
    11  H    0.000000
    12  H    1.784923   0.000000
 Stoichiometry    C3H6O3
 Framework group  C1[X(C3H6O3)]
 Deg. of freedom    30
 Full point group                 C1      NOp   1
 Largest Abelian subgroup         C1      NOp   1
 Largest concise Abelian subgroup C1      NOp   1
                         Standard orientation:                         
 ---------------------------------------------------------------------
 Center     Atomic      Atomic             Coordinates (Angstroms)
 Number     Number       Type             X           Y           Z
 ---------------------------------------------------------------------
      1          6           0       -0.692614    0.933219    0.212654
      2          6           0        0.558837    0.146386    0.517880
      3          6           0        1.802653    0.382317   -0.121610
      4          8           0       -1.624901    0.240047   -0.632180
      5          8           0       -2.212743   -0.825039    0.163704
      6          8           0        2.487405   -0.698333   -0.206086
      7          1           0       -1.732496   -1.599890   -0.182069
      8          1           0       -1.221094    1.254033    1.117028
      9          1           0       -0.463969    1.822431   -0.390607
     10          1           0        2.196565    1.302533   -0.564727
     11          1           0        1.313880   -1.130053    0.201370
     12          1           0        0.695780   -0.153991    1.561960
 ---------------------------------------------------------------------
 Rotational constants (GHZ):           8.6778714           1.7101422           1.5674545
 Standard basis: 6-31+G(d) (6D, 7F)
 There are   126 symmetry adapted cartesian basis functions of A   symmetry.
 There are   126 symmetry adapted basis functions of A   symmetry.
   126 basis functions,   216 primitive gaussians,   126 cartesian basis functions
    24 alpha electrons       24 beta electrons
       nuclear repulsion energy       234.6831904858 Hartrees.
 NAtoms=   12 NActive=   12 NUniq=   12 SFac= 1.00D+00 NAtFMM=   60 NAOKFM=F Big=F
 Integral buffers will be    131072 words long.
 Raffenetti 2 integral format.
 Two-electron integral symmetry is turned on.
 One-electron integrals computed using PRISM.
 NBasis=   126 RedAO= T EigKep=  1.08D-04  NBF=   126
 NBsUse=   126 1.00D-06 EigRej= -1.00D+00 NBFU=   126
 Initial guess from the checkpoint file:  "/scratch/bell/zhao922/YARP/paper-example/KHP-network/pp_0/TS-folder/Gau-19990.chk"
 B after Tr=     0.000000   -0.000000    0.000000
         Rot=    0.999619    0.027566   -0.000311   -0.001590 Ang=   3.16 deg.
 ExpMin= 4.38D-02 ExpMax= 5.48D+03 ExpMxC= 8.25D+02 IAcc=3 IRadAn=         5 AccDes= 0.00D+00
 Harris functional with IExCor=  402 and IRadAn=       5 diagonalized for initial guess.
 HarFok:  IExCor=  402 AccDes= 0.00D+00 IRadAn=         5 IDoV= 1 UseB2=F ITyADJ=14
 ICtDFT=  3500011 ScaDFX=  1.000000  1.000000  1.000000  1.000000
 FoFCou: FMM=F IPFlag=           0 FMFlag=      100000 FMFlg1=           0
         NFxFlg=           0 DoJE=T BraDBF=F KetDBF=T FulRan=T
         wScrn=  0.000000 ICntrl=       500 IOpCl=  0 I1Cent=   200000004 NGrid=           0
         NMat0=    1 NMatS0=      1 NMatT0=    0 NMatD0=    1 NMtDS0=    0 NMtDT0=    0
 Petite list used in FoFCou.
 Keep R1 ints in memory in canonical form, NReq=47237537.
 Requested convergence on RMS density matrix=1.00D-08 within 128 cycles.
 Requested convergence on MAX density matrix=1.00D-06.
 Requested convergence on             energy=1.00D-06.
 No special actions if energy rises.
 SCF Done:  E(RB3LYP) =  -343.386285313     A.U. after   12 cycles
            NFock= 12  Conv=0.95D-08     -V/T= 2.0091
 DoSCS=F DFT=T ScalE2(SS,OS)=  1.000000  1.000000
 Range of M.O.s used for correlation:     1   126
 NBasis=   126 NAE=    24 NBE=    24 NFC=     0 NFV=     0
 NROrb=    126 NOA=    24 NOB=    24 NVA=   102 NVB=   102

 **** Warning!!: The largest alpha MO coefficient is  0.31789477D+02

 Symmetrizing basis deriv contribution to polar:
 IMax=3 JMax=2 DiffMx= 0.00D+00
 G2DrvN: will do    13 centers at a time, making    1 passes.
 Calling FoFCou, ICntrl=  3107 FMM=F I1Cent=   0 AccDes= 0.00D+00.
 End of G2Drv F.D. properties file   721 does not exist.
 End of G2Drv F.D. properties file   722 does not exist.
 End of G2Drv F.D. properties file   788 does not exist.
          IDoAtm=111111111111
          Differentiating once with respect to electric field.
                with respect to dipole field.
          Differentiating once with respect to nuclear coordinates.
 Keep R1 ints in memory in canonical form, NReq=47193552.
          There are    39 degrees of freedom in the 1st order CPHF.  IDoFFX=6 NUNeed=     3.
     36 vectors produced by pass  0 Test12= 6.28D-15 2.56D-09 XBig12= 6.40D+01 3.67D+00.
 AX will form    36 AO Fock derivatives at one time.
     36 vectors produced by pass  1 Test12= 6.28D-15 2.56D-09 XBig12= 1.70D+01 9.01D-01.
     36 vectors produced by pass  2 Test12= 6.28D-15 2.56D-09 XBig12= 1.47D-01 5.73D-02.
     36 vectors produced by pass  3 Test12= 6.28D-15 2.56D-09 XBig12= 6.78D-04 4.14D-03.
     36 vectors produced by pass  4 Test12= 6.28D-15 2.56D-09 XBig12= 9.34D-07 1.59D-04.
     26 vectors produced by pass  5 Test12= 6.28D-15 2.56D-09 XBig12= 9.82D-10 4.40D-06.
      3 vectors produced by pass  6 Test12= 6.28D-15 2.56D-09 XBig12= 9.43D-13 1.42D-07.
      3 vectors produced by pass  7 Test12= 6.28D-15 2.56D-09 XBig12= 8.78D-16 5.28D-09.
 InvSVY:  IOpt=1 It=  1 EMax= 1.78D-15
 Solved reduced A of dimension   212 with    39 vectors.
 Isotropic polarizability for W=    0.000000       55.21 Bohr**3.
 End of Minotr F.D. properties file   721 does not exist.
 End of Minotr F.D. properties file   722 does not exist.
 End of Minotr F.D. properties file   788 does not exist.
 Calling FoFJK, ICntrl=    100127 FMM=F ISym2X=0 I1Cent= 0 IOpClX= 0 NMat=1 NMatS=1 NMatT=0.
 ***** Axes restored to original set *****
 -------------------------------------------------------------------
 Center     Atomic                   Forces (Hartrees/Bohr)
 Number     Number              X              Y              Z
 -------------------------------------------------------------------
      1        6          -0.000187002    0.000203690   -0.000039662
      2        6          -0.000168451    0.000694036    0.000490177
      3        6          -0.002145030    0.000539068   -0.000697983
      4        8           0.000221298   -0.000069248   -0.000277015
      5        8          -0.000100551    0.000146499   -0.000219209
      6        8           0.000557204   -0.001397347   -0.000110827
      7        1          -0.000018207   -0.000167097    0.000219081
      8        1          -0.000301469    0.000349366    0.000183405
      9        1           0.000320064    0.000028965    0.000151065
     10        1           0.000158207   -0.000572486    0.000850210
     11        1           0.000221110    0.000924931   -0.000663553
     12        1           0.001442827   -0.000680377    0.000114312
 -------------------------------------------------------------------
 Cartesian Forces:  Max     0.002145030 RMS     0.000626271
 FormGI is forming the generalized inverse of G from B-inverse, IUseBI=4.

 GradGradGradGradGradGradGradGradGradGradGradGradGradGradGradGradGradGrad
 Berny optimization.
 Internal  Forces:  Max     0.001129261 RMS     0.000386505
 Search for a saddle point.
 Step number   4 out of a maximum of  100
 All quantities printed in internal units (Hartrees-Bohrs-Radians)
 Swapping is turned off.
 Second derivative matrix not updated -- analytic derivatives used.
 ITU=  0  0  0  0
     Eigenvalues ---   -0.15060   0.00032   0.00498   0.00950   0.01294
     Eigenvalues ---    0.01374   0.02118   0.04186   0.04548   0.05374
     Eigenvalues ---    0.05402   0.05774   0.08567   0.10063   0.11168
     Eigenvalues ---    0.13315   0.17733   0.18089   0.21681   0.25550
     Eigenvalues ---    0.27712   0.32086   0.33159   0.33855   0.34175
     Eigenvalues ---    0.34887   0.35108   0.39253   0.48801   0.50290
 Eigenvectors required to have negative eigenvalues:
                          R13       R6        A8        D15       R8
   1                    0.69763  -0.57321  -0.19413   0.17118  -0.15380
                          R5        A11       D13       A15       D18
   1                    0.14296   0.12601   0.11908   0.10939   0.10521
 RFO step:  Lambda0=9.551012031D-06 Lambda=-7.70013247D-04.
 Linear search not attempted -- option 19 set.
 Iteration  1 RMS(Cart)=  0.11227830 RMS(Int)=  0.02293322
 Iteration  2 RMS(Cart)=  0.02857595 RMS(Int)=  0.00046317
 Iteration  3 RMS(Cart)=  0.00042915 RMS(Int)=  0.00018785
 Iteration  4 RMS(Cart)=  0.00000006 RMS(Int)=  0.00018785
 Variable       Old X    -DE/DX   Delta X   Delta X   Delta X     New X
                                 (Linear)    (Quad)   (Total)
    R1        2.85242   0.00019   0.00000  -0.00099  -0.00099   2.85143
    R2        2.71450   0.00003   0.00000   0.00292   0.00292   2.71742
    R3        2.07018  -0.00001   0.00000  -0.00167  -0.00167   2.06851
    R4        2.07603  -0.00003   0.00000   0.00151   0.00151   2.07754
    R5        2.68027   0.00113   0.00000   0.00667   0.00677   2.68705
    R6        2.86564   0.00002   0.00000   0.02269   0.02249   2.88813
    R7        2.06930   0.00035   0.00000   0.00107   0.00107   2.07037
    R8        2.42285  -0.00069   0.00000  -0.00302  -0.00303   2.41983
    R9        2.06864   0.00001   0.00000  -0.00040  -0.00040   2.06823
   R10        3.06490  -0.00047   0.00000   0.00917   0.00918   3.07407
   R11        2.74719   0.00001   0.00000  -0.00494  -0.00494   2.74226
   R12        1.84245   0.00010   0.00000   0.00153   0.00153   1.84398
   R13        2.48523   0.00098   0.00000  -0.01811  -0.01798   2.46725
    A1        1.98830   0.00004   0.00000  -0.00031  -0.00032   1.98798
    A2        1.96674  -0.00020   0.00000  -0.00930  -0.00929   1.95745
    A3        1.93951   0.00018   0.00000   0.00841   0.00842   1.94792
    A4        1.88994   0.00005   0.00000   0.00377   0.00376   1.89370
    A5        1.77492  -0.00010   0.00000  -0.00322  -0.00322   1.77169
    A6        1.89304   0.00004   0.00000   0.00146   0.00147   1.89451
    A7        2.15219   0.00050   0.00000   0.00004  -0.00000   2.15219
    A8        2.51389  -0.00009   0.00000   0.00557   0.00567   2.51957
    A9        2.02582  -0.00044   0.00000  -0.00329  -0.00340   2.02242
   A10        1.94535  -0.00009   0.00000  -0.00926  -0.00936   1.93599
   A11        1.47650   0.00058   0.00000   0.01181   0.01165   1.48815
   A12        1.93678   0.00050   0.00000  -0.00286  -0.00292   1.93385
   A13        2.26257   0.00028   0.00000   0.00734   0.00686   2.26944
   A14        2.08252  -0.00075   0.00000  -0.00332  -0.00303   2.07949
   A15        2.90836   0.00006   0.00000   0.01057   0.00951   2.91787
   A16        1.86920   0.00005   0.00000   0.00834   0.00834   1.87754
   A17        1.76086  -0.00001   0.00000   0.00693   0.00693   1.76779
   A18        1.80559   0.00022   0.00000  -0.00360  -0.00361   1.80198
    D1        1.78391  -0.00028   0.00000  -0.24065  -0.24062   1.54329
    D2        0.10334  -0.00007   0.00000  -0.23896  -0.23900  -0.13566
    D3       -1.98622  -0.00038   0.00000  -0.26599  -0.26599  -2.25220
    D4       -2.33717  -0.00034   0.00000  -0.24336  -0.24332  -2.58049
    D5        2.26544  -0.00013   0.00000  -0.24166  -0.24169   2.02375
    D6        0.17589  -0.00044   0.00000  -0.26870  -0.26869  -0.09280
    D7       -0.20837  -0.00029   0.00000  -0.24196  -0.24193  -0.45030
    D8       -1.88895  -0.00009   0.00000  -0.24026  -0.24031  -2.12925
    D9        2.30469  -0.00040   0.00000  -0.26730  -0.26730   2.03739
   D10        1.24871  -0.00018   0.00000   0.00622   0.00622   1.25492
   D11       -0.95431   0.00001   0.00000   0.01571   0.01571  -0.93860
   D12       -2.94647  -0.00001   0.00000   0.01413   0.01413  -2.93234
   D13       -2.60908  -0.00006   0.00000   0.00272   0.00261  -2.60647
[...]
   D12       -2.89394  -0.00000   0.00000  -0.00002  -0.00002  -2.89397
   D13       -2.62448   0.00000   0.00000  -0.00003  -0.00003  -2.62451
   D14        0.48409  -0.00000   0.00000  -0.00009  -0.00009   0.48400
   D15        1.16780   0.00000   0.00000  -0.00000  -0.00000   1.16780
   D16       -2.00681  -0.00000   0.00000  -0.00006  -0.00006  -2.00687
   D17        2.15844   0.00000   0.00000   0.00013   0.00013   2.15857
   D18       -1.87397   0.00000   0.00000   0.00006   0.00006  -1.87391
   D19        2.97239  -0.00000   0.00000  -0.00006  -0.00006   2.97233
   D20       -1.57598  -0.00000   0.00000  -0.00051  -0.00051  -1.57649
         Item               Value     Threshold  Converged?
 Maximum Force            0.000017     0.000450     YES
 RMS     Force            0.000004     0.000300     YES
 Maximum Displacement     0.000373     0.001800     YES
 RMS     Displacement     0.000102     0.001200     YES
 Predicted change in Energy=-3.397994D-09
 Optimization completed.
    -- Stationary point found.
                           ----------------------------
                           !   Optimized Parameters   !
                           ! (Angstroms and Degrees)  !
 --------------------------                            --------------------------
 ! Name  Definition              Value          Derivative Info.                !
 --------------------------------------------------------------------------------
 ! R1    R(1,2)                  1.5086         -DE/DX =    0.0                 !
 ! R2    R(1,4)                  1.4364         -DE/DX =    0.0                 !
 ! R3    R(1,8)                  1.0949         -DE/DX =    0.0                 !
 ! R4    R(1,9)                  1.1            -DE/DX =    0.0                 !
 ! R5    R(2,3)                  1.4227         -DE/DX =    0.0                 !
 ! R6    R(2,11)                 1.5337         -DE/DX =    0.0                 !
 ! R7    R(2,12)                 1.0961         -DE/DX =    0.0                 !
 ! R8    R(3,6)                  1.2809         -DE/DX =    0.0                 !
 ! R9    R(3,10)                 1.0941         -DE/DX =    0.0                 !
 ! R10   R(3,11)                 1.6331         -DE/DX =    0.0                 !
 ! R11   R(4,5)                  1.4516         -DE/DX =    0.0                 !
 ! R12   R(5,7)                  0.9761         -DE/DX =    0.0                 !
 ! R13   R(6,11)                 1.3015         -DE/DX =    0.0                 !
 ! A1    A(2,1,4)              113.6467         -DE/DX =    0.0                 !
 ! A2    A(2,1,8)              111.4939         -DE/DX =    0.0                 !
 ! A3    A(2,1,9)              112.2456         -DE/DX =    0.0                 !
 ! A4    A(4,1,8)              108.8034         -DE/DX =    0.0                 !
 ! A5    A(4,1,9)              101.6677         -DE/DX =    0.0                 !
 ! A6    A(8,1,9)              108.4506         -DE/DX =    0.0                 !
 ! A7    A(1,2,3)              123.4867         -DE/DX =    0.0                 !
 ! A8    A(1,2,11)             145.4148         -DE/DX =    0.0                 !
 ! A9    A(1,2,12)             115.1407         -DE/DX =    0.0                 !
 ! A10   A(3,2,12)             110.7679         -DE/DX =    0.0                 !
 ! A11   A(11,2,12)             85.179          -DE/DX =    0.0                 !
 ! A12   A(2,3,6)              110.5255         -DE/DX =    0.0                 !
 ! A13   A(2,3,10)             130.3734         -DE/DX =    0.0                 !
 ! A14   A(6,3,10)             119.0756         -DE/DX =    0.0                 !
 ! A15   A(10,3,11)            167.0107         -DE/DX =    0.0                 !
 ! A16   A(1,4,5)              107.7619         -DE/DX =    0.0                 !
 ! A17   A(4,5,7)              101.4766         -DE/DX =    0.0                 !
 ! A18   A(2,11,6)             102.98           -DE/DX =    0.0                 !
 ! D1    D(4,1,2,3)             76.1145         -DE/DX =    0.0                 !
 ! D2    D(4,1,2,11)           -21.4764         -DE/DX =    0.0                 !
 ! D3    D(4,1,2,12)          -142.615          -DE/DX =    0.0                 !
 ! D4    D(8,1,2,3)           -160.4781         -DE/DX =    0.0                 !
 ! D5    D(8,1,2,11)           101.931          -DE/DX =    0.0                 !
 ! D6    D(8,1,2,12)           -19.2076         -DE/DX =    0.0                 !
 ! D7    D(9,1,2,3)            -38.5699         -DE/DX =    0.0                 !
 ! D8    D(9,1,2,11)          -136.1608         -DE/DX =    0.0                 !
 ! D9    D(9,1,2,12)           102.7006         -DE/DX =    0.0                 !
 ! D10   D(2,1,4,5)             73.3645         -DE/DX =    0.0                 !
 ! D11   D(8,1,4,5)            -51.4992         -DE/DX =    0.0                 !
 ! D12   D(9,1,4,5)           -165.8106         -DE/DX =    0.0                 !
 ! D13   D(1,2,3,6)           -150.3714         -DE/DX =    0.0                 !
 ! D14   D(1,2,3,10)            27.7365         -DE/DX =    0.0                 !
 ! D15   D(12,2,3,6)            66.9103         -DE/DX =    0.0                 !
 ! D16   D(12,2,3,10)         -114.9819         -DE/DX =    0.0                 !
 ! D17   D(1,2,11,6)           123.6695         -DE/DX =    0.0                 !
 ! D18   D(12,2,11,6)         -107.3707         -DE/DX =    0.0                 !
 ! D19   D(6,3,11,2)           170.3054         -DE/DX =    0.0                 !
 ! D20   D(1,4,5,7)            -90.297          -DE/DX =    0.0                 !
 --------------------------------------------------------------------------------
 GradGradGradGradGradGradGradGradGradGradGradGradGradGradGradGradGradGrad


 ----------------------------------------------------------------------

 Electric dipole moment (input orientation):
 (Debye = 10**-18 statcoulomb cm , SI units = C m)
                  (au)            (Debye)         (10**-30 SI)
   Tot        0.976707D+00      0.248254D+01      0.828087D+01
   x          0.384440D+00      0.977149D+00      0.325942D+01
   y         -0.816400D+00     -0.207508D+01     -0.692173D+01
   z          0.373703D+00      0.949857D+00      0.316838D+01

 Dipole polarizability, Alpha (input orientation).
 (esu units = cm**3 , SI units = C**2 m**2 J**-1)
 Alpha(0;0):
               (au)            (10**-24 esu)      (10**-40 SI)
   iso        0.548991D+02      0.813521D+01      0.905164D+01
   aniso      0.202010D+02      0.299348D+01      0.333069D+01
   xx         0.546900D+02      0.810423D+01      0.901717D+01
   yx         0.525257D+01      0.778351D+00      0.866032D+00
   yy         0.620230D+02      0.919085D+01      0.102262D+02
   zx        -0.764352D+01     -0.113265D+01     -0.126025D+01
   zy        -0.842965D+00     -0.124915D+00     -0.138986D+00
   zz         0.479844D+02      0.711055D+01      0.791155D+01

 ----------------------------------------------------------------------

 Dipole orientation:
     6          5.55349349         -0.89263470         -2.34774568
     6          3.11415357         -0.38405208         -0.96265057
     6          1.61964999         -2.31265175          0.16670622
     8          5.19957462         -1.92908976         -4.83132860
     8          4.28831286          0.08426970         -6.45624373
     8         -0.71817362         -1.68491395          0.16551632
     1          2.46197501         -0.08266932         -6.25843602
     1          6.71101523          0.81576035         -2.49680555
     1          6.68475353         -2.37581327         -1.43055239
     1          2.16501559         -4.15465129          0.93121999
     1          0.26635373          0.07947825         -1.23698202
     1          3.10376620          1.32937626          0.20115098

 Electric dipole moment (dipole orientation):
 (Debye = 10**-18 statcoulomb cm , SI units = C m)
                  (au)            (Debye)         (10**-30 SI)
   Tot        0.976707D+00      0.248254D+01      0.828087D+01
   x          0.000000D+00      0.000000D+00      0.000000D+00
   y          0.000000D+00      0.000000D+00      0.000000D+00
   z          0.976707D+00      0.248254D+01      0.828087D+01

 Dipole polarizability, Alpha (dipole orientation).
 (esu units = cm**3 , SI units = C**2 m**2 J**-1)
 Alpha(0;0):
               (au)            (10**-24 esu)      (10**-40 SI)
   iso        0.548991D+02      0.813521D+01      0.905164D+01
   aniso      0.202010D+02      0.299348D+01      0.333069D+01
   xx         0.617868D+02      0.915586D+01      0.101873D+02
   yx         0.713218D+00      0.105688D+00      0.117594D+00
   yy         0.492981D+02      0.730523D+01      0.812816D+01
   zx        -0.562191D+01     -0.833081D+00     -0.926927D+00
   zy        -0.797989D+01     -0.118250D+01     -0.131571D+01
   zz         0.536124D+02      0.794454D+01      0.883950D+01

 ----------------------------------------------------------------------
 1\1\GINC-BELL-A064\Freq\RB3LYP\6-31+G(d)\C3H6O3\ZHAO922\23-Dec-2020\0\
 \#N Geom=AllCheck Guess=TCheck SCRF=Check GenChk RB3LYP/6-31+G(d) Freq
 \\pp_19_0 TS\\0,1\C,2.0080690183,1.5041088205,-2.0269124364\C,1.214411
 2596,0.7174119552,-1.0134264078\C,0.5045509431,-0.4751648137,-1.326541
 0415\O,1.1939547282,2.2867789648,-2.9144970231\O,0.6808460952,3.417800
 4853,-2.1631341137\O,-0.5151491699,-0.6047014037,-0.5621771387\H,-0.15
 71353138,3.0566296015,-1.8165196302\H,2.736043924,2.1630014803,-1.5425
 282681\H,2.5439019149,0.8526159385,-2.7328802665\H,0.6880983192,-1.226
 8288233,-2.1001018566\H,-0.1224865325,0.6014906725,-0.2707763593\H,1.6
 676958136,0.6498471221,-0.0177374581\\Version=ES64L-G16RevB.01\State=1
 -A\HF=-343.387047\RMSD=2.226e-09\RMSF=6.072e-06\ZeroPoint=0.0868184\Th
 ermal=0.093704\Dipole=0.38444,-0.8164001,0.3737026\DipoleDeriv=0.45138
 99,-0.0248182,0.0607886,0.1252587,0.686822,-0.3098808,-0.007307,-0.396
 7307,0.5725867,-0.539299,-0.1082032,0.1913336,-0.1555382,-0.7352533,-0
 .0660144,-0.0647586,-0.1806816,-0.2551179,0.6920654,0.6264278,-0.10586
 61,0.2738042,0.8501966,0.1881832,-0.1617076,0.0376655,0.2976068,-0.269
 8869,-0.0944912,-0.1146583,-0.0964349,-0.356269,0.1346142,-0.0310857,0
 .3401602,-0.3992264,-0.2465179,0.2744485,-0.102972,0.1616241,-0.315209
 ,0.1108365,-0.0280076,-0.035871,-0.3180576,-0.9030915,-0.6533099,0.238
 3535,-0.5910169,-0.7800104,0.3012092,0.1917202,0.2730364,-0.3267233,0.
 2026075,-0.1315022,0.0810503,-0.0925282,0.2321116,-0.0233241,0.077765,
 -0.0796047,0.2819907,-0.048038,-0.0428562,-0.0426936,-0.1058801,-0.031
 1251,-0.0160999,-0.0990616,0.0231032,-0.0108188,0.0088131,0.046429,0.0
 407296,0.0560102,-0.0658908,-0.0364352,0.1158276,0.0460769,-0.0829476,
 0.091292,-0.0486376,0.0289256,0.0213585,0.0420722,-0.0803168,0.0264375
 ,-0.1247893,0.0106143,0.4946794,0.3024921,-0.1738978,0.4591475,0.33816
 21,-0.3117106,-0.0177627,-0.0363499,0.1822307,0.0659859,-0.1459788,-0.
 1010935,-0.0558049,0.1343931,0.1089386,-0.0020595,0.133985,0.0478624\P
 olar=54.6900345,5.25257,62.0229566,-7.6435168,-0.8429649,47.9843723\Qu
 adrupole=2.307015,-1.9834727,-0.3235423,-3.9038891,1.2365537,4.543237\
 PG=C01 [X(C3H6O3)]\NImag=1\\0.50428233,0.04918377,0.51693040,-0.014345
 09,0.11184953,0.51723572,-0.11723585,-0.02893776,0.03833929,0.34857259
 ,-0.04742272,-0.11368599,0.02774322,0.23760133,0.41880429,0.05971729,0
 .02355189,-0.13254536,0.08075206,-0.06255789,0.49708660,-0.02447942,-0
 .00744674,0.00476365,-0.14952304,-0.07126340,0.00494019,0.48436799,-0.
 01007268,-0.00733768,0.00858403,-0.13221637,-0.21170421,-0.03377255,0.
 07911025,0.53507897,0.01128215,0.01883323,0.01365814,-0.01548769,-0.06
 786816,-0.13672365,-0.19540859,0.22519719,0.54193954,-0.09939064,0.019
 00365,-0.06617225,0.01644265,0.00233357,0.00339949,0.00105803,-0.00084
 210,-0.00069458,0.19011526,0.03341985,-0.08098984,0.04332828,0.0083553
 1,-0.01736762,0.02335259,0.00522138,0.00293623,0.00077522,-0.12383621,
 0.25136361,-0.04643008,0.01060779,-0.14109023,-0.01039304,0.02720068,-
 0.02610605,-0.00613046,-0.00469901,-0.00250004,0.03475725,0.02685289,0
 .29586333,-0.01412180,0.02705513,0.02360480,0.00304320,-0.00288347,-0.
 00097715,-0.00016794,-0.00007959,-0.00001852,-0.06749740,0.05830758,0.
 02858606,0.43176313,0.01873094,-0.03403284,-0.01702898,-0.00153475,0.0
 0026610,-0.00072817,0.00047897,-0.00021775,-0.00031097,0.02823688,-0.1
 4014235,-0.04945516,0.09881137,0.28748945,0.00053006,0.00848897,0.0107
 5406,-0.00101730,0.00493678,0.00191445,-0.00269942,-0.00112005,0.00051
 800,0.03644719,-0.10033363,-0.09892017,-0.17690629,0.02199066,0.141164
 17,0.00105499,0.00059466,-0.01315274,-0.04389300,-0.07242462,0.0367376
 5,-0.32726268,-0.04322172,0.20307945,0.00107027,-0.00340139,0.00509990
 ,0.00087617,-0.00079041,0.00120626,0.43796596,-0.01627540,0.02039777,-
 0.00984278,-0.09970516,-0.01401825,0.07024320,-0.09764789,-0.12519487,
 0.05266484,0.00224405,-0.00028259,0.00058432,0.00179318,-0.00178785,-0
 .00005155,0.12352442,0.07293174,-0.00483247,0.00611888,0.00415249,-0.0
 0967028,0.03969421,0.05662224,0.15700924,-0.02295103,-0.20552542,-0.00
 013838,0.00135418,-0.00166513,0.00033611,-0.00020473,-0.00110545,-0.23
 490714,-0.07836119,0.18748978,-0.00346792,0.00104379,0.00090643,-0.000
 15163,-0.00169053,-0.00079710,0.00171021,0.00103213,-0.00046751,-0.005
 31333,0.00053345,0.00429700,-0.35230030,-0.14424907,0.14397032,-0.0015
 9478,-0.00109496,0.00061205,0.36067907,0.00360781,0.00094055,-0.005566
 57,-0.00174574,0.00206202,0.00050130,-0.00148940,-0.00178616,0.0001610
 1,0.04094874,-0.00203683,-0.02088307,-0.18621687,-0.11507282,0.0620121
 8,0.00096086,0.00016783,-0.00092347,0.14350301,0.11749751,-0.00144554,
 -0.00036716,0.00182363,0.00058623,-0.00213485,-0.00034952,0.00224983,0
 .00104353,-0.00042400,0.02117320,-0.00207247,-0.01538647,0.12822676,0.
 04049226,-0.05855260,-0.00120901,-0.00004563,0.00094188,-0.14893168,-0
 .03753676,0.07232446,-0.15943233,-0.10752075,-0.06687690,-0.00962024,-
 0.01354583,-0.00644037,0.00009641,0.00061352,0.00335694,-0.02092048,0.
 00049096,-0.02215704,0.00236517,-0.00310573,0.00066929,-0.00162837,-0.
 00116889,-0.00016430,0.00006829,0.00009836,-0.00007206,0.17495893,-0.1
 1147717,-0.15502745,-0.07634395,-0.00882711,-0.00875774,-0.00627923,-0
 .00216254,0.00169856,0.00291408,0.02079580,0.00861239,0.01519638,-0.00
 093146,0.00364413,0.00173389,-0.00147852,-0.00179486,0.00016507,-0.000
 12333,-0.00043221,-0.00023722,0.11510740,0.16206249,-0.07240288,-0.071
 02752,-0.09807707,0.01549872,0.01543645,0.00900502,0.00252413,-0.00043
 753,-0.00305076,-0.02254261,-0.00661631,-0.01832912,0.00287682,0.00050
 679,0.00230605,0.00192687,0.00194413,-0.00037922,0.00038615,0.00015952
 ,-0.00030202,0.08533177,0.07117029,0.11439003,-0.10498733,0.06605027,0
 .07477105,-0.00668751,0.00642810,0.01344753,0.00071022,0.00140026,-0.0
 0016173,-0.01350348,0.02089924,0.01050350,-0.00316933,0.00206796,-0.00
 232071,-0.00054016,-0.00193498,-0.00049352,0.00010732,0.00053773,-0.00
 002881,0.01285479,-0.01205208,-0.01269097,0.11538205,0.06677734,-0.133
 48993,-0.09454628,-0.01101130,0.01135334,0.01256792,-0.00067635,0.0006
 6914,0.00037303,0.01264553,-0.01868485,-0.01134899,0.00540451,-0.00205
 823,0.00272507,-0.00099591,-0.00328119,-0.00105183,0.00012824,-0.00105
 572,0.00034134,0.00895098,-0.00979061,-0.01192412,-0.08358885,0.154422
 18,0.07854583,-0.10669389,-0.15546375,0.01400874,-0.00770399,-0.015882
 43,-0.00035013,0.00012393,0.00005941,-0.00862302,0.01230474,0.00997078
 ,-0.00527214,0.00492715,0.00150481,0.00089051,0.00494806,0.00171910,-0
 .00015851,0.00112182,-0.00009539,0.00717484,-0.00751689,-0.00763809,-0
 .08431467,0.10177706,0.16658678,0.00112648,0.00055294,-0.00162280,0.01
 148189,-0.00987806,-0.00864297,-0.05252618,0.02304851,0.02243546,-0.00
 001438,-0.00011859,0.00008345,-0.00015065,-0.00004659,0.00035935,-0.01
 275203,0.02199832,0.03129595,-0.00009478,0.00021165,-0.00020190,-0.000
 18197,0.00020378,0.00007673,-0.00025151,0.00048770,0.00077052,0.054589
 46,-0.00000741,0.00085246,-0.00074215,-0.00017091,0.00405224,-0.012010
 72,0.01926143,-0.20466965,-0.13100706,0.00022950,-0.00001219,0.0003867
 9,0.00000345,0.00000217,0.00001413,0.00625006,0.01117836,-0.00466254,-
 0.00000296,-0.00006245,-0.00001720,-0.00020064,0.00005756,0.00030264,-
 0.00042029,-0.00013019,0.00062312,-0.02545440,0.18633645,-0.00034676,-
 0.00048201,-0.00071722,0.00762820,-0.00437752,0.00438276,0.03108259,-0
 .12268355,-0.18597034,0.00006629,-0.00014339,0.00014576,0.00000144,-0.
 00003490,0.00028443,0.00152091,-0.01919031,-0.00616249,-0.00012188,0.0
 0019139,-0.00024426,-0.00009109,-0.00007902,0.00004567,-0.00013880,-0.
 00016553,0.00035068,-0.04597567,0.15259126,0.18983318,0.00955726,-0.01
 771618,0.00226071,0.01641276,-0.00349934,-0.04677505,0.05270925,0.0617
 5727,-0.01114784,-0.00103886,-0.00010283,0.00040532,-0.00115079,0.0017
 5810,-0.00043700,-0.04447451,0.05610378,0.04186306,0.00099602,-0.00025
 540,0.00024162,0.00016661,0.00041588,-0.00030834,0.00175086,0.00235208
 ,-0.00430056,-0.00228713,-0.00017342,0.00538857,-0.00617412,0.00567846
 ,-0.01587098,0.00120898,0.05156981,-0.04956068,-0.05031948,0.10756112,
 0.02559601,-0.07994789,-0.00016581,0.00033146,0.00036211,-0.00119528,0
 .00144408,0.00037546,-0.01942482,0.05109255,0.07404342,0.00053298,-0.0
 0022831,0.00008515,-0.00008973,-0.00010082,0.00019802,0.00065059,0.002
 09000,-0.00375702,-0.01025597,0.00636990,-0.00701373,-0.11494068,-0.03
 581942,-0.00079877,-0.00104737,-0.00500988,-0.00958054,0.00653090,-0.0
 0137306,0.01499856,-0.04279431,-0.01505240,0.00023178,-0.00044498,0.00
 043149,-0.00015840,-0.00003337,0.00002393,-0.00878751,-0.01760538,-0.0
 2977997,0.00009094,0.00066692,0.00003923,-0.00036551,-0.00050224,0.000
 55681,0.00044249,0.00065901,-0.00020366,0.00241997,-0.00358548,-0.0025
 0440,0.00520075,0.05570924,0.05318125,0.00709423,-0.00186275,0.0175238
 5,-0.06884182,-0.02375503,-0.13536155,0.01330716,0.01947051,-0.0167675
 3,-0.00100763,0.00023125,0.00137815,0.00051055,-0.00035766,0.00019825,
 -0.00882186,0.01216351,0.01908969,-0.00063819,-0.00016074,-0.00058864,
 0.00127321,0.00052935,-0.00067638,-0.00166591,-0.00047396,0.00162858,0
 .00106078,0.00068559,0.00098622,-0.02646734,-0.01992068,-0.00369376,0.
 08419682,0.00785723,0.00131353,0.01135669,-0.01337735,-0.02144351,0.03
 545114,-0.03094682,-0.01506860,-0.02178452,-0.00159361,-0.00372741,0.0
 0519525,-0.00006855,0.00046593,-0.00077189,0.01040738,-0.00940863,-0.0
 1322096,0.00038724,0.00000661,0.00044901,0.00037034,-0.00017144,0.0002
 8764,-0.00003795,-0.00004393,-0.00015409,-0.00074928,-0.00397464,0.001
 38730,0.01430075,0.01465621,0.00244707,0.01345063,0.03739589,-0.009473
 73,0.00016766,-0.01472053,-0.11066439,0.02310018,-0.25603099,-0.012979
 59,-0.00649064,-0.00692848,0.00209566,0.00164289,-0.00241415,-0.000299
 48,-0.00012059,0.00010834,0.00759485,-0.00528770,-0.00630782,0.0002137
 9,0.00009573,0.00022505,-0.00036557,-0.00022116,0.00147270,0.00098465,
 0.00059331,-0.00090823,-0.00099808,-0.00189278,0.00055622,0.00760875,0
 .00905573,-0.00030936,0.11628313,-0.02064264,0.28525727\\-0.00000697,-
 0.00000209,0.00000961,0.00001821,0.00001010,0.00000675,-0.00001402,-0.
 00000514,0.00000255,0.00000163,0.00000609,-0.00000708,0.00000036,-0.00
 000058,-0.00000481,0.00000826,0.00000258,-0.00000915,0.00000007,-0.000
 00159,0.00000146,-0.00000641,-0.00000464,0.00000069,-0.00000192,0.0000
 0149,-0.00000523,0.00000280,-0.00000180,0.00000076,0.00000418,-0.00000
 383,0.00000421,-0.00000620,-0.00000059,0.00000024\\\@


 ... SUBJECTS WHICH DISCLOSE THEIR FULL POWER, MEANING AND BEAUTY AS SOON
 AS THEY ARE PRESENTED TO THE MIND HAVE VERY LITTLE OF THOSE QUALITIES
 TO DISCLOSE.
                           -- CHARLES DUTTON (1882)
 Job cpu time:       0 days  0 hours  4 minutes  5.9 seconds.
 Elapsed time:       0 days  0 hours  0 minutes 15.6 seconds.
 File lengths (MBytes):  RWF=     27 Int=      0 D2E=      0 Chk=      3 Scr=      1
 Normal termination of Gaussian 16 at Wed Dec 23 22:03:52 2020.
