 Entering Gaussian System, Link 0=g16
 Initial command:
 /apps/cent7/gaussian/g16-B.01/g16-haswell/g16/l1.exe "/scratch/bell/zhao922/YARP/paper-example/KHP-network/pp_0/TS-folder/Gau-18273.inp" -scrdir="/scratch/bell/zhao922/YARP/paper-example/KHP-network/pp_0/TS-folder/"
 Entering Link 1 = /apps/cent7/gaussian/g16-B.01/g16-haswell/g16/l1.exe PID=     18275.
  
 Copyright (c) 1988-2017, Gaussian, Inc.  All Rights Reserved.
  
 This is part of the Gaussian(R) 16 program.  It is based on
 the Gaussian(R) 09 system (copyright 2009, Gaussian, Inc.),
 the Gaussian(R) 03 system (copyright 2003, Gaussian, Inc.),
 the Gaussian(R) 98 system (copyright 1998, Gaussian, Inc.),
 the Gaussian(R) 94 system (copyright 1995, Gaussian, Inc.),
 the Gaussian 92(TM) system (copyright 1992, Gaussian, Inc.),
 the Gaussian 90(TM) system (copyright 1990, Gaussian, Inc.),
 the Gaussian 88(TM) system (copyright 1988, Gaussian, Inc.),
 the Gaussian 86(TM) system (copyright 1986, Carnegie Mellon
 University), and the Gaussian 82(TM) system (copyright 1983,
 Carnegie Mellon University). Gaussian is a federally registered
 trademark of Gaussian, Inc.
  
 This software contains proprietary and confidential information,
 including trade secrets, belonging to Gaussian, Inc.
  
 This software is provided under written license and may be
 used, copied, transmitted, or stored only in accord with that
 written license.
  
 The following legend is applicable only to US Government
 contracts under FAR:
  
                    RESTRICTED RIGHTS LEGEND
  
 Use, reproduction and disclosure by the US Government is
 subject to restrictions as set forth in subparagraphs (a)
 and (c) of the Commercial Computer Software - Restricted
 Rights clause in FAR 52.227-19.
  
 Gaussian, Inc.
 340 Quinnipiac St., Bldg. 40, Wallingford CT 06492
  
  
 ---------------------------------------------------------------
 Warning -- This program may not be used in any manner that
 competes with the business of Gaussian, Inc. or will provide
 assistance to any competitor of Gaussian, Inc.  The licensee
 of this program is prohibited from giving any competitor of
 Gaussian, Inc. access to this program.  By using this program,
 the user acknowledges that Gaussian, Inc. is engaged in the
 business of creating and licensing software in the field of
 computational chemistry and represents and warrants to the
 licensee that it is not a competitor of Gaussian, Inc. and that
 it will not use this program in any manner prohibited above.
 ---------------------------------------------------------------
  

 Cite this work as:
 Gaussian 16, Revision B.01,
 M. J. Frisch, G. W. Trucks, H. B. Schlegel, G. E. Scuseria, 
 M. A. Robb, J. R. Cheeseman, G. Scalmani, V. Barone, 
 G. A. Petersson, H. Nakatsuji, X. Li, M. Caricato, A. V. Marenich, 
 J. Bloino, B. G. Janesko, R. Gomperts, B. Mennucci, H. P. Hratchian, 
 J. V. Ortiz, A. F. Izmaylov, J. L. Sonnenberg, D. Williams-Young, 
 F. Ding, F. Lipparini, F. Egidi, J. Goings, B. Peng, A. Petrone, 
 T. Henderson, D. Ranasinghe, V. G. Zakrzewski, J. Gao, N. Rega, 
 G. Zheng, W. Liang, M. Hada, M. Ehara, K. Toyota, R. Fukuda, 
 J. Hasegawa, M. Ishida, T. Nakajima, Y. Honda, O. Kitao, H. Nakai, 
 T. Vreven, K. Throssell, J. A. Montgomery, Jr., J. E. Peralta, 
 F. Ogliaro, M. J. Bearpark, J. J. Heyd, E. N. Brothers, K. N. Kudin, 
 V. N. Staroverov, T. A. Keith, R. Kobayashi, J. Normand, 
 K. Raghavachari, A. P. Rendell, J. C. Burant, S. S. Iyengar, 
 J. Tomasi, M. Cossi, J. M. Millam, M. Klene, C. Adamo, R. Cammi, 
 J. W. Ochterski, R. L. Martin, K. Morokuma, O. Farkas, 
 J. B. Foresman, and D. J. Fox, Gaussian, Inc., Wallingford CT, 2016.
 
 ******************************************
 Gaussian 16:  ES64L-G16RevB.01 20-Dec-2017
                23-Dec-2020 
 ******************************************
 %NProcShared=16
 Will use up to   16 processors via shared memory.
 %Mem=6GB
 --------------------------------------------------------------
 # B3LYP/6-31+G* OPT=(TS, CALCALL, NOEIGEN, maxcycles=100) Freq
 --------------------------------------------------------------
 1/5=1,6=100,10=4,11=1,18=20,26=3,38=1/1,3;
 2/9=110,12=2,17=6,18=5,40=1/2;
 3/5=1,6=6,7=11,11=2,25=1,30=1,71=2,74=-5,140=1/1,2,3;
 4//1;
 5/5=2,38=5/2;
 8/6=4,10=90,11=11/1;
 11/6=1,8=1,9=11,15=111,16=1/1,2,10;
 10/6=1/2;
 6/7=2,8=2,9=2,10=2,18=1,28=1/1;
 7/10=1,25=1/1,2,3,16;
 1/5=1,6=100,10=4,11=1,18=20,26=3/3(3);
 2/9=110/2;
 7/8=1,9=1,25=1,44=-1/16;
 99//99;
 2/9=110/2;
 3/5=1,6=6,7=11,11=2,25=1,30=1,71=2,74=-5,140=1/1,2,3;
 4/5=5,16=3,69=1/1;
 5/5=2,38=5/2;
 8/6=4,10=90,11=11/1;
 11/6=1,8=1,9=11,15=111,16=1/1,2,10;
 10/6=1/2;
 7/10=1,25=1/1,2,3,16;
 1/5=1,6=100,10=4,11=1,18=20,26=3/3(-8);
 2/9=110/2;
 6/7=2,8=2,9=2,10=2,18=1,19=2,28=1/1;
 7/8=1,9=1,25=1,44=-1/16;
 99//99;
 ----------
 pp_12_0 TS
 ----------
 Symbolic Z-matrix:
 Charge =  0 Multiplicity = 1
 C                     0.68646   1.23023  -2.19994 
 C                     0.17795   0.68058  -1.0348 
 C                     1.68994  -0.42004  -1.08924 
 O                     0.87125   2.4815   -2.55801 
 O                     1.32801   3.35258  -1.51865 
 O                     1.81321  -0.98389  -0.03871 
 H                     1.32814   4.20533  -1.96421 
 H                     2.43055   0.95014  -1.31013 
 H                     0.53461   0.66449  -3.12717 
 H                     1.78485  -0.7834   -2.09064 
 H                    -0.7415    0.11758  -1.002 
 H                     0.41755   1.19601  -0.11836 
 
 Add virtual bond connecting atoms H8         and C3         Dist= 2.97D+00.
 Add virtual bond connecting atoms C3         and C2         Dist= 3.54D+00.
 Add virtual bond connecting atoms H8         and C1         Dist= 3.74D+00.

 GradGradGradGradGradGradGradGradGradGradGradGradGradGradGradGradGradGrad
 Berny optimization.
 Initialization pass.
                           ----------------------------
                           !    Initial Parameters    !
                           ! (Angstroms and Degrees)  !
 --------------------------                            --------------------------
 ! Name  Definition              Value          Derivative Info.                !
 --------------------------------------------------------------------------------
 ! R1    R(1,2)                  1.385          calculate D2E/DX2 analytically  !
 ! R2    R(1,4)                  1.3145         calculate D2E/DX2 analytically  !
 ! R3    R(1,8)                  1.9779         calculate D2E/DX2 analytically  !
 ! R4    R(1,9)                  1.0968         calculate D2E/DX2 analytically  !
 ! R5    R(2,3)                  1.8709         calculate D2E/DX2 analytically  !
 ! R6    R(2,11)                 1.0786         calculate D2E/DX2 analytically  !
 ! R7    R(2,12)                 1.0784         calculate D2E/DX2 analytically  !
 ! R8    R(3,6)                  1.1986         calculate D2E/DX2 analytically  !
 ! R9    R(3,8)                  1.5731         calculate D2E/DX2 analytically  !
 ! R10   R(3,10)                 1.0695         calculate D2E/DX2 analytically  !
 ! R11   R(4,5)                  1.431          calculate D2E/DX2 analytically  !
 ! R12   R(5,7)                  0.9621         calculate D2E/DX2 analytically  !
 ! A1    A(2,1,4)              131.1861         calculate D2E/DX2 analytically  !
 ! A2    A(2,1,8)               83.6322         calculate D2E/DX2 analytically  !
 ! A3    A(2,1,9)              117.1087         calculate D2E/DX2 analytically  !
 ! A4    A(4,1,8)               97.6648         calculate D2E/DX2 analytically  !
 ! A5    A(4,1,9)              106.2707         calculate D2E/DX2 analytically  !
 ! A6    A(8,1,9)              115.4286         calculate D2E/DX2 analytically  !
 ! A7    A(1,2,3)               84.9667         calculate D2E/DX2 analytically  !
 ! A8    A(1,2,11)             123.0717         calculate D2E/DX2 analytically  !
 ! A9    A(1,2,12)             116.3372         calculate D2E/DX2 analytically  !
 ! A10   A(3,2,11)             112.502          calculate D2E/DX2 analytically  !
 ! A11   A(3,2,12)              97.2582         calculate D2E/DX2 analytically  !
 ! A12   A(11,2,12)            114.3958         calculate D2E/DX2 analytically  !
 ! A13   A(2,3,6)              109.532          calculate D2E/DX2 analytically  !
 ! A14   A(2,3,8)               82.6562         calculate D2E/DX2 analytically  !
 ! A15   A(2,3,10)             107.3872         calculate D2E/DX2 analytically  !
 ! A16   A(6,3,8)              118.9714         calculate D2E/DX2 analytically  !
 ! A17   A(6,3,10)             130.6682         calculate D2E/DX2 analytically  !
 ! A18   A(8,3,10)              97.0458         calculate D2E/DX2 analytically  !
 ! A19   A(1,4,5)              115.2431         calculate D2E/DX2 analytically  !
 ! A20   A(4,5,7)              101.7242         calculate D2E/DX2 analytically  !
 ! A21   A(1,8,3)               76.7834         calculate D2E/DX2 analytically  !
 ! D1    D(4,1,2,3)           -131.4437         calculate D2E/DX2 analytically  !
 ! D2    D(4,1,2,11)           114.9079         calculate D2E/DX2 analytically  !
 ! D3    D(4,1,2,12)           -35.8242         calculate D2E/DX2 analytically  !
 ! D4    D(8,1,2,3)            -36.816          calculate D2E/DX2 analytically  !
 ! D5    D(8,1,2,11)          -150.4645         calculate D2E/DX2 analytically  !
 ! D6    D(8,1,2,12)            58.8034         calculate D2E/DX2 analytically  !
 ! D7    D(9,1,2,3)             78.5401         calculate D2E/DX2 analytically  !
 ! D8    D(9,1,2,11)           -35.1084         calculate D2E/DX2 analytically  !
 ! D9    D(9,1,2,12)           174.1595         calculate D2E/DX2 analytically  !
 ! D10   D(2,1,4,5)             38.4519         calculate D2E/DX2 analytically  !
 ! D11   D(8,1,4,5)            -49.7748         calculate D2E/DX2 analytically  !
 ! D12   D(9,1,4,5)           -169.1557         calculate D2E/DX2 analytically  !
 ! D13   D(2,1,8,3)             46.8252         calculate D2E/DX2 analytically  !
 ! D14   D(4,1,8,3)            177.635          calculate D2E/DX2 analytically  !
 ! D15   D(9,1,8,3)            -70.2161         calculate D2E/DX2 analytically  !
 ! D16   D(1,2,3,6)            167.2198         calculate D2E/DX2 analytically  !
 ! D17   D(1,2,3,8)             49.0245         calculate D2E/DX2 analytically  !
 ! D18   D(1,2,3,10)           -46.0956         calculate D2E/DX2 analytically  !
 ! D19   D(11,2,3,6)           -68.9689         calculate D2E/DX2 analytically  !
 ! D20   D(11,2,3,8)           172.8357         calculate D2E/DX2 analytically  !
 ! D21   D(11,2,3,10)           77.7157         calculate D2E/DX2 analytically  !
 ! D22   D(12,2,3,6)            51.2594         calculate D2E/DX2 analytically  !
 ! D23   D(12,2,3,8)           -66.936          calculate D2E/DX2 analytically  !
 ! D24   D(12,2,3,10)         -162.056          calculate D2E/DX2 analytically  !
 ! D25   D(2,3,8,1)            -32.7495         calculate D2E/DX2 analytically  !
 ! D26   D(6,3,8,1)           -141.0477         calculate D2E/DX2 analytically  !
 ! D27   D(10,3,8,1)            73.9685         calculate D2E/DX2 analytically  !
 ! D28   D(1,4,5,7)           -175.7025         calculate D2E/DX2 analytically  !
 --------------------------------------------------------------------------------
 Trust Radius=3.00D-01 FncErr=1.00D-07 GrdErr=1.00D-06 EigMax=2.50D+02 EigMin=1.00D-04
 Number of steps in this run=    100 maximum allowed number of steps=    100.
 Search for a saddle point of order  1.
 GradGradGradGradGradGradGradGradGradGradGradGradGradGradGradGradGradGrad

                          Input orientation:                          
 ---------------------------------------------------------------------
 Center     Atomic      Atomic             Coordinates (Angstroms)
 Number     Number       Type             X           Y           Z
 ---------------------------------------------------------------------
      1          6           0        0.686457    1.230226   -2.199944
      2          6           0        0.177946    0.680577   -1.034796
      3          6           0        1.689937   -0.420040   -1.089240
      4          8           0        0.871247    2.481495   -2.558006
      5          8           0        1.328011    3.352575   -1.518646
      6          8           0        1.813205   -0.983894   -0.038712
      7          1           0        1.328136    4.205325   -1.964214
      8          1           0        2.430552    0.950135   -1.310126
      9          1           0        0.534605    0.664493   -3.127173
     10          1           0        1.784851   -0.783397   -2.090636
     11          1           0       -0.741500    0.117581   -1.002003
     12          1           0        0.417550    1.196009   -0.118359
 ---------------------------------------------------------------------
                    Distance matrix (angstroms):
                    1          2          3          4          5
     1  C    0.000000
     2  C    1.385015   0.000000
     3  C    2.228007   1.870946   0.000000
     4  O    1.314545   2.458483   3.353570   0.000000
     5  O    2.319509   2.948955   3.814185   1.430973   0.000000
     6  O    3.292843   2.537069   1.198639   4.386690   4.607665
     7  H    3.052627   3.822382   4.721280   1.879608   0.962140
     8  H    1.977902   2.285323   1.573112   2.516684   2.651565
     9  H    1.096753   2.122618   2.581506   1.933591   3.231507
    10  H    2.296322   2.416643   1.069500   3.422372   4.200255
    11  H    2.170738   1.078620   2.491693   3.257328   3.874917
    12  H    2.099161   1.078396   2.274465   2.794672   2.727732
                    6          7          8          9         10
     6  O    0.000000
     7  H    5.556154   0.000000
     8  H    2.395429   3.498487   0.000000
     9  H    3.727008   3.810467   2.641565   0.000000
    10  H    2.061891   5.011179   2.007800   2.175755   0.000000
    11  H    2.944095   4.681762   3.293934   2.538485   2.894708
    12  H    2.589628   3.645865   2.352220   3.057642   3.110858
                   11         12
    11  H    0.000000
    12  H    1.813072   0.000000
 Stoichiometry    C3H6O3
 Framework group  C1[X(C3H6O3)]
 Deg. of freedom    30
 Full point group                 C1      NOp   1
 Largest Abelian subgroup         C1      NOp   1
 Largest concise Abelian subgroup C1      NOp   1
                         Standard orientation:                         
 ---------------------------------------------------------------------
 Center     Atomic      Atomic             Coordinates (Angstroms)
 Number     Number       Type             X           Y           Z
 ---------------------------------------------------------------------
      1          6           0        0.445065    0.751397   -0.153564
      2          6           0       -0.441445    0.498347    0.880038
      3          6           0       -1.617896   -0.025441   -0.477182
      4          8           0        1.703583    0.409113   -0.317891
      5          8           0        2.042604   -0.905364    0.134766
      6          8           0       -2.553119   -0.601058    0.003191
      7          1           0        2.993710   -0.922578   -0.009507
      8          1           0       -0.373632   -0.860230   -0.956364
      9          1           0        0.303599    1.681784   -0.716800
     10          1           0       -1.576959    0.721527   -1.241508
     11          1           0       -0.852699    1.274503    1.506036
     12          1           0       -0.352908   -0.462349    1.361869
 ---------------------------------------------------------------------
 Rotational constants (GHZ):           8.5032251           1.7571922           1.6607257
 Standard basis: 6-31+G(d) (6D, 7F)
 There are   126 symmetry adapted cartesian basis functions of A   symmetry.
 There are   126 symmetry adapted basis functions of A   symmetry.
   126 basis functions,   216 primitive gaussians,   126 cartesian basis functions
    24 alpha electrons       24 beta electrons
       nuclear repulsion energy       236.6680205205 Hartrees.
 NAtoms=   12 NActive=   12 NUniq=   12 SFac= 1.00D+00 NAtFMM=   60 NAOKFM=F Big=F
 Integral buffers will be    131072 words long.
 Raffenetti 2 integral format.
 Two-electron integral symmetry is turned on.
 One-electron integrals computed using PRISM.
 NBasis=   126 RedAO= T EigKep=  8.03D-05  NBF=   126
 NBsUse=   126 1.00D-06 EigRej= -1.00D+00 NBFU=   126
 ExpMin= 4.38D-02 ExpMax= 5.48D+03 ExpMxC= 8.25D+02 IAcc=3 IRadAn=         5 AccDes= 0.00D+00
 Harris functional with IExCor=  402 and IRadAn=       5 diagonalized for initial guess.
 HarFok:  IExCor=  402 AccDes= 0.00D+00 IRadAn=         5 IDoV= 1 UseB2=F ITyADJ=14
 ICtDFT=  3500011 ScaDFX=  1.000000  1.000000  1.000000  1.000000
 FoFCou: FMM=F IPFlag=           0 FMFlag=      100000 FMFlg1=           0
         NFxFlg=           0 DoJE=T BraDBF=F KetDBF=T FulRan=T
         wScrn=  0.000000 ICntrl=       500 IOpCl=  0 I1Cent=   200000004 NGrid=           0
         NMat0=    1 NMatS0=      1 NMatT0=    0 NMatD0=    1 NMtDS0=    0 NMtDT0=    0
 Petite list used in FoFCou.
 Keep R1 ints in memory in canonical form, NReq=47237537.
 Requested convergence on RMS density matrix=1.00D-08 within 128 cycles.
 Requested convergence on MAX density matrix=1.00D-06.
 Requested convergence on             energy=1.00D-06.
 No special actions if energy rises.
 EnCoef did     2 forward-backward iterations
 EnCoef did     3 forward-backward iterations
 SCF Done:  E(RB3LYP) =  -343.318752636     A.U. after   18 cycles
            NFock= 18  Conv=0.26D-08     -V/T= 2.0085
 DoSCS=F DFT=T ScalE2(SS,OS)=  1.000000  1.000000
 Range of M.O.s used for correlation:     1   126
 NBasis=   126 NAE=    24 NBE=    24 NFC=     0 NFV=     0
 NROrb=    126 NOA=    24 NOB=    24 NVA=   102 NVB=   102

 **** Warning!!: The largest alpha MO coefficient is  0.34608966D+02

 Symmetrizing basis deriv contribution to polar:
 IMax=3 JMax=2 DiffMx= 0.00D+00
 G2DrvN: will do    13 centers at a time, making    1 passes.
 Calling FoFCou, ICntrl=  3107 FMM=F I1Cent=   0 AccDes= 0.00D+00.
 End of G2Drv F.D. properties file   721 does not exist.
 End of G2Drv F.D. properties file   722 does not exist.
 End of G2Drv F.D. properties file   788 does not exist.
          IDoAtm=111111111111
          Differentiating once with respect to electric field.
                with respect to dipole field.
          Differentiating once with respect to nuclear coordinates.
 Keep R1 ints in memory in canonical form, NReq=47193545.
          There are    39 degrees of freedom in the 1st order CPHF.  IDoFFX=6 NUNeed=     3.
     36 vectors produced by pass  0 Test12= 6.28D-15 2.56D-09 XBig12= 2.10D+02 1.14D+01.
 AX will form    36 AO Fock derivatives at one time.
     36 vectors produced by pass  1 Test12= 6.28D-15 2.56D-09 XBig12= 9.16D+01 1.87D+00.
     36 vectors produced by pass  2 Test12= 6.28D-15 2.56D-09 XBig12= 9.89D-01 1.51D-01.
     36 vectors produced by pass  3 Test12= 6.28D-15 2.56D-09 XBig12= 3.88D-03 9.22D-03.
     36 vectors produced by pass  4 Test12= 6.28D-15 2.56D-09 XBig12= 6.17D-06 3.18D-04.
     29 vectors produced by pass  5 Test12= 6.28D-15 2.56D-09 XBig12= 7.71D-09 1.16D-05.
      4 vectors produced by pass  6 Test12= 6.28D-15 2.56D-09 XBig12= 7.90D-12 3.47D-07.
      2 vectors produced by pass  7 Test12= 6.28D-15 2.56D-09 XBig12= 6.51D-15 1.06D-08.
 InvSVY:  IOpt=1 It=  1 EMax= 4.44D-15
 Solved reduced A of dimension   215 with    39 vectors.
 Isotropic polarizability for W=    0.000000       66.70 Bohr**3.
 End of Minotr F.D. properties file   721 does not exist.
 End of Minotr F.D. properties file   722 does not exist.
 End of Minotr F.D. properties file   788 does not exist.

 **********************************************************************

            Population analysis using the SCF Density.

 **********************************************************************

 Orbital symmetries:
       Occupied  (A) (A) (A) (A) (A) (A) (A) (A) (A) (A) (A) (A)
                 (A) (A) (A) (A) (A) (A) (A) (A) (A) (A) (A) (A)
       Virtual   (A) (A) (A) (A) (A) (A) (A) (A) (A) (A) (A) (A)
                 (A) (A) (A) (A) (A) (A) (A) (A) (A) (A) (A) (A)
                 (A) (A) (A) (A) (A) (A) (A) (A) (A) (A) (A) (A)
                 (A) (A) (A) (A) (A) (A) (A) (A) (A) (A) (A) (A)
                 (A) (A) (A) (A) (A) (A) (A) (A) (A) (A) (A) (A)
                 (A) (A) (A) (A) (A) (A) (A) (A) (A) (A) (A) (A)
                 (A) (A) (A) (A) (A) (A) (A) (A) (A) (A) (A) (A)
                 (A) (A) (A) (A) (A) (A) (A) (A) (A) (A) (A) (A)
                 (A) (A) (A) (A) (A) (A)
 The electronic state is 1-A.
 Alpha  occ. eigenvalues --  -19.30158 -19.27185 -19.13189 -10.33142 -10.29032
 Alpha  occ. eigenvalues --  -10.20092  -1.21321  -1.03915  -1.01269  -0.80682
 Alpha  occ. eigenvalues --   -0.66765  -0.61539  -0.58375  -0.54656  -0.50967
 Alpha  occ. eigenvalues --   -0.49297  -0.44790  -0.42865  -0.40691  -0.39840
 Alpha  occ. eigenvalues --   -0.38723  -0.33972  -0.24556  -0.21411
 Alpha virt. eigenvalues --   -0.09618  -0.04050  -0.00822   0.00917   0.01639
 Alpha virt. eigenvalues --    0.03152   0.05317   0.06383   0.06920   0.08127
 Alpha virt. eigenvalues --    0.08228   0.08926   0.10952   0.12781   0.14053
 Alpha virt. eigenvalues --    0.15785   0.16427   0.17136   0.17629   0.18813
 Alpha virt. eigenvalues --    0.22516   0.23805   0.24391   0.24975   0.26390
 Alpha virt. eigenvalues --    0.27232   0.27826   0.29210   0.30963   0.31598
 Alpha virt. eigenvalues --    0.33448   0.33765   0.34764   0.36323   0.39204
 Alpha virt. eigenvalues --    0.48326   0.60345   0.66328   0.67849   0.70273
 Alpha virt. eigenvalues --    0.72356   0.77259   0.79131   0.81944   0.89461
 Alpha virt. eigenvalues --    0.93477   0.94413   0.95519   1.00595   1.02833
 Alpha virt. eigenvalues --    1.07493   1.08739   1.09221   1.13889   1.17449
 Alpha virt. eigenvalues --    1.18324   1.20908   1.24702   1.26367   1.28686
 Alpha virt. eigenvalues --    1.30602   1.33802   1.40125   1.45185   1.46357
 Alpha virt. eigenvalues --    1.52597   1.54068   1.57029   1.59593   1.64019
 Alpha virt. eigenvalues --    1.67495   1.68559   1.72659   1.74565   1.81096
 Alpha virt. eigenvalues --    1.86970   1.92863   1.94394   1.95962   2.00918
 Alpha virt. eigenvalues --    2.12726   2.14198   2.28048   2.29376   2.34645
 Alpha virt. eigenvalues --    2.36903   2.43481   2.46229   2.56883   2.61678
 Alpha virt. eigenvalues --    2.63648   2.75079   2.81012   2.96161   3.07235
 Alpha virt. eigenvalues --    3.12818   3.98066   4.18639   4.23822   4.26608
 Alpha virt. eigenvalues --    4.32878   4.46978
          Condensed to atoms (all electrons):
               1          2          3          4          5          6
     1  C    7.868055  -2.004814   0.045406  -0.327028  -0.008258   0.069574
     2  C   -2.004814   7.947342  -0.123657   0.276436   0.023167  -0.199809
     3  C    0.045406  -0.123657   5.177884  -0.019919  -0.012870   0.353106
     4  O   -0.327028   0.276436  -0.019919   8.091938   0.063915  -0.002906
     5  O   -0.008258   0.023167  -0.012870   0.063915   8.255976  -0.000632
     6  O    0.069574  -0.199809   0.353106  -0.002906  -0.000632   8.266716
     7  H    0.025902  -0.011405  -0.000292  -0.030688   0.186571   0.000002
     8  H    0.598413  -0.523047   0.269686  -0.095662   0.007208  -0.034458
     9  H    0.393631  -0.062847   0.002142  -0.068815   0.008653   0.000327
    10  H   -0.150897   0.039433   0.380589   0.009901  -0.000951  -0.060071
    11  H    0.070897   0.264316  -0.008140  -0.001532  -0.000316   0.002568
    12  H   -0.093337   0.437828  -0.012616  -0.009746   0.006076  -0.004291
               7          8          9         10         11         12
     1  C    0.025902   0.598413   0.393631  -0.150897   0.070897  -0.093337
     2  C   -0.011405  -0.523047  -0.062847   0.039433   0.264316   0.437828
     3  C   -0.000292   0.269686   0.002142   0.380589  -0.008140  -0.012616
     4  O   -0.030688  -0.095662  -0.068815   0.009901  -0.001532  -0.009746
     5  O    0.186571   0.007208   0.008653  -0.000951  -0.000316   0.006076
     6  O    0.000002  -0.034458   0.000327  -0.060071   0.002568  -0.004291
     7  H    0.330054   0.000414  -0.000221  -0.000004   0.000003  -0.000041
     8  H    0.000414   0.848303  -0.001124  -0.053325   0.004416  -0.003728
     9  H   -0.000221  -0.001124   0.500754   0.002581  -0.003218   0.004032
    10  H   -0.000004  -0.053325   0.002581   0.621687  -0.004681   0.002353
    11  H    0.000003   0.004416  -0.003218  -0.004681   0.468265  -0.023378
    12  H   -0.000041  -0.003728   0.004032   0.002353  -0.023378   0.441382
 Mulliken charges:
               1
     1  C   -0.487544
     2  C   -0.062942
     3  C   -0.051319
     4  O    0.114107
     5  O   -0.528540
     6  O   -0.390128
     7  H    0.499706
     8  H   -0.017096
     9  H    0.224104
    10  H    0.213385
    11  H    0.230800
    12  H    0.255466
 Sum of Mulliken charges =  -0.00000
 Mulliken charges with hydrogens summed into heavy atoms:
               1
     1  C   -0.263440
     2  C    0.423324
     3  C    0.144971
     4  O    0.114107
     5  O   -0.028834
     6  O   -0.390128
 APT charges:
               1
     1  C    1.027215
     2  C   -0.494393
     3  C    1.192154
     4  O   -0.599562
     5  O   -0.257968
     6  O   -0.909031
     7  H    0.330843
     8  H   -0.395374
     9  H    0.029248
    10  H   -0.051308
    11  H    0.069552
    12  H    0.058622
 Sum of APT charges =  -0.00000
 APT charges with hydrogens summed into heavy atoms:
               1
     1  C    1.056464
     2  C   -0.366219
     3  C    0.745472
     4  O   -0.599562
     5  O    0.072875
     6  O   -0.909031
 Electronic spatial extent (au):  <R**2>=            710.6792
 Charge=             -0.0000 electrons
 Dipole moment (field-independent basis, Debye):
    X=              5.0266    Y=              2.9385    Z=             -0.1273  Tot=              5.8239
 Quadrupole moment (field-independent basis, Debye-Ang):
   XX=            -38.0527   YY=            -35.6509   ZZ=            -36.8875
   XY=             -7.0384   XZ=              0.4698   YZ=             -1.8613
 Traceless Quadrupole moment (field-independent basis, Debye-Ang):
   XX=             -1.1890   YY=              1.2128   ZZ=             -0.0238
   XY=             -7.0384   XZ=              0.4698   YZ=             -1.8613
 Octapole moment (field-independent basis, Debye-Ang**2):
  XXX=             80.0337  YYY=              3.3990  ZZZ=              2.3359  XYY=              7.6032
  XXY=             -2.8726  XXZ=             -3.1851  XZZ=             -0.5196  YZZ=              2.2705
  YYZ=              0.1639  XYZ=              0.5343
 Hexadecapole moment (field-independent basis, Debye-Ang**3):
 XXXX=           -579.1073 YYYY=           -130.5689 ZZZZ=           -110.9199 XXXY=            -72.6186
 XXXZ=              2.1449 YYYX=             -9.2852 YYYZ=             -7.7469 ZZZX=             -3.4028
 ZZZY=             -5.8396 XXYY=           -122.6107 XXZZ=           -122.8304 YYZZ=            -39.1529
 XXYZ=             -0.1951 YYXZ=             -2.1167 ZZXY=             -3.5214
 N-N= 2.366680205205D+02 E-N=-1.277022557160D+03  KE= 3.404178484250D+02
  Exact polarizability:  95.147   2.627  53.049   0.903   4.322  51.911
 Approx polarizability: 182.942  18.417  86.550  -3.918   6.677  75.244
 Calling FoFJK, ICntrl=    100127 FMM=F ISym2X=0 I1Cent= 0 IOpClX= 0 NMat=1 NMatS=1 NMatT=0.
 ***** Axes restored to original set *****
 -------------------------------------------------------------------
 Center     Atomic                   Forces (Hartrees/Bohr)
 Number     Number              X              Y              Z
 -------------------------------------------------------------------
      1        6          -0.032992678    0.007375462    0.004694424
      2        6           0.013357301   -0.006219128    0.009954426
      3        6          -0.006602728    0.049853749   -0.010449548
      4        8           0.021279949    0.020764192   -0.027035822
      5        8          -0.004824771   -0.014899794    0.026657631
      6        8           0.016202045   -0.018421319    0.029914066
      7        1          -0.002392020    0.008326497   -0.012694578
      8        1          -0.006404757   -0.029729590   -0.009307618
      9        1           0.007550871    0.004045200   -0.000356970
     10        1           0.002684212   -0.016336366   -0.008469326
     11        1          -0.003763404   -0.009031887   -0.007698859
     12        1          -0.004094021    0.004272983    0.004792173
 -------------------------------------------------------------------
 Cartesian Forces:  Max     0.049853749 RMS     0.016722307
 FormGI is forming the generalized inverse of G from B-inverse, IUseBI=4.

 GradGradGradGradGradGradGradGradGradGradGradGradGradGradGradGradGradGrad
 Berny optimization.
 Internal  Forces:  Max     0.036549714 RMS     0.008969186
 Search for a saddle point.
 Step number   1 out of a maximum of  100
 All quantities printed in internal units (Hartrees-Bohrs-Radians)
 Swapping is turned off.
 Second derivative matrix not updated -- analytic derivatives used.
 ITU=  0
     Eigenvalues ---   -0.12289  -0.00221  -0.00150   0.00291   0.01291
     Eigenvalues ---    0.01351   0.02006   0.02664   0.02931   0.03653
     Eigenvalues ---    0.03944   0.04775   0.05308   0.06400   0.07393
     Eigenvalues ---    0.09360   0.11351   0.12481   0.16561   0.19287
     Eigenvalues ---    0.24367   0.34141   0.36213   0.37597   0.37917
     Eigenvalues ---    0.38528   0.40706   0.51104   0.54267   0.88415
 Eigenvectors required to have negative eigenvalues:
                          R9        R5        R3        D1        D2
   1                    0.47908  -0.45563  -0.37216  -0.21018  -0.20148
                          D26       D16       R1        A13       D14
   1                   -0.19067  -0.15891   0.15306   0.14866  -0.13009
 RFO step:  Lambda0=3.481174645D-04 Lambda=-3.75437822D-02.
 Linear search not attempted -- option 19 set.
 Maximum step size (   0.300) exceeded in Quadratic search.
    -- Step size scaled by   0.345
 Iteration  1 RMS(Cart)=  0.05904858 RMS(Int)=  0.00692747
 Iteration  2 RMS(Cart)=  0.00845764 RMS(Int)=  0.00118092
 Iteration  3 RMS(Cart)=  0.00018615 RMS(Int)=  0.00116897
 Iteration  4 RMS(Cart)=  0.00000009 RMS(Int)=  0.00116897
 Variable       Old X    -DE/DX   Delta X   Delta X   Delta X     New X
                                 (Linear)    (Quad)   (Total)
    R1        2.61730   0.01074   0.00000   0.02561   0.02627   2.64357
    R2        2.48413   0.01905   0.00000  -0.00501  -0.00501   2.47912
    R3        3.73769   0.00262   0.00000   0.09153   0.09171   3.82941
    R4        2.07256  -0.00283   0.00000  -0.00431  -0.00431   2.06825
    R5        3.53558   0.00479   0.00000  -0.17568  -0.17513   3.36045
    R6        2.03830   0.00769   0.00000   0.00929   0.00929   2.04759
    R7        2.03787   0.00521   0.00000   0.00538   0.00538   2.04325
    R8        2.26510   0.03655   0.00000   0.03462   0.03462   2.29972
    R9        2.97275  -0.01848   0.00000  -0.13666  -0.13819   2.83456
   R10        2.02106   0.01372   0.00000   0.01813   0.01813   2.03919
   R11        2.70415   0.00384   0.00000   0.00263   0.00263   2.70678
   R12        1.81818   0.01326   0.00000   0.00804   0.00804   1.82622
    A1        2.28963   0.00397   0.00000  -0.00658  -0.00660   2.28303
    A2        1.45966  -0.00652   0.00000  -0.08038  -0.08101   1.37865
    A3        2.04393   0.00357   0.00000   0.02482   0.02272   2.06666
    A4        1.70457   0.00587   0.00000   0.05634   0.05522   1.75979
    A5        1.85477  -0.00393   0.00000   0.01270   0.01241   1.86718
    A6        2.01461  -0.00644   0.00000  -0.04617  -0.04424   1.97037
    A7        1.48295   0.00527   0.00000   0.07403   0.07433   1.55728
    A8        2.14801   0.00046   0.00000  -0.01479  -0.01606   2.13194
    A9        2.03047  -0.00387   0.00000  -0.02841  -0.03160   1.99886
   A10        1.96353  -0.00157   0.00000  -0.00034  -0.00138   1.96215
   A11        1.69748  -0.00250   0.00000   0.02318   0.02589   1.72336
   A12        1.99658   0.00237   0.00000  -0.00591  -0.00749   1.98910
   A13        1.91169   0.00971   0.00000   0.04173   0.04271   1.95440
   A14        1.44262   0.00008   0.00000   0.04694   0.04720   1.48982
   A15        1.87426   0.00380   0.00000   0.01738   0.01607   1.89033
   A16        2.07644  -0.00169   0.00000  -0.01652  -0.01831   2.05813
   A17        2.28059  -0.00901   0.00000  -0.05287  -0.05352   2.22707
   A18        1.69377   0.00047   0.00000   0.00281   0.00102   1.69479
   A19        2.01137  -0.02390   0.00000  -0.02551  -0.02551   1.98586
   A20        1.77542  -0.01413   0.00000  -0.01938  -0.01938   1.75604
   A21        1.34012   0.01113   0.00000   0.01574   0.01442   1.35455
    D1       -2.29412   0.00653   0.00000   0.04075   0.03986  -2.25427
    D2        2.00552   0.00479   0.00000  -0.00581  -0.00530   2.00022
    D3       -0.62525   0.00647   0.00000   0.10394   0.10338  -0.52187
    D4       -0.64256   0.00850   0.00000   0.04608   0.04408  -0.59848
    D5       -2.62610   0.00676   0.00000  -0.00048  -0.00108  -2.62718
    D6        1.02631   0.00845   0.00000   0.10927   0.10761   1.13392
    D7        1.37078  -0.00170   0.00000  -0.04441  -0.04585   1.32493
    D8       -0.61276  -0.00344   0.00000  -0.09097  -0.09101  -0.70377
    D9        3.03966  -0.00176   0.00000   0.01878   0.01767   3.05733
   D10        0.67111  -0.01160   0.00000  -0.14658  -0.14716   0.52395
   D11       -0.86873  -0.00845   0.00000  -0.08781  -0.08627  -0.95500
   D12       -2.95232  -0.00258   0.00000  -0.06469  -0.06565  -3.01798
   D13        0.81725  -0.00633   0.00000  -0.06657  -0.06433   0.75292
   D14        3.10032  -0.00303   0.00000  -0.08152  -0.08127   3.01905
   D15       -1.22550  -0.00643   0.00000  -0.05046  -0.05243  -1.27793
   D16        2.91854  -0.00730   0.00000  -0.00711  -0.00664   2.91189
   D17        0.85564  -0.00596   0.00000  -0.00705  -0.00823   0.84740
   D18       -0.80452  -0.00609   0.00000  -0.02246  -0.02291  -0.82743
   D19       -1.20373  -0.00475   0.00000   0.00916   0.00993  -1.19380
   D20        3.01655  -0.00341   0.00000   0.00922   0.00834   3.02490
   D21        1.35639  -0.00354   0.00000  -0.00619  -0.00633   1.35006
   D22        0.89465  -0.00401   0.00000   0.01507   0.01526   0.90991
   D23       -1.16825  -0.00267   0.00000   0.01513   0.01367  -1.15458
   D24       -2.82841  -0.00280   0.00000  -0.00028  -0.00101  -2.82942
   D25       -0.57159   0.00252   0.00000   0.01158   0.01329  -0.55830
   D26       -2.46175  -0.00855   0.00000  -0.06075  -0.05926  -2.52101
   D27        1.29099   0.00633   0.00000   0.03315   0.03405   1.32504
   D28       -3.06659  -0.00026   0.00000  -0.22397  -0.22397   2.99263
         Item               Value     Threshold  Converged?
 Maximum Force            0.036550     0.000450     NO 
 RMS     Force            0.008969     0.000300     NO 
 Maximum Displacement     0.272823     0.001800     NO 
 RMS     Displacement     0.061170     0.001200     NO 
 Predicted change in Energy=-1.406157D-02
 GradGradGradGradGradGradGradGradGradGradGradGradGradGradGradGradGradGrad

                          Input orientation:                          
 ---------------------------------------------------------------------
 Center     Atomic      Atomic             Coordinates (Angstroms)
 Number     Number       Type             X           Y           Z
 ---------------------------------------------------------------------
      1          6           0        0.675231    1.250105   -2.243632
      2          6           0        0.233644    0.668035   -1.050666
      3          6           0        1.659587   -0.394317   -1.069369
      4          8           0        0.841340    2.508995   -2.573282
      5          8           0        1.183639    3.354861   -1.469191
      6          8           0        1.821858   -0.957690   -0.002943
      7          1           0        1.394041    4.176275   -1.932798
      8          1           0        2.439870    0.860637   -1.326679
      9          1           0        0.546699    0.690031   -3.175115
     10          1           0        1.755185   -0.815991   -2.058053
     11          1           0       -0.694716    0.112684   -0.989115
     12          1           0        0.464619    1.237460   -0.161011
 ---------------------------------------------------------------------
                    Distance matrix (angstroms):
                    1          2          3          4          5
     1  C    0.000000
     2  C    1.398918   0.000000
     3  C    2.247660   1.778273   0.000000
     4  O    1.311893   2.465114   3.370535   0.000000
     5  O    2.299616   2.880397   3.800358   1.432367   0.000000
     6  O    3.348104   2.502624   1.216957   4.425603   4.599489
     7  H    3.029154   3.799003   4.659006   1.869632   0.966396
     8  H    2.026435   2.231751   1.499986   2.612738   2.796351
     9  H    1.094470   2.147503   2.616963   1.938464   3.227566
    10  H    2.338696   2.352074   1.079094   3.486561   4.250815
    11  H    2.178140   1.083538   2.409613   3.257508   3.777618
    12  H    2.093282   1.081240   2.217151   2.752776   2.590698
                    6          7          8          9         10
     6  O    0.000000
     7  H    5.501360   0.000000
     8  H    2.332494   3.529107   0.000000
     9  H    3.795219   3.796740   2.651399   0.000000
    10  H    2.061068   5.006879   1.953147   2.230778   0.000000
    11  H    2.907126   4.665428   3.240218   2.579348   2.829679
    12  H    2.585684   3.555234   2.324305   3.064513   3.079122
                   11         12
    11  H    0.000000
    12  H    1.815195   0.000000
 Stoichiometry    C3H6O3
 Framework group  C1[X(C3H6O3)]
 Deg. of freedom    30
 Full point group                 C1      NOp   1
 Largest Abelian subgroup         C1      NOp   1
 Largest concise Abelian subgroup C1      NOp   1
                         Standard orientation:                         
 ---------------------------------------------------------------------
 Center     Atomic      Atomic             Coordinates (Angstroms)
 Number     Number       Type             X           Y           Z
 ---------------------------------------------------------------------
      1          6           0        0.483060    0.787309   -0.068815
      2          6           0       -0.445458    0.340107    0.877143
      3          6           0       -1.615369    0.069796   -0.434534
      4          8           0        1.731033    0.439883   -0.275991
      5          8           0        2.018542   -0.918416    0.076199
      6          8           0       -2.567213   -0.593137   -0.066434
      7          1           0        2.914569   -1.007447   -0.274700
      8          1           0       -0.490356   -0.640630   -1.127065
      9          1           0        0.356261    1.789725   -0.489466
     10          1           0       -1.627361    0.946199   -1.063993
     11          1           0       -0.836348    0.988181    1.652553
     12          1           0       -0.309064   -0.685942    1.189716
 ---------------------------------------------------------------------
 Rotational constants (GHZ):           8.7310459           1.7588235           1.6541846
 Standard basis: 6-31+G(d) (6D, 7F)
 There are   126 symmetry adapted cartesian basis functions of A   symmetry.
 There are   126 symmetry adapted basis functions of A   symmetry.
   126 basis functions,   216 primitive gaussians,   126 cartesian basis functions
    24 alpha electrons       24 beta electrons
       nuclear repulsion energy       237.0381792915 Hartrees.
 NAtoms=   12 NActive=   12 NUniq=   12 SFac= 1.00D+00 NAtFMM=   60 NAOKFM=F Big=F
 Integral buffers will be    131072 words long.
 Raffenetti 2 integral format.
 Two-electron integral symmetry is turned on.
 One-electron integrals computed using PRISM.
 NBasis=   126 RedAO= T EigKep=  8.57D-05  NBF=   126
 NBsUse=   126 1.00D-06 EigRej= -1.00D+00 NBFU=   126
 Initial guess from the checkpoint file:  "/scratch/bell/zhao922/YARP/paper-example/KHP-network/pp_0/TS-folder/Gau-18275.chk"
 B after Tr=     0.000000    0.000000    0.000000
         Rot=    0.997621   -0.068800   -0.000692    0.004381 Ang=  -7.91 deg.
 ExpMin= 4.38D-02 ExpMax= 5.48D+03 ExpMxC= 8.25D+02 IAcc=3 IRadAn=         5 AccDes= 0.00D+00
 Harris functional with IExCor=  402 and IRadAn=       5 diagonalized for initial guess.
 HarFok:  IExCor=  402 AccDes= 0.00D+00 IRadAn=         5 IDoV= 1 UseB2=F ITyADJ=14
 ICtDFT=  3500011 ScaDFX=  1.000000  1.000000  1.000000  1.000000
 FoFCou: FMM=F IPFlag=           0 FMFlag=      100000 FMFlg1=           0
         NFxFlg=           0 DoJE=T BraDBF=F KetDBF=T FulRan=T
         wScrn=  0.000000 ICntrl=       500 IOpCl=  0 I1Cent=   200000004 NGrid=           0
         NMat0=    1 NMatS0=      1 NMatT0=    0 NMatD0=    1 NMtDS0=    0 NMtDT0=    0
 Petite list used in FoFCou.
 Keep R1 ints in memory in canonical form, NReq=47237537.
 Requested convergence on RMS density matrix=1.00D-08 within 128 cycles.
 Requested convergence on MAX density matrix=1.00D-06.
 Requested convergence on             energy=1.00D-06.
 No special actions if energy rises.
 SCF Done:  E(RB3LYP) =  -343.332682764     A.U. after   14 cycles
            NFock= 14  Conv=0.48D-08     -V/T= 2.0087
 DoSCS=F DFT=T ScalE2(SS,OS)=  1.000000  1.000000
 Range of M.O.s used for correlation:     1   126
 NBasis=   126 NAE=    24 NBE=    24 NFC=     0 NFV=     0
 NROrb=    126 NOA=    24 NOB=    24 NVA=   102 NVB=   102

 **** Warning!!: The largest alpha MO coefficient is  0.35016737D+02

 Symmetrizing basis deriv contribution to polar:
 IMax=3 JMax=2 DiffMx= 0.00D+00
 G2DrvN: will do    13 centers at a time, making    1 passes.
 Calling FoFCou, ICntrl=  3107 FMM=F I1Cent=   0 AccDes= 0.00D+00.
 End of G2Drv F.D. properties file   721 does not exist.
 End of G2Drv F.D. properties file   722 does not exist.
 End of G2Drv F.D. properties file   788 does not exist.
          IDoAtm=111111111111
          Differentiating once with respect to electric field.
                with respect to dipole field.
          Differentiating once with respect to nuclear coordinates.
 Keep R1 ints in memory in canonical form, NReq=47193545.
          There are    39 degrees of freedom in the 1st order CPHF.  IDoFFX=6 NUNeed=     3.
     36 vectors produced by pass  0 Test12= 6.28D-15 2.56D-09 XBig12= 2.60D+02 1.34D+01.
 AX will form    36 AO Fock derivatives at one time.
     36 vectors produced by pass  1 Test12= 6.28D-15 2.56D-09 XBig12= 1.15D+02 1.84D+00.
     36 vectors produced by pass  2 Test12= 6.28D-15 2.56D-09 XBig12= 1.13D+00 1.72D-01.
     36 vectors produced by pass  3 Test12= 6.28D-15 2.56D-09 XBig12= 4.19D-03 1.07D-02.
     36 vectors produced by pass  4 Test12= 6.28D-15 2.56D-09 XBig12= 7.51D-06 3.16D-04.
     28 vectors produced by pass  5 Test12= 6.28D-15 2.56D-09 XBig12= 8.74D-09 9.76D-06.
      4 vectors produced by pass  6 Test12= 6.28D-15 2.56D-09 XBig12= 7.95D-12 3.72D-07.
      2 vectors produced by pass  7 Test12= 6.28D-15 2.56D-09 XBig12= 6.32D-15 8.22D-09.
 InvSVY:  IOpt=1 It=  1 EMax= 5.33D-15
 Solved reduced A of dimension   214 with    39 vectors.
 Isotropic polarizability for W=    0.000000       67.31 Bohr**3.
 End of Minotr F.D. properties file   721 does not exist.
 End of Minotr F.D. properties file   722 does not exist.
 End of Minotr F.D. properties file   788 does not exist.
 Calling FoFJK, ICntrl=    100127 FMM=F ISym2X=0 I1Cent= 0 IOpClX= 0 NMat=1 NMatS=1 NMatT=0.
 ***** Axes restored to original set *****
 -------------------------------------------------------------------
 Center     Atomic                   Forces (Hartrees/Bohr)
 Number     Number              X              Y              Z
 -------------------------------------------------------------------
      1        6          -0.028326726    0.007670840    0.003232630
      2        6           0.016191861   -0.008398894    0.008638889
      3        6          -0.003733794    0.044173666   -0.008526588
      4        8           0.019400567    0.014290160   -0.018134286
      5        8          -0.009153211   -0.009059361    0.018877449
      6        8           0.012884015   -0.012740307    0.022018174
      7        1           0.001287276    0.005445585   -0.008937498
      8        1          -0.007426187   -0.026996694   -0.009004233
      9        1           0.007193822    0.002802062   -0.000505738
     10        1           0.000799418   -0.014442476   -0.004670310
     11        1          -0.003301032   -0.006025776   -0.007014591
     12        1          -0.005816010    0.003281193    0.004026101
 -------------------------------------------------------------------
 Cartesian Forces:  Max     0.044173666 RMS     0.013930493
 FormGI is forming the generalized inverse of G from B-inverse, IUseBI=4.

 GradGradGradGradGradGradGradGradGradGradGradGradGradGradGradGradGradGrad
 Berny optimization.
 Internal  Forces:  Max     0.026910744 RMS     0.006938098
 Search for a saddle point.
 Step number   2 out of a maximum of  100
 All quantities printed in internal units (Hartrees-Bohrs-Radians)
 Swapping is turned off.
 Second derivative matrix not updated -- analytic derivatives used.
 ITU=  0  0
     Eigenvalues ---   -0.11815  -0.00110   0.00099   0.00481   0.01168
     Eigenvalues ---    0.01516   0.02103   0.02762   0.03095   0.03668
     Eigenvalues ---    0.04400   0.05197   0.05321   0.06690   0.08140
     Eigenvalues ---    0.09445   0.11575   0.12865   0.16726   0.19471
     Eigenvalues ---    0.25324   0.34723   0.36008   0.36230   0.36632
     Eigenvalues ---    0.37445   0.38635   0.51807   0.52774   0.80001
 Eigenvectors required to have negative eigenvalues:
                          R9        R5        R3        D2        D1
   1                    0.48748  -0.43744  -0.38179  -0.20865  -0.20790
                          D26       R1        D16       A13       D19
   1                   -0.17968   0.17074  -0.15651   0.14529  -0.13056
 RFO step:  Lambda0=3.451825670D-04 Lambda=-3.18993758D-02.
 Linear search not attempted -- option 19 set.
 Maximum step size (   0.300) exceeded in Quadratic search.
    -- Step size scaled by   0.448
 Iteration  1 RMS(Cart)=  0.07488038 RMS(Int)=  0.02858719
 Iteration  2 RMS(Cart)=  0.03710537 RMS(Int)=  0.00469651
 Iteration  3 RMS(Cart)=  0.00516462 RMS(Int)=  0.00098590
 Iteration  4 RMS(Cart)=  0.00006484 RMS(Int)=  0.00098449
 Iteration  5 RMS(Cart)=  0.00000001 RMS(Int)=  0.00098449
 Variable       Old X    -DE/DX   Delta X   Delta X   Delta X     New X
                                 (Linear)    (Quad)   (Total)
    R1        2.64357   0.00865   0.00000   0.03241   0.03199   2.67556
    R2        2.47912   0.01376   0.00000   0.00560   0.00560   2.48472
    R3        3.82941   0.00180   0.00000  -0.03756  -0.03749   3.79192
    R4        2.06825  -0.00185   0.00000  -0.00404  -0.00404   2.06421
    R5        3.36045   0.00135   0.00000  -0.12663  -0.12646   3.23399
    R6        2.04759   0.00552   0.00000   0.00851   0.00851   2.05610
    R7        2.04325   0.00380   0.00000   0.00595   0.00595   2.04920
    R8        2.29972   0.02691   0.00000   0.03773   0.03773   2.33745
    R9        2.83456  -0.01778   0.00000  -0.20099  -0.20087   2.63369
   R10        2.03919   0.00999   0.00000   0.01989   0.01989   2.05908
   R11        2.70678   0.00365   0.00000   0.01402   0.01402   2.72080
   R12        1.82622   0.00920   0.00000   0.00843   0.00843   1.83465
    A1        2.28303   0.00216   0.00000  -0.00687  -0.00646   2.27657
    A2        1.37865  -0.00531   0.00000  -0.04070  -0.04271   1.33594
    A3        2.06666   0.00284   0.00000   0.01943   0.01780   2.08446
    A4        1.75979   0.00525   0.00000   0.07018   0.07092   1.83071
    A5        1.86718  -0.00257   0.00000   0.00410   0.00446   1.87164
    A6        1.97037  -0.00581   0.00000  -0.08191  -0.07969   1.89068
    A7        1.55728   0.00375   0.00000   0.03456   0.03224   1.58952
    A8        2.13194   0.00024   0.00000  -0.00933  -0.00924   2.12270
    A9        1.99886  -0.00322   0.00000  -0.02666  -0.02785   1.97102
   A10        1.96215  -0.00085   0.00000   0.01102   0.01144   1.97359
   A11        1.72336  -0.00059   0.00000   0.02548   0.02749   1.75085
   A12        1.98910   0.00128   0.00000  -0.00759  -0.00908   1.98002
   A13        1.95440   0.00687   0.00000   0.03551   0.03662   1.99102
   A14        1.48982   0.00117   0.00000   0.04679   0.04695   1.53677
   A15        1.89033   0.00267   0.00000   0.00607   0.00473   1.89506
   A16        2.05813  -0.00175   0.00000  -0.02319  -0.02465   2.03348
   A17        2.22707  -0.00715   0.00000  -0.04807  -0.04824   2.17883
   A18        1.69479   0.00038   0.00000   0.01336   0.01230   1.70710
   A19        1.98586  -0.01566   0.00000  -0.02967  -0.02967   1.95619
   A20        1.75604  -0.00940   0.00000  -0.01194  -0.01194   1.74410
   A21        1.35455   0.00851   0.00000   0.04676   0.04653   1.40107
    D1       -2.25427   0.00490   0.00000   0.00819   0.00789  -2.24638
    D2        2.00022   0.00326   0.00000  -0.02646  -0.02570   1.97452
    D3       -0.52187   0.00578   0.00000   0.05052   0.05010  -0.47177
    D4       -0.59848   0.00709   0.00000   0.06755   0.06668  -0.53180
    D5       -2.62718   0.00545   0.00000   0.03290   0.03309  -2.59409
    D6        1.13392   0.00797   0.00000   0.10988   0.10889   1.24281
    D7        1.32493  -0.00221   0.00000  -0.04629  -0.04743   1.27750
    D8       -0.70377  -0.00385   0.00000  -0.08094  -0.08102  -0.78479
    D9        3.05733  -0.00133   0.00000  -0.00395  -0.00521   3.05211
   D10        0.52395  -0.01005   0.00000  -0.04574  -0.04672   0.47723
   D11       -0.95500  -0.00771   0.00000  -0.05062  -0.04870  -1.00370
   D12       -3.01798  -0.00263   0.00000   0.00745   0.00651  -3.01147
   D13        0.75292  -0.00519   0.00000  -0.07088  -0.06926   0.68366
   D14        3.01905  -0.00394   0.00000  -0.08802  -0.08756   2.93148
   D15       -1.27793  -0.00633   0.00000  -0.07735  -0.07931  -1.35724
   D16        2.91189  -0.00597   0.00000  -0.05758  -0.05717   2.85472
   D17        0.84740  -0.00542   0.00000  -0.05625  -0.05726   0.79015
   D18       -0.82743  -0.00607   0.00000  -0.08522  -0.08559  -0.91302
   D19       -1.19380  -0.00409   0.00000  -0.04797  -0.04759  -1.24139
   D20        3.02490  -0.00353   0.00000  -0.04664  -0.04768   2.97722
   D21        1.35006  -0.00418   0.00000  -0.07562  -0.07602   1.27404
   D22        0.90991  -0.00329   0.00000  -0.03762  -0.03695   0.87295
   D23       -1.15458  -0.00273   0.00000  -0.03629  -0.03704  -1.19162
   D24       -2.82942  -0.00338   0.00000  -0.06527  -0.06538  -2.89480
   D25       -0.55830   0.00237   0.00000   0.02337   0.02484  -0.53346
   D26       -2.52101  -0.00586   0.00000  -0.03931  -0.03794  -2.55895
   D27        1.32504   0.00517   0.00000   0.03379   0.03498   1.36002
   D28        2.99263  -0.00061   0.00000   0.41427   0.41427  -2.87629
         Item               Value     Threshold  Converged?
 Maximum Force            0.026911     0.000450     NO 
 RMS     Force            0.006938     0.000300     NO 
 Maximum Displacement     0.536814     0.001800     NO 
 RMS     Displacement     0.106057     0.001200     NO 
 Predicted change in Energy=-1.404059D-02
 GradGradGradGradGradGradGradGradGradGradGradGradGradGradGradGradGradGrad

                          Input orientation:                          
 ---------------------------------------------------------------------
 Center     Atomic      Atomic             Coordinates (Angstroms)
 Number     Number       Type             X           Y           Z
 ---------------------------------------------------------------------
      1          6           0        0.727300    1.265744   -2.278053
      2          6           0        0.290175    0.688558   -1.061337
      3          6           0        1.619929   -0.388694   -1.057349
      4          8           0        0.922397    2.524753   -2.603134
      5          8           0        1.253219    3.334101   -1.459241
      6          8           0        1.834383   -0.921579    0.038108
      7          1           0        1.109971    4.218632   -1.832931
      8          1           0        2.434498    0.690879   -1.394062
      9          1           0        0.616476    0.704590   -3.208651
     10          1           0        1.652412   -0.903662   -2.017048
     11          1           0       -0.669451    0.181841   -0.982639
     12          1           0        0.529687    1.295921   -0.195518
 ---------------------------------------------------------------------
                    Distance matrix (angstroms):
                    1          2          3          4          5
     1  C    0.000000
     2  C    1.415845   0.000000
     3  C    2.241443   1.711354   0.000000
     4  O    1.314856   2.479608   3.371079   0.000000
     5  O    2.285857   2.843357   3.762338   1.439784   0.000000
     6  O    3.372627   2.487147   1.236925   4.436787   4.548694
     7  H    3.010668   3.705246   4.699898   1.870194   0.970855
     8  H    2.006598   2.169984   1.393691   2.666721   2.895909
     9  H    1.092331   2.172023   2.613482   1.942480   3.221832
    10  H    2.372820   2.303092   1.089618   3.553934   4.292917
    11  H    2.191769   1.088043   2.360583   3.263314   3.722976
    12  H    2.092108   1.084389   2.183875   2.731459   2.504930
                    6          7          8          9         10
     6  O    0.000000
     7  H    5.517910   0.000000
     8  H    2.238586   3.793682   0.000000
     9  H    3.830035   3.805868   2.568682   0.000000
    10  H    2.063274   5.154225   1.882108   2.253787   0.000000
    11  H    2.920385   4.492775   3.172206   2.623357   2.763940
    12  H    2.583432   3.400014   2.330427   3.071836   3.068656
                   11         12
    11  H    0.000000
    12  H    1.816223   0.000000
 Stoichiometry    C3H6O3
 Framework group  C1[X(C3H6O3)]
 Deg. of freedom    30
 Full point group                 C1      NOp   1
 Largest Abelian subgroup         C1      NOp   1
 Largest concise Abelian subgroup C1      NOp   1
                         Standard orientation:                         
 ---------------------------------------------------------------------
 Center     Atomic      Atomic             Coordinates (Angstroms)
 Number     Number       Type             X           Y           Z
 ---------------------------------------------------------------------
      1          6           0        0.504382    0.803120   -0.021449
      2          6           0       -0.444334    0.251018    0.872832
      3          6           0       -1.607196    0.141135   -0.377932
      4          8           0        1.747593    0.453568   -0.268608
      5          8           0        1.976699   -0.945425   -0.016999
      6          8           0       -2.558182   -0.606092   -0.118586
      7          1           0        2.947396   -0.956276   -0.003212
      8          1           0       -0.608296   -0.384203   -1.195608
      9          1           0        0.384015    1.833804   -0.362607
     10          1           0       -1.694082    1.115550   -0.857760
     11          1           0       -0.800876    0.804182    1.739276
     12          1           0       -0.274146   -0.801109    1.072745
 ---------------------------------------------------------------------
 Rotational constants (GHZ):           8.7327160           1.7785168           1.6595154
 Standard basis: 6-31+G(d) (6D, 7F)
 There are   126 symmetry adapted cartesian basis functions of A   symmetry.
 There are   126 symmetry adapted basis functions of A   symmetry.
   126 basis functions,   216 primitive gaussians,   126 cartesian basis functions
    24 alpha electrons       24 beta electrons
       nuclear repulsion energy       237.3178468050 Hartrees.
 NAtoms=   12 NActive=   12 NUniq=   12 SFac= 1.00D+00 NAtFMM=   60 NAOKFM=F Big=F
 Integral buffers will be    131072 words long.
 Raffenetti 2 integral format.
 Two-electron integral symmetry is turned on.
 One-electron integrals computed using PRISM.
 NBasis=   126 RedAO= T EigKep=  9.31D-05  NBF=   126
 NBsUse=   126 1.00D-06 EigRej= -1.00D+00 NBFU=   126
 Initial guess from the checkpoint file:  "/scratch/bell/zhao922/YARP/paper-example/KHP-network/pp_0/TS-folder/Gau-18275.chk"
 B after Tr=    -0.000000   -0.000000   -0.000000
         Rot=    0.998983   -0.044972   -0.001396    0.002792 Ang=  -5.17 deg.
 ExpMin= 4.38D-02 ExpMax= 5.48D+03 ExpMxC= 8.25D+02 IAcc=3 IRadAn=         5 AccDes= 0.00D+00
 Harris functional with IExCor=  402 and IRadAn=       5 diagonalized for initial guess.
 HarFok:  IExCor=  402 AccDes= 0.00D+00 IRadAn=         5 IDoV= 1 UseB2=F ITyADJ=14
 ICtDFT=  3500011 ScaDFX=  1.000000  1.000000  1.000000  1.000000
 FoFCou: FMM=F IPFlag=           0 FMFlag=      100000 FMFlg1=           0
         NFxFlg=           0 DoJE=T BraDBF=F KetDBF=T FulRan=T
         wScrn=  0.000000 ICntrl=       500 IOpCl=  0 I1Cent=   200000004 NGrid=           0
         NMat0=    1 NMatS0=      1 NMatT0=    0 NMatD0=    1 NMtDS0=    0 NMtDT0=    0
 Petite list used in FoFCou.
 Keep R1 ints in memory in canonical form, NReq=47237537.
 Requested convergence on RMS density matrix=1.00D-08 within 128 cycles.
 Requested convergence on MAX density matrix=1.00D-06.
 Requested convergence on             energy=1.00D-06.
 No special actions if energy rises.
 SCF Done:  E(RB3LYP) =  -343.346433683     A.U. after   15 cycles
            NFock= 15  Conv=0.57D-08     -V/T= 2.0089
 DoSCS=F DFT=T ScalE2(SS,OS)=  1.000000  1.000000
 Range of M.O.s used for correlation:     1   126
 NBasis=   126 NAE=    24 NBE=    24 NFC=     0 NFV=     0
 NROrb=    126 NOA=    24 NOB=    24 NVA=   102 NVB=   102

 **** Warning!!: The largest alpha MO coefficient is  0.33775664D+02

 Symmetrizing basis deriv contribution to polar:
 IMax=3 JMax=2 DiffMx= 0.00D+00
 G2DrvN: will do    13 centers at a time, making    1 passes.
 Calling FoFCou, ICntrl=  3107 FMM=F I1Cent=   0 AccDes= 0.00D+00.
 End of G2Drv F.D. properties file   721 does not exist.
 End of G2Drv F.D. properties file   722 does not exist.
 End of G2Drv F.D. properties file   788 does not exist.
          IDoAtm=111111111111
          Differentiating once with respect to electric field.
                with respect to dipole field.
          Differentiating once with respect to nuclear coordinates.
 Keep R1 ints in memory in canonical form, NReq=47193545.
          There are    39 degrees of freedom in the 1st order CPHF.  IDoFFX=6 NUNeed=     3.
     36 vectors produced by pass  0 Test12= 6.28D-15 2.56D-09 XBig12= 3.26D+02 1.55D+01.
 AX will form    36 AO Fock derivatives at one time.
     36 vectors produced by pass  1 Test12= 6.28D-15 2.56D-09 XBig12= 1.48D+02 2.26D+00.
     36 vectors produced by pass  2 Test12= 6.28D-15 2.56D-09 XBig12= 1.53D+00 2.73D-01.
     36 vectors produced by pass  3 Test12= 6.28D-15 2.56D-09 XBig12= 5.16D-03 1.24D-02.
     36 vectors produced by pass  4 Test12= 6.28D-15 2.56D-09 XBig12= 8.44D-06 4.34D-04.
     28 vectors produced by pass  5 Test12= 6.28D-15 2.56D-09 XBig12= 8.50D-09 1.08D-05.
      4 vectors produced by pass  6 Test12= 6.28D-15 2.56D-09 XBig12= 6.97D-12 3.58D-07.
      2 vectors produced by pass  7 Test12= 6.28D-15 2.56D-09 XBig12= 4.74D-15 8.30D-09.
 InvSVY:  IOpt=1 It=  1 EMax= 7.11D-15
 Solved reduced A of dimension   214 with    39 vectors.
 Isotropic polarizability for W=    0.000000       67.70 Bohr**3.
 End of Minotr F.D. properties file   721 does not exist.
 End of Minotr F.D. properties file   722 does not exist.
 End of Minotr F.D. properties file   788 does not exist.
 Calling FoFJK, ICntrl=    100127 FMM=F ISym2X=0 I1Cent= 0 IOpClX= 0 NMat=1 NMatS=1 NMatT=0.
 ***** Axes restored to original set *****
 -------------------------------------------------------------------
 Center     Atomic                   Forces (Hartrees/Bohr)
 Number     Number              X              Y              Z
 -------------------------------------------------------------------
      1        6          -0.021134979    0.008292073    0.002358286
      2        6           0.015598500   -0.009886849    0.007597965
      3        6          -0.000490003    0.035129381   -0.007620766
      4        8           0.013975587    0.008470586   -0.009708655
      5        8          -0.004481618   -0.004711346    0.010037437
      6        8           0.009611065   -0.007293418    0.014781150
      7        1          -0.001111180    0.004078443   -0.004366412
      8        1          -0.008127056   -0.022402042   -0.008514929
      9        1           0.006856039    0.001240069   -0.000446618
     10        1          -0.001422731   -0.012083669   -0.000925101
     11        1          -0.002782053   -0.003014110   -0.006364979
     12        1          -0.006491573    0.002180880    0.003172622
 -------------------------------------------------------------------
 Cartesian Forces:  Max     0.035129381 RMS     0.010632591
 FormGI is forming the generalized inverse of G from B-inverse, IUseBI=4.

 GradGradGradGradGradGradGradGradGradGradGradGradGradGradGradGradGradGrad
 Berny optimization.
 Internal  Forces:  Max     0.017898889 RMS     0.005022141
 Search for a saddle point.
 Step number   3 out of a maximum of  100
 All quantities printed in internal units (Hartrees-Bohrs-Radians)
 Swapping is turned off.
 Second derivative matrix not updated -- analytic derivatives used.
 ITU=  0  0  0
     Eigenvalues ---   -0.10338   0.00019   0.00281   0.00869   0.01207
     Eigenvalues ---    0.01652   0.02381   0.02591   0.03511   0.03654
     Eigenvalues ---    0.05030   0.05271   0.05925   0.06929   0.08443
     Eigenvalues ---    0.09624   0.11977   0.13516   0.16822   0.19405
     Eigenvalues ---    0.26686   0.33525   0.33816   0.35173   0.35583
     Eigenvalues ---    0.36685   0.37735   0.50997   0.52651   0.71948
 Eigenvectors required to have negative eigenvalues:
                          R9        R3        R5        D2        D1
   1                    0.46844  -0.42864  -0.40931  -0.21808  -0.20565
                          R1        D26       D16       A13       D19
   1                    0.18380  -0.17341  -0.15874   0.14817  -0.13919
 RFO step:  Lambda0=2.090130002D-04 Lambda=-2.40864866D-02.
 Linear search not attempted -- option 19 set.
 Maximum step size (   0.300) exceeded in Quadratic search.
    -- Step size scaled by   0.637
 Iteration  1 RMS(Cart)=  0.06889743 RMS(Int)=  0.00489128
 Iteration  2 RMS(Cart)=  0.00456277 RMS(Int)=  0.00124275
 Iteration  3 RMS(Cart)=  0.00002648 RMS(Int)=  0.00124254
 Iteration  4 RMS(Cart)=  0.00000002 RMS(Int)=  0.00124254
 Variable       Old X    -DE/DX   Delta X   Delta X   Delta X     New X
                                 (Linear)    (Quad)   (Total)
    R1        2.67556   0.00625   0.00000   0.03591   0.03536   2.71093
    R2        2.48472   0.00975   0.00000   0.00708   0.00708   2.49179
    R3        3.79192   0.00090   0.00000  -0.04818  -0.04842   3.74350
    R4        2.06421  -0.00095   0.00000  -0.00332  -0.00332   2.06089
    R5        3.23399  -0.00097   0.00000  -0.12047  -0.12012   3.11387
    R6        2.05610   0.00340   0.00000   0.00783   0.00783   2.06393
    R7        2.04920   0.00232   0.00000   0.00631   0.00631   2.05551
    R8        2.33745   0.01790   0.00000   0.04079   0.04079   2.37824
    R9        2.63369  -0.01457   0.00000  -0.18985  -0.18932   2.44437
   R10        2.05908   0.00648   0.00000   0.02225   0.02225   2.08133
   R11        2.72080   0.00287   0.00000   0.01052   0.01052   2.73132
   R12        1.83465   0.00556   0.00000   0.00668   0.00668   1.84133
    A1        2.27657   0.00126   0.00000  -0.00847  -0.00799   2.26858
    A2        1.33594  -0.00387   0.00000  -0.02907  -0.03173   1.30421
    A3        2.08446   0.00184   0.00000   0.02052   0.01851   2.10297
    A4        1.83071   0.00444   0.00000   0.07624   0.07751   1.90822
    A5        1.87164  -0.00148   0.00000   0.00407   0.00453   1.87617
    A6        1.89068  -0.00514   0.00000  -0.10469  -0.10161   1.78908
    A7        1.58952   0.00220   0.00000   0.02514   0.02191   1.61143
    A8        2.12270   0.00006   0.00000  -0.01366  -0.01329   2.10941
    A9        1.97102  -0.00252   0.00000  -0.02643  -0.02742   1.94360
   A10        1.97359  -0.00011   0.00000   0.01430   0.01509   1.98867
   A11        1.75085   0.00077   0.00000   0.04152   0.04362   1.79448
   A12        1.98002   0.00035   0.00000  -0.01429  -0.01642   1.96360
   A13        1.99102   0.00439   0.00000   0.03178   0.03328   2.02430
   A14        1.53677   0.00185   0.00000   0.05672   0.05668   1.59345
   A15        1.89506   0.00161   0.00000   0.00157  -0.00028   1.89478
   A16        2.03348  -0.00155   0.00000  -0.02628  -0.02802   2.00546
   A17        2.17883  -0.00515   0.00000  -0.04817  -0.04824   2.13059
   A18        1.70710   0.00041   0.00000   0.01352   0.01266   1.71976
   A19        1.95619  -0.00717   0.00000  -0.01153  -0.01153   1.94466
   A20        1.74410  -0.00445   0.00000  -0.01229  -0.01229   1.73181
   A21        1.40107   0.00600   0.00000   0.04671   0.04605   1.44712
    D1       -2.24638   0.00310   0.00000  -0.00096  -0.00126  -2.24764
    D2        1.97452   0.00166   0.00000  -0.03150  -0.03041   1.94411
    D3       -0.47177   0.00463   0.00000   0.05248   0.05202  -0.41974
    D4       -0.53180   0.00562   0.00000   0.07659   0.07562  -0.45618
    D5       -2.59409   0.00417   0.00000   0.04604   0.04647  -2.54762
    D6        1.24281   0.00715   0.00000   0.13003   0.12890   1.37171
    D7        1.27750  -0.00253   0.00000  -0.06157  -0.06302   1.21448
    D8       -0.78479  -0.00398   0.00000  -0.09212  -0.09217  -0.87696
    D9        3.05211  -0.00100   0.00000  -0.00813  -0.00973   3.04238
   D10        0.47723  -0.00784   0.00000  -0.10159  -0.10283   0.37440
   D11       -1.00370  -0.00665   0.00000  -0.12479  -0.12248  -1.12618
   D12       -3.01147  -0.00223   0.00000  -0.04332  -0.04439  -3.05585
   D13        0.68366  -0.00439   0.00000  -0.08459  -0.08318   0.60048
   D14        2.93148  -0.00406   0.00000  -0.10483  -0.10410   2.82739
   D15       -1.35724  -0.00588   0.00000  -0.10951  -0.11167  -1.46892
   D16        2.85472  -0.00475   0.00000  -0.07556  -0.07482   2.77990
   D17        0.79015  -0.00481   0.00000  -0.08045  -0.08126   0.70889
   D18       -0.91302  -0.00588   0.00000  -0.11371  -0.11383  -1.02686
   D19       -1.24139  -0.00354   0.00000  -0.07295  -0.07266  -1.31406
   D20        2.97722  -0.00360   0.00000  -0.07784  -0.07911   2.89811
   D21        1.27404  -0.00467   0.00000  -0.11110  -0.11168   1.16236
   D22        0.87295  -0.00271   0.00000  -0.05791  -0.05699   0.81596
   D23       -1.19162  -0.00277   0.00000  -0.06280  -0.06343  -1.25505
   D24       -2.89480  -0.00384   0.00000  -0.09606  -0.09600  -2.99080
   D25       -0.53346   0.00221   0.00000   0.03664   0.03888  -0.49458
   D26       -2.55895  -0.00346   0.00000  -0.02461  -0.02274  -2.58169
   D27        1.36002   0.00408   0.00000   0.04591   0.04763   1.40764
   D28       -2.87629  -0.00064   0.00000  -0.02935  -0.02935  -2.90563
         Item               Value     Threshold  Converged?
 Maximum Force            0.017899     0.000450     NO 
 RMS     Force            0.005022     0.000300     NO 
 Maximum Displacement     0.266874     0.001800     NO 
 RMS     Displacement     0.068242     0.001200     NO 
 Predicted change in Energy=-1.344794D-02
 GradGradGradGradGradGradGradGradGradGradGradGradGradGradGradGradGradGrad

                          Input orientation:                          
 ---------------------------------------------------------------------
 Center     Atomic      Atomic             Coordinates (Angstroms)
 Number     Number       Type             X           Y           Z
 ---------------------------------------------------------------------
      1          6           0        0.762313    1.281093   -2.295410
      2          6           0        0.332009    0.684333   -1.063875
      3          6           0        1.597193   -0.371345   -1.055387
      4          8           0        0.954295    2.549434   -2.600637
      5          8           0        1.162259    3.351695   -1.416503
      6          8           0        1.889363   -0.872852    0.061295
      7          1           0        1.056837    4.237861   -1.807695
      8          1           0        2.406603    0.549655   -1.467417
      9          1           0        0.701287    0.724274   -3.231133
     10          1           0        1.555622   -0.975845   -1.975126
     11          1           0       -0.646056    0.204632   -0.985474
     12          1           0        0.549272    1.328151   -0.214493
 ---------------------------------------------------------------------
                    Distance matrix (angstroms):
                    1          2          3          4          5
     1  C    0.000000
     2  C    1.434560   0.000000
     3  C    2.228280   1.647791   0.000000
     4  O    1.318601   2.495491   3.366313   0.000000
     5  O    2.284694   2.815756   3.765713   1.445353   0.000000
     6  O    3.385821   2.473092   1.258512   4.435344   4.534244
     7  H    3.011160   3.702189   4.701354   1.868169   0.974390
     8  H    1.980976   2.117764   1.293505   2.718915   3.066335
     9  H    1.090574   2.198857   2.595553   1.947498   3.226255
    10  H    2.413647   2.254728   1.101395   3.630489   4.381141
    11  H    2.204133   1.092186   2.317067   3.266186   3.655105
    12  H    2.092323   1.087729   2.166454   2.710952   2.432141
                    6          7          8          9         10
     6  O    0.000000
     7  H    5.505053   0.000000
     8  H    2.151285   3.942146   0.000000
     9  H    3.847391   3.807609   2.459530   0.000000
    10  H    2.066157   5.240186   1.819091   2.279878   0.000000
    11  H    2.947040   4.454529   3.109668   2.669896   2.687065
    12  H    2.591586   3.355939   2.371825   3.080243   3.069360
                   11         12
    11  H    0.000000
    12  H    1.812599   0.000000
 Stoichiometry    C3H6O3
 Framework group  C1[X(C3H6O3)]
 Deg. of freedom    30
 Full point group                 C1      NOp   1
 Largest Abelian subgroup         C1      NOp   1
 Largest concise Abelian subgroup C1      NOp   1
                         Standard orientation:                         
 ---------------------------------------------------------------------
 Center     Atomic      Atomic             Coordinates (Angstroms)
 Number     Number       Type             X           Y           Z
 ---------------------------------------------------------------------
      1          6           0        0.512543    0.811546    0.015424
      2          6           0       -0.450451    0.168347    0.862123
      3          6           0       -1.604047    0.197808   -0.314127
      4          8           0        1.751402    0.465072   -0.274219
      5          8           0        1.973999   -0.943703   -0.040021
      6          8           0       -2.546814   -0.625436   -0.182555
      7          1           0        2.947327   -0.957394   -0.083401
      8          1           0       -0.732235   -0.112337   -1.217958
      9          1           0        0.390455    1.858091   -0.265978
     10          1           0       -1.778621    1.244854   -0.607876
     11          1           0       -0.764415    0.626720    1.802438
     12          1           0       -0.239477   -0.893596    0.966619
 ---------------------------------------------------------------------
 Rotational constants (GHZ):           8.7503374           1.7859748           1.6584609
 Standard basis: 6-31+G(d) (6D, 7F)
 There are   126 symmetry adapted cartesian basis functions of A   symmetry.
 There are   126 symmetry adapted basis functions of A   symmetry.
   126 basis functions,   216 primitive gaussians,   126 cartesian basis functions
    24 alpha electrons       24 beta electrons
       nuclear repulsion energy       237.3955769555 Hartrees.
 NAtoms=   12 NActive=   12 NUniq=   12 SFac= 1.00D+00 NAtFMM=   60 NAOKFM=F Big=F
 Integral buffers will be    131072 words long.
 Raffenetti 2 integral format.
 Two-electron integral symmetry is turned on.
 One-electron integrals computed using PRISM.
 NBasis=   126 RedAO= T EigKep=  9.83D-05  NBF=   126
 NBsUse=   126 1.00D-06 EigRej= -1.00D+00 NBFU=   126
 Initial guess from the checkpoint file:  "/scratch/bell/zhao922/YARP/paper-example/KHP-network/pp_0/TS-folder/Gau-18275.chk"
 B after Tr=     0.000000   -0.000000   -0.000000
         Rot=    0.999232   -0.039149   -0.001655   -0.000291 Ang=  -4.49 deg.
 ExpMin= 4.38D-02 ExpMax= 5.48D+03 ExpMxC= 8.25D+02 IAcc=3 IRadAn=         5 AccDes= 0.00D+00
 Harris functional with IExCor=  402 and IRadAn=       5 diagonalized for initial guess.
 HarFok:  IExCor=  402 AccDes= 0.00D+00 IRadAn=         5 IDoV= 1 UseB2=F ITyADJ=14
 ICtDFT=  3500011 ScaDFX=  1.000000  1.000000  1.000000  1.000000
 FoFCou: FMM=F IPFlag=           0 FMFlag=      100000 FMFlg1=           0
         NFxFlg=           0 DoJE=T BraDBF=F KetDBF=T FulRan=T
         wScrn=  0.000000 ICntrl=       500 IOpCl=  0 I1Cent=   200000004 NGrid=           0
         NMat0=    1 NMatS0=      1 NMatT0=    0 NMatD0=    1 NMtDS0=    0 NMtDT0=    0
 Petite list used in FoFCou.
 Keep R1 ints in memory in canonical form, NReq=47237537.
 Requested convergence on RMS density matrix=1.00D-08 within 128 cycles.
 Requested convergence on MAX density matrix=1.00D-06.
 Requested convergence on             energy=1.00D-06.
 No special actions if energy rises.
 SCF Done:  E(RB3LYP) =  -343.359530507     A.U. after   14 cycles
            NFock= 14  Conv=0.29D-08     -V/T= 2.0090
 DoSCS=F DFT=T ScalE2(SS,OS)=  1.000000  1.000000
 Range of M.O.s used for correlation:     1   126
 NBasis=   126 NAE=    24 NBE=    24 NFC=     0 NFV=     0
 NROrb=    126 NOA=    24 NOB=    24 NVA=   102 NVB=   102

 **** Warning!!: The largest alpha MO coefficient is  0.33705769D+02


 **** Warning!!: The smallest alpha delta epsilon is  0.98482493D-01

 Symmetrizing basis deriv contribution to polar:
 IMax=3 JMax=2 DiffMx= 0.00D+00
 G2DrvN: will do    13 centers at a time, making    1 passes.
 Calling FoFCou, ICntrl=  3107 FMM=F I1Cent=   0 AccDes= 0.00D+00.
 End of G2Drv F.D. properties file   721 does not exist.
 End of G2Drv F.D. properties file   722 does not exist.
 End of G2Drv F.D. properties file   788 does not exist.
          IDoAtm=111111111111
          Differentiating once with respect to electric field.
                with respect to dipole field.
          Differentiating once with respect to nuclear coordinates.
 Keep R1 ints in memory in canonical form, NReq=47193545.
          There are    39 degrees of freedom in the 1st order CPHF.  IDoFFX=6 NUNeed=     3.
     36 vectors produced by pass  0 Test12= 6.28D-15 2.56D-09 XBig12= 3.97D+02 1.72D+01.
 AX will form    36 AO Fock derivatives at one time.
     36 vectors produced by pass  1 Test12= 6.28D-15 2.56D-09 XBig12= 1.88D+02 2.27D+00.
     36 vectors produced by pass  2 Test12= 6.28D-15 2.56D-09 XBig12= 1.94D+00 3.08D-01.
     36 vectors produced by pass  3 Test12= 6.28D-15 2.56D-09 XBig12= 7.03D-03 1.49D-02.
     36 vectors produced by pass  4 Test12= 6.28D-15 2.56D-09 XBig12= 1.22D-05 6.33D-04.
     30 vectors produced by pass  5 Test12= 6.28D-15 2.56D-09 XBig12= 1.23D-08 1.59D-05.
      4 vectors produced by pass  6 Test12= 6.28D-15 2.56D-09 XBig12= 9.42D-12 3.41D-07.
      2 vectors produced by pass  7 Test12= 6.28D-15 2.56D-09 XBig12= 6.19D-15 1.02D-08.
 InvSVY:  IOpt=1 It=  1 EMax= 3.55D-15
 Solved reduced A of dimension   216 with    39 vectors.
 Isotropic polarizability for W=    0.000000       68.05 Bohr**3.
 End of Minotr F.D. properties file   721 does not exist.
 End of Minotr F.D. properties file   722 does not exist.
 End of Minotr F.D. properties file   788 does not exist.
 Calling FoFJK, ICntrl=    100127 FMM=F ISym2X=0 I1Cent= 0 IOpClX= 0 NMat=1 NMatS=1 NMatT=0.
 ***** Axes restored to original set *****
 -------------------------------------------------------------------
 Center     Atomic                   Forces (Hartrees/Bohr)
 Number     Number              X              Y              Z
 -------------------------------------------------------------------
      1        6          -0.013824354    0.007769453    0.001695913
      2        6           0.011320924   -0.006612973    0.005903770
      3        6           0.001633352    0.020060565   -0.004887290
      4        8           0.009224188    0.003002639   -0.003282040
      5        8          -0.004700583   -0.001141436    0.004430160
      6        8           0.005658630   -0.002324468    0.007693918
      7        1           0.000074895    0.001648431   -0.001957235
      8        1          -0.004935829   -0.014362568   -0.008273588
      9        1           0.005624823    0.000412331   -0.000213781
     10        1          -0.002370758   -0.008307573    0.001805630
     11        1          -0.001786823   -0.000537284   -0.005477401
     12        1          -0.005918465    0.000392883    0.002561945
 -------------------------------------------------------------------
 Cartesian Forces:  Max     0.020060565 RMS     0.006719028
 FormGI is forming the generalized inverse of G from B-inverse, IUseBI=4.

 GradGradGradGradGradGradGradGradGradGradGradGradGradGradGradGradGradGrad
 Berny optimization.
 Internal  Forces:  Max     0.009066912 RMS     0.003056596
 Search for a saddle point.
 Step number   4 out of a maximum of  100
 All quantities printed in internal units (Hartrees-Bohrs-Radians)
 Swapping is turned off.
 Second derivative matrix not updated -- analytic derivatives used.
 ITU=  0  0  0  0
     Eigenvalues ---   -0.07243   0.00079   0.00295   0.00974   0.01501
     Eigenvalues ---    0.02015   0.02409   0.03035   0.03512   0.04233
     Eigenvalues ---    0.05229   0.05964   0.07139   0.07445   0.08568
     Eigenvalues ---    0.09847   0.12168   0.14291   0.16819   0.19161
     Eigenvalues ---    0.27292   0.30954   0.31171   0.34635   0.35466
     Eigenvalues ---    0.35979   0.37474   0.49826   0.52989   0.64592
 Eigenvectors required to have negative eigenvalues:
                          R3        R9        R5        D2        D1
   1                   -0.51398   0.40650  -0.34809  -0.23779  -0.20439
                          R1        D16       D26       D19       A13
   1                    0.18268  -0.16876  -0.16102  -0.15584   0.15485
 RFO step:  Lambda0=1.125792237D-04 Lambda=-1.43523455D-02.
 Linear search not attempted -- option 19 set.
 Iteration  1 RMS(Cart)=  0.09104205 RMS(Int)=  0.00932740
 Iteration  2 RMS(Cart)=  0.00953690 RMS(Int)=  0.00174796
 Iteration  3 RMS(Cart)=  0.00011166 RMS(Int)=  0.00174505
 Iteration  4 RMS(Cart)=  0.00000005 RMS(Int)=  0.00174505
 Variable       Old X    -DE/DX   Delta X   Delta X   Delta X     New X
                                 (Linear)    (Quad)   (Total)
    R1        2.71093   0.00348   0.00000   0.02983   0.02960   2.74053
    R2        2.49179   0.00423   0.00000   0.00286   0.00286   2.49465
    R3        3.74350   0.00080   0.00000  -0.06884  -0.06935   3.67415
[...]
 Maximum Displacement     0.000103     0.001800     YES
 RMS     Displacement     0.000019     0.001200     YES
 Predicted change in Energy=-4.643078D-10
 Optimization completed.
    -- Stationary point found.
                           ----------------------------
                           !   Optimized Parameters   !
                           ! (Angstroms and Degrees)  !
 --------------------------                            --------------------------
 ! Name  Definition              Value          Derivative Info.                !
 --------------------------------------------------------------------------------
 ! R1    R(1,2)                  1.4779         -DE/DX =    0.0                 !
 ! R2    R(1,4)                  1.3162         -DE/DX =    0.0                 !
 ! R3    R(1,8)                  1.6605         -DE/DX =    0.0                 !
 ! R4    R(1,9)                  1.0887         -DE/DX =    0.0                 !
 ! R5    R(2,3)                  1.5698         -DE/DX =    0.0                 !
 ! R6    R(2,11)                 1.0919         -DE/DX =    0.0                 !
 ! R7    R(2,12)                 1.0892         -DE/DX =    0.0                 !
 ! R8    R(3,6)                  1.2906         -DE/DX =    0.0                 !
 ! R9    R(3,8)                  1.2804         -DE/DX =    0.0                 !
 ! R10   R(3,10)                 1.1058         -DE/DX =    0.0                 !
 ! R11   R(4,5)                  1.465          -DE/DX =    0.0                 !
 ! R12   R(5,7)                  1.0324         -DE/DX =    0.0                 !
 ! A1    A(2,1,4)              123.1504         -DE/DX =    0.0                 !
 ! A2    A(2,1,8)               82.6283         -DE/DX =    0.0                 !
 ! A3    A(2,1,9)              124.664          -DE/DX =    0.0                 !
 ! A4    A(4,1,8)              104.0624         -DE/DX =    0.0                 !
 ! A5    A(4,1,9)              111.0582         -DE/DX =    0.0                 !
 ! A6    A(8,1,9)               95.1851         -DE/DX =    0.0                 !
 ! A7    A(1,2,3)               86.0028         -DE/DX =    0.0                 !
 ! A8    A(1,2,11)             111.817          -DE/DX =    0.0                 !
 ! A9    A(1,2,12)             115.8334         -DE/DX =    0.0                 !
 ! A10   A(3,2,11)             113.569          -DE/DX =    0.0                 !
 ! A11   A(3,2,12)             114.6238         -DE/DX =    0.0                 !
 ! A12   A(11,2,12)            112.519          -DE/DX =    0.0                 !
 ! A13   A(2,3,6)              118.7512         -DE/DX =    0.0                 !
 ! A14   A(2,3,8)               92.9669         -DE/DX =    0.0                 !
 ! A15   A(2,3,10)             111.3553         -DE/DX =    0.0                 !
 ! A16   A(6,3,8)              109.6453         -DE/DX =    0.0                 !
 ! A17   A(6,3,10)             120.7914         -DE/DX =    0.0                 !
 ! A18   A(8,3,10)              96.6722         -DE/DX =    0.0                 !
 ! A19   A(1,4,5)              113.8042         -DE/DX =    0.0                 !
 ! A20   A(4,5,7)               99.1335         -DE/DX =    0.0                 !
 ! A21   A(1,8,3)               89.0382         -DE/DX =    0.0                 !
 ! D1    D(4,1,2,3)            -82.4493         -DE/DX =    0.0                 !
 ! D2    D(4,1,2,11)           163.7361         -DE/DX =    0.0                 !
 ! D3    D(4,1,2,12)            33.0322         -DE/DX =    0.0                 !
 ! D4    D(8,1,2,3)             19.5637         -DE/DX =    0.0                 !
 ! D5    D(8,1,2,11)           -94.2509         -DE/DX =    0.0                 !
 ! D6    D(8,1,2,12)           135.0451         -DE/DX =    0.0                 !
 ! D7    D(9,1,2,3)            110.7859         -DE/DX =    0.0                 !
 ! D8    D(9,1,2,11)            -3.0287         -DE/DX =    0.0                 !
 ! D9    D(9,1,2,12)          -133.7327         -DE/DX =    0.0                 !
 ! D10   D(2,1,4,5)             -2.0002         -DE/DX =    0.0                 !
 ! D11   D(8,1,4,5)            -92.3222         -DE/DX =    0.0                 !
 ! D12   D(9,1,4,5)            166.3583         -DE/DX =    0.0                 !
 ! D13   D(2,1,8,3)            -24.18           -DE/DX =    0.0                 !
 ! D14   D(4,1,8,3)             98.2334         -DE/DX =    0.0                 !
 ! D15   D(9,1,8,3)           -148.5212         -DE/DX =    0.0                 !
 ! D16   D(1,2,3,6)             88.8104         -DE/DX =    0.0                 !
 ! D17   D(1,2,3,8)            -25.5466         -DE/DX =    0.0                 !
 ! D18   D(1,2,3,10)          -123.8948         -DE/DX =    0.0                 !
 ! D19   D(11,2,3,6)          -159.1051         -DE/DX =    0.0                 !
 ! D20   D(11,2,3,8)            86.5378         -DE/DX =    0.0                 !
 ! D21   D(11,2,3,10)          -11.8104         -DE/DX =    0.0                 !
 ! D22   D(12,2,3,6)           -27.8362         -DE/DX =    0.0                 !
 ! D23   D(12,2,3,8)          -142.1933         -DE/DX =    0.0                 !
 ! D24   D(12,2,3,10)          119.4586         -DE/DX =    0.0                 !
 ! D25   D(2,3,8,1)             22.5173         -DE/DX =    0.0                 !
 ! D26   D(6,3,8,1)            -99.4829         -DE/DX =    0.0                 !
 ! D27   D(10,3,8,1)           134.4297         -DE/DX =    0.0                 !
 ! D28   D(1,4,5,7)             62.6441         -DE/DX =    0.0                 !
 --------------------------------------------------------------------------------
 GradGradGradGradGradGradGradGradGradGradGradGradGradGradGradGradGradGrad


 ----------------------------------------------------------------------

 Electric dipole moment (input orientation):
 (Debye = 10**-18 statcoulomb cm , SI units = C m)
                  (au)            (Debye)         (10**-30 SI)
   Tot        0.208237D+01      0.529286D+01      0.176551D+02
   x         -0.140554D+01     -0.357253D+01     -0.119167D+02
   y         -0.118382D+01     -0.300898D+01     -0.100369D+02
   z         -0.979434D+00     -0.248947D+01     -0.830399D+01

 Dipole polarizability, Alpha (input orientation).
 (esu units = cm**3 , SI units = C**2 m**2 J**-1)
 Alpha(0;0):
               (au)            (10**-24 esu)      (10**-40 SI)
   iso        0.555918D+02      0.823785D+01      0.916584D+01
   aniso      0.188918D+02      0.279948D+01      0.311484D+01
   xx         0.509504D+02      0.755008D+01      0.840059D+01
   yx        -0.267302D+01     -0.396101D+00     -0.440722D+00
   yy         0.604701D+02      0.896075D+01      0.997018D+01
   zx         0.931011D+01      0.137962D+01      0.153503D+01
   zy        -0.156372D+01     -0.231720D+00     -0.257823D+00
   zz         0.553547D+02      0.820272D+01      0.912675D+01

 ----------------------------------------------------------------------

 Dipole orientation:
     6          3.29651961         -4.24672222          0.05062955
     6          1.43141955         -2.17279099          0.19408002
     6          3.35452596         -0.60906878         -1.43581994
     8          3.46953839         -5.78833078         -1.89364343
     8          1.58524333         -5.31519625         -3.86594494
     8          3.21040135         -0.74028518         -3.86686784
     1          2.11686694         -3.50836759         -4.37511948
     1          5.25082453         -1.89769249         -0.66262523
     1          4.40568100         -4.93503348          1.64079619
     1          3.87498701          1.18014319         -0.49011006
     1          1.21709013         -1.46614137          2.12074834
     1         -0.37759350         -2.52856081         -0.72086264

 Electric dipole moment (dipole orientation):
 (Debye = 10**-18 statcoulomb cm , SI units = C m)
                  (au)            (Debye)         (10**-30 SI)
   Tot        0.208237D+01      0.529286D+01      0.176551D+02
   x          0.000000D+00      0.000000D+00      0.000000D+00
   y          0.000000D+00      0.000000D+00      0.000000D+00
   z          0.208237D+01      0.529286D+01      0.176551D+02

 Dipole polarizability, Alpha (dipole orientation).
 (esu units = cm**3 , SI units = C**2 m**2 J**-1)
 Alpha(0;0):
               (au)            (10**-24 esu)      (10**-40 SI)
   iso        0.555918D+02      0.823785D+01      0.916584D+01
   aniso      0.188918D+02      0.279948D+01      0.311484D+01
   xx         0.453434D+02      0.671920D+01      0.747612D+01
   yx         0.329102D+01      0.487679D+00      0.542616D+00
   yy         0.634067D+02      0.939591D+01      0.104544D+02
   zx         0.381592D+01      0.565461D+00      0.629161D+00
   zy        -0.275007D+01     -0.407518D+00     -0.453424D+00
   zz         0.580252D+02      0.859844D+01      0.956706D+01

 ----------------------------------------------------------------------
 1\1\GINC-BELL-A064\Freq\RB3LYP\6-31+G(d)\C3H6O3\ZHAO922\23-Dec-2020\0\
 \#N Geom=AllCheck Guess=TCheck SCRF=Check GenChk RB3LYP/6-31+G(d) Freq
 \\pp_12_0 TS\\0,1\C,0.5993687308,1.2828254403,-2.4676165893\C,0.153385
 9938,0.6409955607,-1.2132326635\C,1.6538446937,0.2201449899,-1.0240277
 834\O,1.1441145638,2.4803090633,-2.5092647269\O,1.225753797,3.13853116
 06,-1.2029996066\O,2.4514080656,1.0255690395,-0.406946106\H,1.85129976
 07,2.472321616,-0.7225944919\H,1.8922660759,0.2576834682,-2.281455837\
 H,0.34141633,0.9354477781,-3.4666409183\H,1.7532262156,-0.8749310192,-
 0.9070501664\H,-0.5154672617,-0.2007645621,-1.4036329992\H,-0.22961996
 51,1.3129524647,-0.4463931115\\Version=ES64L-G16RevB.01\State=1-A\HF=-
 343.3973139\RMSD=5.149e-09\RMSF=3.287e-06\ZeroPoint=0.0885668\Thermal=
 0.0940649\Dipole=-1.4055419,-1.183823,-0.9794338\DipoleDeriv=0.4760438
 ,-0.0221488,0.0448466,-0.4689224,1.4165718,-0.5801862,-0.1824885,-0.27
 46082,0.1198714,-0.2469436,0.1888629,-0.0080075,0.1168623,0.0104847,0.
 0752589,0.053761,0.0468718,-0.1383743,0.717613,0.2946955,0.3622112,0.3
 828464,0.2646931,0.4620616,0.6960075,-0.1201362,1.3360842,-0.0193197,-
 0.3810936,0.1985743,0.2416769,-0.9033645,0.2141176,0.0156694,0.2104436
 ,-0.183889,-0.2872072,0.0886855,-0.0349731,-0.0300034,-0.3782579,0.184
 5465,-0.000459,0.0289059,-0.1171972,-0.890587,-0.0800948,-0.4084518,-0
 .4057846,-0.7135316,-0.4607475,-0.422205,0.0459135,-0.9181267,0.295073
 4,-0.1121011,0.0246304,0.019895,0.5682933,-0.0218733,0.0455274,-0.1631
 467,0.2556234,-0.1482094,0.0967514,-0.0570673,0.1818075,-0.1485686,0.1
 15307,-0.1245734,0.134785,-0.51811,0.0006661,0.0246089,-0.1351395,0.03
 59682,0.01934,0.0733992,-0.0006977,0.0083053,0.0459841,0.0601116,-0.03
 29088,-0.0026837,0.0102816,-0.1932881,0.0163559,-0.0963765,0.1596687,-
 0.0249293,-0.0021954,-0.062866,0.0075795,-0.0957225,-0.0220038,-0.0301
 925,-0.0273334,-0.0486376,0.0849174,0.0449543,-0.0023911,0.0084807,0.0
 11095,0.0796316,-0.0480471,0.0431683,-0.0283651,0.058146\Polar=50.9504
 489,-2.673023,60.4701458,9.3101135,-1.5637235,55.3546866\Quadrupole=-1
 .1749246,0.1505798,1.0243448,1.8869655,-1.1166715,1.7303056\PG=C01 [X(
 C3H6O3)]\NImag=1\\0.23686548,0.23635290,0.46861581,0.02854469,0.036440
 13,0.67387976,-0.07726206,-0.04911738,0.08285279,0.44940390,-0.0277278
 2,-0.10133263,0.03316567,0.09780902,0.57126577,0.03663112,0.04642962,-
 0.20482627,-0.10931443,0.11843155,0.52039353,0.02266135,0.00685780,-0.
 05190953,-0.08904166,0.01383783,0.01845432,0.39595644,0.00222830,0.019
 39849,0.00382610,0.04149764,-0.09102196,-0.00219294,0.07069746,0.65137
 685,-0.09094260,0.09319148,0.01604933,-0.02735586,-0.00406735,-0.07207
 693,0.13772758,0.03961542,0.19316933,-0.11390848,-0.11632164,0.0268171
 9,0.00252954,-0.02064831,-0.00342444,0.00109592,-0.00677700,-0.0034724
 8,0.12260632,-0.14900062,-0.28130109,0.03335539,-0.01244015,-0.0223940
 3,0.00362098,0.00755424,-0.03652846,-0.04498855,0.15175714,0.43420357,
 0.01418448,0.00328510,-0.11750410,0.00595322,0.02957149,0.00927976,0.0
 0776628,0.01156001,-0.00030268,-0.00893637,0.02878659,0.31779029,-0.00
 242066,0.00274003,-0.02219686,-0.00265134,-0.00210521,0.00390518,-0.01
 449019,-0.00411582,-0.01619222,-0.02790808,-0.01099531,-0.00720908,0.1
 5373241,-0.00758153,-0.04726097,-0.03689621,-0.00397971,0.00316637,-0.
 00099007,0.01287578,0.01156004,0.02175930,0.01584259,-0.05625604,-0.01
 217299,-0.12304217,0.27312296,-0.00825769,-0.00926386,-0.01100289,0.00
 677410,0.00351211,0.00031783,-0.01302418,-0.00896046,-0.01114962,-0.00
 369958,-0.08779431,-0.17599757,0.09401104,0.00280993,0.26566050,-0.001
 58782,-0.01433184,0.00096821,-0.03639381,-0.02455544,-0.03020861,-0.21
 433033,-0.13223285,-0.08596256,0.00299770,0.00251512,-0.00161543,0.002
 32622,0.01439017,0.00066707,0.26532967,0.00938529,-0.04002829,-0.00432
 543,-0.01397134,0.01092384,-0.00189476,-0.13424528,-0.22227139,-0.0636
 9152,0.00887702,0.02685872,-0.00699619,0.03804896,-0.04986085,0.029032
 25,0.15964383,0.24829324,0.00792433,-0.02917336,-0.01539582,-0.0107370
 5,-0.00065836,0.00495489,-0.11836833,-0.10739283,-0.11936649,0.0096551
 3,0.00942616,0.00802126,-0.00360481,0.00379922,0.00293900,0.15727719,0
 .13320147,0.17366804,-0.00183437,-0.01721229,-0.00431791,-0.00187042,-
 0.00080476,-0.00262614,0.01727928,0.00525569,0.01936689,0.00502225,0.0
 1176229,0.00508305,-0.11568424,0.09683549,-0.08065132,-0.02096999,-0.0
 2290320,-0.00398808,0.12649620,0.00172185,0.03187016,-0.00639363,0.003
 65779,-0.00273720,0.00258473,-0.02482434,-0.03042790,-0.03431316,-0.02
 703987,-0.01403402,-0.02282168,0.10878746,-0.13263849,0.07134609,0.004
 90684,0.03920910,0.00595805,-0.07584985,0.11517792,-0.00510593,-0.0110
 6039,0.00052525,-0.00385287,0.00074446,0.00004228,0.01101156,0.0045175
 6,0.01174849,-0.01695466,0.01944747,-0.03617705,-0.05315066,0.03393593
 ,-0.08231676,-0.00501978,-0.01538580,-0.01505637,0.07515143,-0.0322008
 0,0.12805400,0.00673188,-0.01706654,-0.00810836,-0.01512308,0.00490768
 ,0.03908374,-0.05508933,0.00541544,0.05331931,0.00567629,0.00544809,-0
 .00181758,0.00193891,-0.00192273,0.00232963,0.00179948,-0.01473999,-0.
 03150958,-0.00281368,0.00420399,-0.00152833,0.06623284,-0.03233701,0.0
 1997999,0.00853565,0.00371655,0.00709098,-0.01526964,0.01312872,-0.033
 31932,-0.02364349,0.00410348,-0.03121757,0.00104539,-0.00089495,0.0026
 6059,-0.00118073,-0.00068577,0.00568865,-0.01102983,0.00312406,-0.0049
 9656,0.00050941,0.01023474,0.04065666,0.04081441,-0.03970033,-0.028166
 24,0.01962605,-0.00379286,-0.00331650,0.01438766,0.02360630,0.01751270
 ,-0.00216042,0.02792546,-0.00084680,0.00422160,-0.00740058,0.00337704,
 -0.02823366,-0.04144979,-0.04436262,-0.00503566,0.00950429,-0.00422885
 ,-0.04256714,0.01749292,0.07729916,-0.05012270,-0.03686652,-0.06041934
 ,0.01238643,0.00486143,0.01060017,-0.00771555,-0.00010364,0.01607180,-
 0.00124817,-0.00465939,-0.01388187,0.00322720,-0.00273885,0.00242722,-
 0.00115461,-0.00466459,-0.00598551,-0.00151664,0.00288768,-0.00002288,
 -0.00798028,0.00618867,-0.01478969,0.05117639,-0.02510538,-0.07020219,
 -0.07307398,-0.00150108,0.00486464,0.01124883,-0.00057287,0.00060832,-
 0.00893158,-0.00877524,-0.02143094,-0.03347657,-0.00732619,0.00052031,
 -0.00032113,0.00214330,0.00499966,0.00381609,0.00224515,-0.00455799,0.
 00075569,0.00442521,-0.00168329,0.00786523,0.03525964,0.08715936,-0.06
 159627,-0.08618014,-0.30435047,-0.00473107,-0.00593593,-0.01042723,0.0
 0311264,-0.00067990,-0.00364063,-0.00077289,-0.00275571,0.00295885,0.0
 0055275,0.00138358,0.00326230,-0.00019080,0.00047660,0.00155347,0.0002
 0508,0.00032933,0.00006085,-0.00219632,0.00100497,0.00150231,0.0663777
 9,0.09090532,0.30860090,-0.01409840,0.00311140,0.01218324,-0.01526335,
 0.03084465,-0.01294066,-0.03797717,0.02585390,-0.02116944,0.00251997,-
 0.00218125,0.00001001,0.00053761,-0.00161500,-0.00018724,0.00324992,-0
 .02449756,0.00174060,-0.00134335,0.00141701,-0.00101559,0.00628342,-0.
 01062980,0.01060345,0.00277692,-0.00117043,-0.00031935,0.05270714,0.00
 297676,0.00098802,-0.00157221,0.00431890,-0.00761264,0.00519047,0.0274
 2481,-0.27428048,0.02792041,-0.00059730,0.00248213,0.00137325,0.001512
 66,-0.00210949,-0.00109726,-0.01199775,-0.02415916,-0.00856913,-0.0017
 7898,0.00248741,-0.00111583,0.00034616,-0.00451473,0.00688832,-0.00004
 047,0.00008963,-0.00001571,-0.02193022,0.30551843,0.01100870,-0.015798
 04,0.00379484,-0.00214438,-0.00313722,0.00162871,-0.00649256,0.0407714
 4,-0.03467151,0.00218952,0.01191344,-0.00206106,0.00266155,-0.00351157
 ,0.00316428,-0.00517245,-0.03032603,0.00264758,-0.00451033,0.00605251,
 -0.00284856,-0.00627306,0.02331565,-0.01880929,-0.00203758,0.00037508,
 0.00083931,0.01098770,-0.02941072,0.04503113,-0.00264175,-0.00106769,-
 0.00131596,-0.14952111,-0.13277391,-0.02316326,-0.00979942,-0.02440204
 ,-0.00591854,0.00103203,0.00130445,0.00024184,0.00100148,0.00085071,-0
 .00051833,-0.00672464,0.00205071,-0.00009949,-0.00069996,0.00088703,-0
 .00023912,-0.00068273,0.00158626,0.00180915,0.00030265,-0.00048239,0.0
 0046949,0.00146608,0.00007631,-0.00070827,0.15703233,-0.00765643,-0.01
 459957,-0.00639526,-0.13041163,-0.21429080,-0.03883007,0.00592251,0.01
 131125,0.00352253,-0.00215486,-0.00058310,0.00207446,-0.00061520,-0.00
 022693,0.00125256,0.00269830,0.00018852,0.00008470,0.00079118,-0.00015
 535,0.00019957,-0.00045160,-0.00052486,-0.00096199,0.00072768,0.001213
 81,-0.00024977,-0.00038308,0.00110890,0.00039202,0.14276345,0.22786254
 ,0.01777130,0.02865106,0.00831700,-0.02867983,-0.04374003,-0.05861453,
 -0.00115148,-0.01183935,-0.00428115,0.00299644,0.00290506,-0.00596139,
 -0.00097025,-0.00203178,-0.00016474,-0.00467662,0.00131304,-0.00000563
 ,0.00028767,0.00057205,-0.00044390,0.00024799,-0.00111478,0.00051807,-
 0.00063969,-0.00043016,0.00113963,0.00089374,0.00038326,0.00115053,0.0
 2920242,0.03977640,0.05915672,-0.00238248,0.00292177,-0.00309816,-0.07
 719305,0.05635484,0.07300301,-0.00854933,0.01668292,0.02452811,-0.0004
 1528,-0.00106461,0.00022146,0.00039067,0.00008524,0.00012929,0.0054582
 0,-0.00298386,-0.00230439,-0.00206507,-0.00075559,0.00072684,-0.006973
 71,0.00246504,0.00132425,-0.00013163,0.00086028,-0.00091103,-0.0008587
 9,-0.00031086,0.00049117,0.00923503,-0.01123032,-0.01528170,0.08348544
 ,-0.00325630,0.01387227,0.01333379,0.06042139,-0.15792235,-0.12832871,
 0.00134335,-0.00640544,-0.00637349,0.00173399,0.00020082,-0.00222886,-
 0.00199426,-0.00267751,0.00066480,-0.00249392,0.00015796,0.00053782,-0
 .00146479,0.00080293,-0.00034726,-0.00080044,0.00017946,0.00002303,-0.
 00085165,-0.00158131,0.00171735,0.00118037,0.00000195,-0.00063655,0.00
 920710,-0.01130442,-0.01444478,-0.06302485,0.16467563,0.00902348,-0.01
 682128,-0.02132040,0.07160934,-0.12409353,-0.18735553,-0.00151395,0.00
 716865,0.00700915,-0.00223744,-0.00184199,0.00080049,-0.00202823,-0.00
 068475,0.00191060,0.00216743,0.00004617,0.00040269,0.00103532,-0.00061
 779,0.00064061,-0.00098030,0.00033448,-0.00047899,0.00229957,0.0012671
 8,-0.00149930,-0.00078647,0.00002515,0.00013404,0.00024008,-0.00086515
 ,-0.00081061,-0.07882884,0.13608286,0.20056725\\0.00000073,-0.00000065
 ,-0.00000020,0.00000020,0.00000040,0.00000076,-0.00000097,0.00000038,0
 .00000109,0.00000095,-0.00000042,-0.00000071,0.00000983,-0.00000846,0.
 00000548,-0.00000007,-0.00000128,-0.00000063,-0.00000683,0.00000851,-0
 .00000730,-0.00000117,-0.00000079,0.00000034,-0.00000054,-0.00000007,0
 .00000013,-0.00000136,-0.00000051,0.00000019,-0.00000106,0.00000134,0.
 00000078,0.00000031,0.00000155,0.00000008\\\@


 WHAT, THEN, IS TIME?  IF NO ONE ASKS ME, I KNOW WHAT IT IS.
 IF I WISH TO EXPLAIN WHAT IT IS TO HIM WHO ASKS ME, I DO NOT KNOW.
                                   -- ST. AUGUSTINE (FIFTH CENTURY)
 Job cpu time:       0 days  0 hours  4 minutes 25.2 seconds.
 Elapsed time:       0 days  0 hours  0 minutes 16.8 seconds.
 File lengths (MBytes):  RWF=     28 Int=      0 D2E=      0 Chk=      3 Scr=      1
 Normal termination of Gaussian 16 at Wed Dec 23 22:07:05 2020.
