 Entering Gaussian System, Link 0=g16
 Initial command:
 /apps/cent7/gaussian/g16-B.01/g16-haswell/g16/l1.exe "/scratch/bell/zhao922/YARP/paper-example/KHP-network/pp_0/TS-folder/Gau-20226.inp" -scrdir="/scratch/bell/zhao922/YARP/paper-example/KHP-network/pp_0/TS-folder/"
 Entering Link 1 = /apps/cent7/gaussian/g16-B.01/g16-haswell/g16/l1.exe PID=     20227.
  
 Copyright (c) 1988-2017, Gaussian, Inc.  All Rights Reserved.
  
 This is part of the Gaussian(R) 16 program.  It is based on
 the Gaussian(R) 09 system (copyright 2009, Gaussian, Inc.),
 the Gaussian(R) 03 system (copyright 2003, Gaussian, Inc.),
 the Gaussian(R) 98 system (copyright 1998, Gaussian, Inc.),
 the Gaussian(R) 94 system (copyright 1995, Gaussian, Inc.),
 the Gaussian 92(TM) system (copyright 1992, Gaussian, Inc.),
 the Gaussian 90(TM) system (copyright 1990, Gaussian, Inc.),
 the Gaussian 88(TM) system (copyright 1988, Gaussian, Inc.),
 the Gaussian 86(TM) system (copyright 1986, Carnegie Mellon
 University), and the Gaussian 82(TM) system (copyright 1983,
 Carnegie Mellon University). Gaussian is a federally registered
 trademark of Gaussian, Inc.
  
 This software contains proprietary and confidential information,
 including trade secrets, belonging to Gaussian, Inc.
  
 This software is provided under written license and may be
 used, copied, transmitted, or stored only in accord with that
 written license.
  
 The following legend is applicable only to US Government
 contracts under FAR:
  
                    RESTRICTED RIGHTS LEGEND
  
 Use, reproduction and disclosure by the US Government is
 subject to restrictions as set forth in subparagraphs (a)
 and (c) of the Commercial Computer Software - Restricted
 Rights clause in FAR 52.227-19.
  
 Gaussian, Inc.
 340 Quinnipiac St., Bldg. 40, Wallingford CT 06492
  
  
 ---------------------------------------------------------------
 Warning -- This program may not be used in any manner that
 competes with the business of Gaussian, Inc. or will provide
 assistance to any competitor of Gaussian, Inc.  The licensee
 of this program is prohibited from giving any competitor of
 Gaussian, Inc. access to this program.  By using this program,
 the user acknowledges that Gaussian, Inc. is engaged in the
 business of creating and licensing software in the field of
 computational chemistry and represents and warrants to the
 licensee that it is not a competitor of Gaussian, Inc. and that
 it will not use this program in any manner prohibited above.
 ---------------------------------------------------------------
  

 Cite this work as:
 Gaussian 16, Revision B.01,
 M. J. Frisch, G. W. Trucks, H. B. Schlegel, G. E. Scuseria, 
 M. A. Robb, J. R. Cheeseman, G. Scalmani, V. Barone, 
 G. A. Petersson, H. Nakatsuji, X. Li, M. Caricato, A. V. Marenich, 
 J. Bloino, B. G. Janesko, R. Gomperts, B. Mennucci, H. P. Hratchian, 
 J. V. Ortiz, A. F. Izmaylov, J. L. Sonnenberg, D. Williams-Young, 
 F. Ding, F. Lipparini, F. Egidi, J. Goings, B. Peng, A. Petrone, 
 T. Henderson, D. Ranasinghe, V. G. Zakrzewski, J. Gao, N. Rega, 
 G. Zheng, W. Liang, M. Hada, M. Ehara, K. Toyota, R. Fukuda, 
 J. Hasegawa, M. Ishida, T. Nakajima, Y. Honda, O. Kitao, H. Nakai, 
 T. Vreven, K. Throssell, J. A. Montgomery, Jr., J. E. Peralta, 
 F. Ogliaro, M. J. Bearpark, J. J. Heyd, E. N. Brothers, K. N. Kudin, 
 V. N. Staroverov, T. A. Keith, R. Kobayashi, J. Normand, 
 K. Raghavachari, A. P. Rendell, J. C. Burant, S. S. Iyengar, 
 J. Tomasi, M. Cossi, J. M. Millam, M. Klene, C. Adamo, R. Cammi, 
 J. W. Ochterski, R. L. Martin, K. Morokuma, O. Farkas, 
 J. B. Foresman, and D. J. Fox, Gaussian, Inc., Wallingford CT, 2016.
 
 ******************************************
 Gaussian 16:  ES64L-G16RevB.01 20-Dec-2017
                23-Dec-2020 
 ******************************************
 %NProcShared=16
 Will use up to   16 processors via shared memory.
 %Mem=6GB
 --------------------------------------------------------------
 # B3LYP/6-31+G* OPT=(TS, CALCALL, NOEIGEN, maxcycles=100) Freq
 --------------------------------------------------------------
 1/5=1,6=100,10=4,11=1,18=20,26=3,38=1/1,3;
 2/9=110,12=2,17=6,18=5,40=1/2;
 3/5=1,6=6,7=11,11=2,25=1,30=1,71=2,74=-5,140=1/1,2,3;
 4//1;
 5/5=2,38=5/2;
 8/6=4,10=90,11=11/1;
 11/6=1,8=1,9=11,15=111,16=1/1,2,10;
 10/6=1/2;
 6/7=2,8=2,9=2,10=2,18=1,28=1/1;
 7/10=1,25=1/1,2,3,16;
 1/5=1,6=100,10=4,11=1,18=20,26=3/3(3);
 2/9=110/2;
 7/8=1,9=1,25=1,44=-1/16;
 99//99;
 2/9=110/2;
 3/5=1,6=6,7=11,11=2,25=1,30=1,71=2,74=-5,140=1/1,2,3;
 4/5=5,16=3,69=1/1;
 5/5=2,38=5/2;
 8/6=4,10=90,11=11/1;
 11/6=1,8=1,9=11,15=111,16=1/1,2,10;
 10/6=1/2;
 7/10=1,25=1/1,2,3,16;
 1/5=1,6=100,10=4,11=1,18=20,26=3/3(-8);
 2/9=110/2;
 6/7=2,8=2,9=2,10=2,18=1,19=2,28=1/1;
 7/8=1,9=1,25=1,44=-1/16;
 99//99;
 ----------
 pp_16_0 TS
 ----------
 Symbolic Z-matrix:
 Charge =  0 Multiplicity = 1
 C                     1.17248   1.4251   -2.12594 
 C                     0.18002   0.68766  -1.26254 
 C                     1.45682  -1.18788  -1.05129 
 O                     0.7118    2.68775  -2.56326 
 O                     0.64219   3.58249  -1.44957 
 O                     2.59689  -1.02445  -1.21819 
 H                     0.69581   4.44493  -1.87987 
 H                     2.1305    1.54589  -1.60274 
 H                     1.33855   0.89313  -3.06759 
 H                     0.46792  -0.84191  -0.55446 
 H                    -0.74226   0.51625  -1.80782 
 H                    -0.04177   1.22121  -0.34239 
 
 Add virtual bond connecting atoms H10        and C2         Dist= 3.23D+00.

 GradGradGradGradGradGradGradGradGradGradGradGradGradGradGradGradGradGrad
 Berny optimization.
 Initialization pass.
                           ----------------------------
                           !    Initial Parameters    !
                           ! (Angstroms and Degrees)  !
 --------------------------                            --------------------------
 ! Name  Definition              Value          Derivative Info.                !
 --------------------------------------------------------------------------------
 ! R1    R(1,2)                  1.5081         calculate D2E/DX2 analytically  !
 ! R2    R(1,4)                  1.4134         calculate D2E/DX2 analytically  !
 ! R3    R(1,8)                  1.0982         calculate D2E/DX2 analytically  !
 ! R4    R(1,9)                  1.0942         calculate D2E/DX2 analytically  !
 ! R5    R(2,10)                 1.7099         calculate D2E/DX2 analytically  !
 ! R6    R(2,11)                 1.085          calculate D2E/DX2 analytically  !
 ! R7    R(2,12)                 1.0865         calculate D2E/DX2 analytically  !
 ! R8    R(3,6)                  1.1638         calculate D2E/DX2 analytically  !
 ! R9    R(3,10)                 1.1595         calculate D2E/DX2 analytically  !
 ! R10   R(4,5)                  1.4303         calculate D2E/DX2 analytically  !
 ! R11   R(5,7)                  0.9653         calculate D2E/DX2 analytically  !
 ! A1    A(2,1,4)              113.5457         calculate D2E/DX2 analytically  !
 ! A2    A(2,1,8)              110.8009         calculate D2E/DX2 analytically  !
 ! A3    A(2,1,9)              110.7841         calculate D2E/DX2 analytically  !
 ! A4    A(4,1,8)              109.4787         calculate D2E/DX2 analytically  !
 ! A5    A(4,1,9)              102.5629         calculate D2E/DX2 analytically  !
 ! A6    A(8,1,9)              109.3328         calculate D2E/DX2 analytically  !
 ! A7    A(1,2,10)             124.3119         calculate D2E/DX2 analytically  !
 ! A8    A(1,2,11)             110.4209         calculate D2E/DX2 analytically  !
 ! A9    A(1,2,12)             112.2752         calculate D2E/DX2 analytically  !
 ! A10   A(10,2,11)            102.1172         calculate D2E/DX2 analytically  !
 ! A11   A(10,2,12)             97.062          calculate D2E/DX2 analytically  !
 ! A12   A(11,2,12)            109.2484         calculate D2E/DX2 analytically  !
 ! A13   A(6,3,10)             148.7653         calculate D2E/DX2 analytically  !
 ! A14   A(1,4,5)              109.4983         calculate D2E/DX2 analytically  !
 ! A15   A(4,5,7)              102.0696         calculate D2E/DX2 analytically  !
 ! A16   A(2,10,3)             103.4774         calculate D2E/DX2 analytically  !
 ! D1    D(4,1,2,10)          -178.4086         calculate D2E/DX2 analytically  !
 ! D2    D(4,1,2,11)            59.9053         calculate D2E/DX2 analytically  !
 ! D3    D(4,1,2,12)           -62.2793         calculate D2E/DX2 analytically  !
 ! D4    D(8,1,2,10)           -54.7227         calculate D2E/DX2 analytically  !
 ! D5    D(8,1,2,11)          -176.4088         calculate D2E/DX2 analytically  !
 ! D6    D(8,1,2,12)            61.4067         calculate D2E/DX2 analytically  !
 ! D7    D(9,1,2,10)            66.809          calculate D2E/DX2 analytically  !
 ! D8    D(9,1,2,11)           -54.8771         calculate D2E/DX2 analytically  !
 ! D9    D(9,1,2,12)          -177.0616         calculate D2E/DX2 analytically  !
 ! D10   D(2,1,4,5)             69.3143         calculate D2E/DX2 analytically  !
 ! D11   D(8,1,4,5)            -55.0893         calculate D2E/DX2 analytically  !
 ! D12   D(9,1,4,5)           -171.1031         calculate D2E/DX2 analytically  !
 ! D13   D(1,2,10,3)            -9.5689         calculate D2E/DX2 analytically  !
 ! D14   D(11,2,10,3)          115.7811         calculate D2E/DX2 analytically  !
 ! D15   D(12,2,10,3)         -132.7282         calculate D2E/DX2 analytically  !
 ! D16   D(6,3,10,2)            64.2167         calculate D2E/DX2 analytically  !
 ! D17   D(1,4,5,7)            156.9387         calculate D2E/DX2 analytically  !
 --------------------------------------------------------------------------------
 Trust Radius=3.00D-01 FncErr=1.00D-07 GrdErr=1.00D-06 EigMax=2.50D+02 EigMin=1.00D-04
 Number of steps in this run=    100 maximum allowed number of steps=    100.
 Search for a saddle point of order  1.
 GradGradGradGradGradGradGradGradGradGradGradGradGradGradGradGradGradGrad

                          Input orientation:                          
 ---------------------------------------------------------------------
 Center     Atomic      Atomic             Coordinates (Angstroms)
 Number     Number       Type             X           Y           Z
 ---------------------------------------------------------------------
      1          6           0        1.172476    1.425096   -2.125936
      2          6           0        0.180016    0.687658   -1.262539
      3          6           0        1.456815   -1.187876   -1.051293
      4          8           0        0.711797    2.687752   -2.563256
      5          8           0        0.642194    3.582487   -1.449565
      6          8           0        2.596890   -1.024449   -1.218185
      7          1           0        0.695814    4.444925   -1.879867
      8          1           0        2.130500    1.545894   -1.602742
      9          1           0        1.338547    0.893125   -3.067589
     10          1           0        0.467916   -0.841905   -0.554455
     11          1           0       -0.742263    0.516254   -1.807822
     12          1           0       -0.041766    1.221211   -0.342392
 ---------------------------------------------------------------------
                    Distance matrix (angstroms):
                    1          2          3          4          5
     1  C    0.000000
     2  C    1.508060   0.000000
     3  C    2.839600   2.278699   0.000000
     4  O    1.413426   2.444388   4.226296   0.000000
     5  O    2.322286   2.937452   4.855779   1.430281   0.000000
     6  O    2.975439   2.962188   1.163758   4.375297   5.009814
     7  H    3.067103   3.842421   5.744049   1.885453   0.965316
     8  H    1.098241   2.157938   2.869050   2.058918   2.527099
     9  H    1.094204   2.154673   2.900000   1.966686   3.214899
    10  H    2.846972   1.709922   1.159511   4.068567   4.517393
    11  H    2.143226   1.085040   2.883113   2.720363   3.383320
    12  H    2.167252   1.086525   2.924378   2.766015   2.696156
                    6          7          8          9         10
     6  O    0.000000
     7  H    5.828033   0.000000
     8  H    2.640467   3.246460   0.000000
     9  H    2.946322   3.799878   1.788595   0.000000
    10  H    2.237496   5.455202   3.092681   3.175558   0.000000
    11  H    3.724430   4.184222   3.058592   2.461466   2.209085
    12  H    3.573865   3.646942   2.532319   3.072394   2.135695
                   11         12
    11  H    0.000000
    12  H    1.770634   0.000000
 Stoichiometry    C3H6O3
 Framework group  C1[X(C3H6O3)]
 Deg. of freedom    30
 Full point group                 C1      NOp   1
 Largest Abelian subgroup         C1      NOp   1
 Largest concise Abelian subgroup C1      NOp   1
                         Standard orientation:                         
 ---------------------------------------------------------------------
 Center     Atomic      Atomic             Coordinates (Angstroms)
 Number     Number       Type             X           Y           Z
 ---------------------------------------------------------------------
      1          6           0       -0.323421   -0.323284    0.358706
      2          6           0        0.243613    1.049670    0.098483
      3          6           0        2.410140    0.351773   -0.009085
      4          8           0       -1.721266   -0.326506    0.567972
      5          8           0       -2.388229   -0.013302   -0.657902
      6          8           0        2.548848   -0.772725   -0.274785
      7          1           0       -3.262118   -0.398129   -0.516268
      8          1           0       -0.074311   -1.009988   -0.461364
      9          1           0        0.059092   -0.729333    1.300030
     10          1           0        1.892024    1.365686   -0.228179
     11          1           0        0.048427    1.705697    0.940410
     12          1           0       -0.159928    1.497372   -0.805538
 ---------------------------------------------------------------------
 Rotational constants (GHZ):           9.2505354           1.4550426           1.3864675
 Standard basis: 6-31+G(d) (6D, 7F)
 There are   126 symmetry adapted cartesian basis functions of A   symmetry.
 There are   126 symmetry adapted basis functions of A   symmetry.
   126 basis functions,   216 primitive gaussians,   126 cartesian basis functions
    24 alpha electrons       24 beta electrons
       nuclear repulsion energy       226.6097162820 Hartrees.
 NAtoms=   12 NActive=   12 NUniq=   12 SFac= 1.00D+00 NAtFMM=   60 NAOKFM=F Big=F
 Integral buffers will be    131072 words long.
 Raffenetti 2 integral format.
 Two-electron integral symmetry is turned on.
 One-electron integrals computed using PRISM.
 NBasis=   126 RedAO= T EigKep=  1.49D-04  NBF=   126
 NBsUse=   126 1.00D-06 EigRej= -1.00D+00 NBFU=   126
 ExpMin= 4.38D-02 ExpMax= 5.48D+03 ExpMxC= 8.25D+02 IAcc=3 IRadAn=         5 AccDes= 0.00D+00
 Harris functional with IExCor=  402 and IRadAn=       5 diagonalized for initial guess.
 HarFok:  IExCor=  402 AccDes= 0.00D+00 IRadAn=         5 IDoV= 1 UseB2=F ITyADJ=14
 ICtDFT=  3500011 ScaDFX=  1.000000  1.000000  1.000000  1.000000
 FoFCou: FMM=F IPFlag=           0 FMFlag=      100000 FMFlg1=           0
         NFxFlg=           0 DoJE=T BraDBF=F KetDBF=T FulRan=T
         wScrn=  0.000000 ICntrl=       500 IOpCl=  0 I1Cent=   200000004 NGrid=           0
         NMat0=    1 NMatS0=      1 NMatT0=    0 NMatD0=    1 NMtDS0=    0 NMtDT0=    0
 Petite list used in FoFCou.
 Keep R1 ints in memory in canonical form, NReq=47237537.
 Requested convergence on RMS density matrix=1.00D-08 within 128 cycles.
 Requested convergence on MAX density matrix=1.00D-06.
 Requested convergence on             energy=1.00D-06.
 No special actions if energy rises.
 SCF Done:  E(RB3LYP) =  -343.353091572     A.U. after   17 cycles
            NFock= 17  Conv=0.22D-08     -V/T= 2.0088
 DoSCS=F DFT=T ScalE2(SS,OS)=  1.000000  1.000000
 Range of M.O.s used for correlation:     1   126
 NBasis=   126 NAE=    24 NBE=    24 NFC=     0 NFV=     0
 NROrb=    126 NOA=    24 NOB=    24 NVA=   102 NVB=   102

 **** Warning!!: The largest alpha MO coefficient is  0.23258662D+02

 Symmetrizing basis deriv contribution to polar:
 IMax=3 JMax=2 DiffMx= 0.00D+00
 G2DrvN: will do    13 centers at a time, making    1 passes.
 Calling FoFCou, ICntrl=  3107 FMM=F I1Cent=   0 AccDes= 0.00D+00.
 End of G2Drv F.D. properties file   721 does not exist.
 End of G2Drv F.D. properties file   722 does not exist.
 End of G2Drv F.D. properties file   788 does not exist.
          IDoAtm=111111111111
          Differentiating once with respect to electric field.
                with respect to dipole field.
          Differentiating once with respect to nuclear coordinates.
 Keep R1 ints in memory in canonical form, NReq=47193566.
          There are    39 degrees of freedom in the 1st order CPHF.  IDoFFX=6 NUNeed=     3.
     36 vectors produced by pass  0 Test12= 6.28D-15 2.56D-09 XBig12= 1.88D+02 9.36D+00.
 AX will form    36 AO Fock derivatives at one time.
     36 vectors produced by pass  1 Test12= 6.28D-15 2.56D-09 XBig12= 4.43D+01 1.65D+00.
     36 vectors produced by pass  2 Test12= 6.28D-15 2.56D-09 XBig12= 4.12D-01 1.23D-01.
     36 vectors produced by pass  3 Test12= 6.28D-15 2.56D-09 XBig12= 1.82D-03 8.08D-03.
     36 vectors produced by pass  4 Test12= 6.28D-15 2.56D-09 XBig12= 2.64D-06 2.18D-04.
     27 vectors produced by pass  5 Test12= 6.28D-15 2.56D-09 XBig12= 2.39D-09 6.62D-06.
      4 vectors produced by pass  6 Test12= 6.28D-15 2.56D-09 XBig12= 1.91D-12 2.33D-07.
      3 vectors produced by pass  7 Test12= 6.28D-15 2.56D-09 XBig12= 1.63D-15 5.94D-09.
 InvSVY:  IOpt=1 It=  1 EMax= 7.11D-15
 Solved reduced A of dimension   214 with    39 vectors.
 Isotropic polarizability for W=    0.000000       63.43 Bohr**3.
 End of Minotr F.D. properties file   721 does not exist.
 End of Minotr F.D. properties file   722 does not exist.
 End of Minotr F.D. properties file   788 does not exist.

 **********************************************************************

            Population analysis using the SCF Density.

 **********************************************************************

 Orbital symmetries:
       Occupied  (A) (A) (A) (A) (A) (A) (A) (A) (A) (A) (A) (A)
                 (A) (A) (A) (A) (A) (A) (A) (A) (A) (A) (A) (A)
       Virtual   (A) (A) (A) (A) (A) (A) (A) (A) (A) (A) (A) (A)
                 (A) (A) (A) (A) (A) (A) (A) (A) (A) (A) (A) (A)
                 (A) (A) (A) (A) (A) (A) (A) (A) (A) (A) (A) (A)
                 (A) (A) (A) (A) (A) (A) (A) (A) (A) (A) (A) (A)
                 (A) (A) (A) (A) (A) (A) (A) (A) (A) (A) (A) (A)
                 (A) (A) (A) (A) (A) (A) (A) (A) (A) (A) (A) (A)
                 (A) (A) (A) (A) (A) (A) (A) (A) (A) (A) (A) (A)
                 (A) (A) (A) (A) (A) (A) (A) (A) (A) (A) (A) (A)
                 (A) (A) (A) (A) (A) (A)
 The electronic state is 1-A.
 Alpha  occ. eigenvalues --  -19.25662 -19.21198 -19.21117 -10.33344 -10.24277
 Alpha  occ. eigenvalues --  -10.18014  -1.15044  -1.13252  -0.92471  -0.74241
 Alpha  occ. eigenvalues --   -0.64827  -0.60004  -0.53936  -0.53022  -0.49241
 Alpha  occ. eigenvalues --   -0.46968  -0.45869  -0.45772  -0.41937  -0.38968
 Alpha  occ. eigenvalues --   -0.35089  -0.33818  -0.25141  -0.21509
 Alpha virt. eigenvalues --   -0.09834  -0.03106   0.00767   0.01694   0.02139
 Alpha virt. eigenvalues --    0.03543   0.04388   0.06243   0.06399   0.07997
 Alpha virt. eigenvalues --    0.08844   0.08927   0.10446   0.13046   0.13461
 Alpha virt. eigenvalues --    0.14876   0.16085   0.18284   0.19321   0.20400
 Alpha virt. eigenvalues --    0.21258   0.21761   0.23406   0.24418   0.26064
 Alpha virt. eigenvalues --    0.26930   0.28239   0.28658   0.29848   0.32034
 Alpha virt. eigenvalues --    0.32913   0.33888   0.35759   0.36870   0.38888
 Alpha virt. eigenvalues --    0.45843   0.61471   0.64844   0.65678   0.68610
 Alpha virt. eigenvalues --    0.71092   0.74345   0.78513   0.79149   0.84344
 Alpha virt. eigenvalues --    0.92750   0.93833   1.00139   1.00752   1.04107
 Alpha virt. eigenvalues --    1.07651   1.09428   1.10324   1.13125   1.14808
 Alpha virt. eigenvalues --    1.17567   1.18519   1.20120   1.23773   1.25062
 Alpha virt. eigenvalues --    1.26631   1.31284   1.38290   1.46350   1.49229
 Alpha virt. eigenvalues --    1.50817   1.52536   1.53339   1.56145   1.57331
 Alpha virt. eigenvalues --    1.66151   1.67845   1.70835   1.79941   1.80716
 Alpha virt. eigenvalues --    1.90323   1.92221   1.95342   1.97523   2.00979
 Alpha virt. eigenvalues --    2.04293   2.08902   2.16749   2.24986   2.33955
 Alpha virt. eigenvalues --    2.42012   2.42751   2.44432   2.51844   2.56092
 Alpha virt. eigenvalues --    2.57164   2.68361   2.73173   2.89513   3.05365
 Alpha virt. eigenvalues --    3.12331   3.99431   4.08065   4.19623   4.24432
 Alpha virt. eigenvalues --    4.27920   4.48627
          Condensed to atoms (all electrons):
               1          2          3          4          5          6
     1  C    5.485556  -0.178273   0.080096   0.115492  -0.022538   0.027492
     2  C   -0.178273   6.843915  -0.624675  -0.033129  -0.003391  -0.109499
     3  C    0.080096  -0.624675   5.784241  -0.012630   0.007241   0.506779
     4  O    0.115492  -0.033129  -0.012630   8.156344   0.031231  -0.003788
     5  O   -0.022538  -0.003391   0.007241   0.031231   8.354488   0.000853
     6  O    0.027492  -0.109499   0.506779  -0.003788   0.000853   7.795052
     7  H    0.006590   0.000570  -0.000148  -0.029608   0.193084   0.000014
     8  H    0.413959  -0.074151  -0.010052  -0.051298   0.008407   0.007020
     9  H    0.420753  -0.073582   0.005124  -0.053181   0.008344   0.000264
    10  H   -0.023279   0.218805   0.120068   0.002751  -0.000654  -0.027517
    11  H   -0.047927   0.356228   0.012712  -0.002278   0.001692   0.002714
    12  H   -0.042418   0.341008   0.020094  -0.014209   0.005993   0.002097
               7          8          9         10         11         12
     1  C    0.006590   0.413959   0.420753  -0.023279  -0.047927  -0.042418
     2  C    0.000570  -0.074151  -0.073582   0.218805   0.356228   0.341008
     3  C   -0.000148  -0.010052   0.005124   0.120068   0.012712   0.020094
     4  O   -0.029608  -0.051298  -0.053181   0.002751  -0.002278  -0.014209
     5  O    0.193084   0.008407   0.008344  -0.000654   0.001692   0.005993
     6  O    0.000014   0.007020   0.000264  -0.027517   0.002714   0.002097
     7  H    0.348007   0.000283  -0.000288   0.000001  -0.000004  -0.000041
     8  H    0.000283   0.531894  -0.031353   0.000422   0.004419  -0.004269
     9  H   -0.000288  -0.031353   0.522223   0.000346  -0.005275   0.004245
    10  H    0.000001   0.000422   0.000346   0.382403  -0.008346  -0.004996
    11  H   -0.000004   0.004419  -0.005275  -0.008346   0.495225  -0.027442
    12  H   -0.000041  -0.004269   0.004245  -0.004996  -0.027442   0.486753
 Mulliken charges:
               1
     1  C   -0.235503
     2  C   -0.663825
     3  C    0.111151
     4  O   -0.105696
     5  O   -0.584751
     6  O   -0.201481
     7  H    0.481541
     8  H    0.204719
     9  H    0.202378
    10  H    0.339997
    11  H    0.218284
    12  H    0.233184
 Sum of Mulliken charges =  -0.00000
 Mulliken charges with hydrogens summed into heavy atoms:
               1
     1  C    0.171595
     2  C   -0.212357
     3  C    0.451148
     4  O   -0.105696
     5  O   -0.103210
     6  O   -0.201481
 APT charges:
               1
     1  C    0.513248
     2  C   -0.172528
     3  C    0.258722
     4  O   -0.429496
     5  O   -0.351553
     6  O   -0.328834
     7  H    0.289228
     8  H   -0.046049
     9  H   -0.030615
    10  H    0.405699
    11  H   -0.080421
    12  H   -0.027402
 Sum of APT charges =  -0.00000
 APT charges with hydrogens summed into heavy atoms:
               1
     1  C    0.436585
     2  C   -0.280351
     3  C    0.664420
     4  O   -0.429496
     5  O   -0.062325
     6  O   -0.328834
 Electronic spatial extent (au):  <R**2>=            811.7049
 Charge=             -0.0000 electrons
 Dipole moment (field-independent basis, Debye):
    X=              0.2759    Y=              0.5187    Z=             -0.0447  Tot=              0.5892
 Quadrupole moment (field-independent basis, Debye-Ang):
   XX=            -33.6162   YY=            -36.8352   ZZ=            -36.8057
   XY=              5.0303   XZ=              1.0515   YZ=             -0.4875
 Traceless Quadrupole moment (field-independent basis, Debye-Ang):
   XX=              2.1362   YY=             -1.0828   ZZ=             -1.0534
   XY=              5.0303   XZ=              1.0515   YZ=             -0.4875
 Octapole moment (field-independent basis, Debye-Ang**2):
  XXX=            -53.6455  YYY=             -4.1173  ZZZ=             -0.6800  XYY=             -2.5808
  XXY=             -4.7388  XXZ=             -7.7853  XZZ=              0.8647  YZZ=             -1.8028
  YYZ=             -1.2545  XYZ=             -3.8216
 Hexadecapole moment (field-independent basis, Debye-Ang**3):
 XXXX=           -672.9047 YYYY=           -143.4484 ZZZZ=            -84.0658 XXXY=             30.9615
 XXXZ=             18.1651 YYYX=             -0.8642 YYYZ=             -0.4312 ZZZX=             -0.9345
 ZZZY=             -1.3057 XXYY=           -158.5612 XXZZ=           -145.9132 YYZZ=            -36.8907
 XXYZ=              0.1268 YYXZ=             -1.1293 ZZXY=             -2.6889
 N-N= 2.266097162820D+02 E-N=-1.257610457260D+03  KE= 3.403678838853D+02
  Exact polarizability:  96.249  -6.861  51.197   2.133   0.832  42.858
 Approx polarizability: 159.861 -27.861  81.067   0.649   2.418  62.478
 Calling FoFJK, ICntrl=    100127 FMM=F ISym2X=0 I1Cent= 0 IOpClX= 0 NMat=1 NMatS=1 NMatT=0.
 ***** Axes restored to original set *****
 -------------------------------------------------------------------
 Center     Atomic                   Forces (Hartrees/Bohr)
 Number     Number              X              Y              Z
 -------------------------------------------------------------------
      1        6           0.006236627   -0.008720278    0.015881695
      2        6          -0.004153272    0.005004319    0.013902376
      3        6           0.010037974   -0.051482219    0.025721389
      4        8          -0.004298106    0.004273255   -0.029495368
      5        8          -0.000669048   -0.001468806    0.027340757
      6        8          -0.001968781    0.018483263   -0.011170912
      7        1           0.001724817    0.003349219   -0.008680886
      8        1           0.001769258    0.001144583   -0.002309338
      9        1           0.001774871    0.002051608   -0.002636214
     10        1          -0.004376735    0.032050598   -0.031175236
     11        1          -0.006504369   -0.009317120   -0.001960459
     12        1           0.000426764    0.004631578    0.004582197
 -------------------------------------------------------------------
 Cartesian Forces:  Max     0.051482219 RMS     0.015320782
 FormGI is forming the generalized inverse of G from B-inverse, IUseBI=4.

 GradGradGradGradGradGradGradGradGradGradGradGradGradGradGradGradGradGrad
 Berny optimization.
 Internal  Forces:  Max     0.035972596 RMS     0.008838986
 Search for a saddle point.
 Step number   1 out of a maximum of  100
 All quantities printed in internal units (Hartrees-Bohrs-Radians)
 Swapping is turned off.
 Second derivative matrix not updated -- analytic derivatives used.
 ITU=  0
     Eigenvalues ---   -0.19736  -0.00332  -0.00231   0.00102   0.00846
     Eigenvalues ---    0.01438   0.02820   0.03372   0.04464   0.04779
     Eigenvalues ---    0.05593   0.08042   0.09641   0.10510   0.12578
     Eigenvalues ---    0.14518   0.19214   0.19555   0.21860   0.24855
     Eigenvalues ---    0.26167   0.29257   0.32514   0.33763   0.35830
     Eigenvalues ---    0.36139   0.36421   0.41323   0.52661   1.06132
 Eigenvectors required to have negative eigenvalues:
                          A16       A13       R9        R5        A7
   1                   -0.55506   0.54338  -0.47788   0.27632   0.22456
                          A11       D16       A10       R8        A1
   1                   -0.12591   0.09315  -0.07621   0.05127   0.04417
 RFO step:  Lambda0=7.504382951D-03 Lambda=-1.52480084D-02.
 Linear search not attempted -- option 19 set.
 Maximum step size (   0.300) exceeded in Quadratic search.
    -- Step size scaled by   0.962
 Iteration  1 RMS(Cart)=  0.13119994 RMS(Int)=  0.08931420
 Iteration  2 RMS(Cart)=  0.06852959 RMS(Int)=  0.05271561
 Iteration  3 RMS(Cart)=  0.04593595 RMS(Int)=  0.02275156
 Iteration  4 RMS(Cart)=  0.03507763 RMS(Int)=  0.00292532
 Iteration  5 RMS(Cart)=  0.00245978 RMS(Int)=  0.00107999
 Iteration  6 RMS(Cart)=  0.00000593 RMS(Int)=  0.00107998
 Iteration  7 RMS(Cart)=  0.00000000 RMS(Int)=  0.00107998
 Variable       Old X    -DE/DX   Delta X   Delta X   Delta X     New X
                                 (Linear)    (Quad)   (Total)
    R1        2.84982   0.00455   0.00000  -0.01782  -0.01782   2.83201
    R2        2.67099   0.00991   0.00000   0.04900   0.04900   2.71999
    R3        2.07538   0.00057   0.00000   0.00030   0.00030   2.07567
    R4        2.06775   0.00154   0.00000   0.00488   0.00488   2.07262
    R5        3.23128  -0.00541   0.00000   0.04437   0.04437   3.27565
    R6        2.05043   0.00799   0.00000   0.01955   0.01955   2.06998
    R7        2.05323   0.00607   0.00000   0.01732   0.01732   2.07055
    R8        2.19918   0.00227   0.00000   0.01295   0.01295   2.21213
    R9        2.19116   0.01049   0.00000  -0.13429  -0.13429   2.05686
   R10        2.70284   0.01565   0.00000   0.05053   0.05053   2.75336
   R11        1.82418   0.00696   0.00000   0.01473   0.01473   1.83891
    A1        1.98175   0.00117   0.00000   0.02207   0.02197   2.00371
    A2        1.93384   0.00226   0.00000   0.00652   0.00655   1.94039
    A3        1.93355   0.00261   0.00000   0.01713   0.01713   1.95067
    A4        1.91076  -0.00173   0.00000  -0.01414  -0.01428   1.89648
    A5        1.79006  -0.00289   0.00000  -0.01766  -0.01792   1.77214
    A6        1.90822  -0.00193   0.00000  -0.01710  -0.01726   1.89095
    A7        2.16965  -0.00272   0.00000   0.07507   0.07465   2.24430
    A8        1.92721   0.00714   0.00000   0.06037   0.05945   1.98665
    A9        1.95957  -0.00278   0.00000   0.00044   0.00161   1.96118
   A10        1.78228  -0.00620   0.00000  -0.07716  -0.07930   1.70298
   A11        1.69405   0.00375   0.00000  -0.09568  -0.09485   1.59920
   A12        1.90674   0.00030   0.00000   0.01761   0.01427   1.92102
   A13        2.59644  -0.01844   0.00000   0.15510   0.15510   2.75154
   A14        1.91111  -0.01720   0.00000  -0.04074  -0.04074   1.87037
   A15        1.78145  -0.01157   0.00000  -0.03930  -0.03930   1.74215
   A16        1.80602   0.03597   0.00000  -0.03186  -0.03186   1.77416
    D1       -3.11382  -0.00217   0.00000   0.03870   0.03949  -3.07433
    D2        1.04554   0.00200   0.00000   0.02647   0.02596   1.07150
    D3       -1.08698  -0.00157   0.00000  -0.03986  -0.04006  -1.12703
    D4       -0.95509  -0.00183   0.00000   0.04156   0.04237  -0.91272
    D5       -3.07891   0.00234   0.00000   0.02934   0.02884  -3.05008
    D6        1.07175  -0.00123   0.00000  -0.03700  -0.03718   1.03457
    D7        1.16604  -0.00097   0.00000   0.03596   0.03665   1.20269
    D8       -0.95779   0.00320   0.00000   0.02373   0.02312  -0.93467
    D9       -3.09031  -0.00037   0.00000  -0.04260  -0.04290  -3.13320
   D10        1.20976   0.00014   0.00000  -0.05050  -0.05047   1.15929
   D11       -0.96149  -0.00234   0.00000  -0.06421  -0.06397  -1.02546
   D12       -2.98631   0.00204   0.00000  -0.02989  -0.03015  -3.01647
   D13       -0.16701  -0.00267   0.00000  -0.30958  -0.30923  -0.47624
   D14        2.02076  -0.00067   0.00000  -0.24389  -0.24789   1.77287
   D15       -2.31654  -0.00067   0.00000  -0.26901  -0.26536  -2.58190
   D16        1.12079  -0.02266   0.00000  -0.37465  -0.37465   0.74614
   D17        2.73910  -0.00170   0.00000  -0.71861  -0.71861   2.02049
         Item               Value     Threshold  Converged?
 Maximum Force            0.035973     0.000450     NO 
 RMS     Force            0.008839     0.000300     NO 
 Maximum Displacement     0.566906     0.001800     NO 
 RMS     Displacement     0.218959     0.001200     NO 
 Predicted change in Energy=-7.828133D-03
 GradGradGradGradGradGradGradGradGradGradGradGradGradGradGradGradGradGrad

                          Input orientation:                          
 ---------------------------------------------------------------------
 Center     Atomic      Atomic             Coordinates (Angstroms)
 Number     Number       Type             X           Y           Z
 ---------------------------------------------------------------------
      1          6           0        1.192435    1.498659   -2.110017
      2          6           0        0.244592    0.693893   -1.273448
      3          6           0        1.389299   -1.182285   -0.925454
      4          8           0        0.633356    2.702204   -2.667387
      5          8           0        0.342200    3.596530   -1.554593
      6          8           0        2.400033   -1.209409   -1.515373
      7          1           0        0.957317    4.322175   -1.759574
      8          1           0        2.096811    1.760460   -1.544292
      9          1           0        1.495716    0.958161   -3.014903
     10          1           0        0.560327   -0.750116   -0.368004
     11          1           0       -0.631639    0.331667   -1.821974
     12          1           0       -0.071511    1.228234   -0.370622
 ---------------------------------------------------------------------
                    Distance matrix (angstroms):
                    1          2          3          4          5
     1  C    0.000000
     2  C    1.498633   0.000000
     3  C    2.937585   2.225196   0.000000
     4  O    1.439358   2.475382   4.323776   0.000000
     5  O    2.330763   2.917854   4.932474   1.457018   0.000000
     6  O    3.024158   2.885656   1.170609   4.443985   5.228122
     7  H    2.854878   3.729440   5.584034   1.885041   0.973112
     8  H    1.098399   2.154445   3.089220   2.071213   2.539668
     9  H    1.096785   2.160512   2.993097   1.976391   3.228637
    10  H    2.913959   1.733401   1.088446   4.148615   4.510975
    11  H    2.184510   1.095386   2.679550   2.816804   3.417482
    12  H    2.167067   1.095690   2.872700   2.818609   2.679882
                    6          7          8          9         10
     6  O    0.000000
     7  H    5.721843   0.000000
     8  H    2.985449   2.811970   0.000000
     9  H    2.786528   3.630746   1.779802   0.000000
    10  H    2.216286   5.274675   3.169767   3.286219   0.000000
    11  H    3.414667   4.295675   3.092409   2.518176   2.169116
    12  H    3.655282   3.544029   2.522376   3.085670   2.076799
                   11         12
    11  H    0.000000
    12  H    1.795550   0.000000
 Stoichiometry    C3H6O3
 Framework group  C1[X(C3H6O3)]
 Deg. of freedom    30
 Full point group                 C1      NOp   1
 Largest Abelian subgroup         C1      NOp   1
 Largest concise Abelian subgroup C1      NOp   1
                         Standard orientation:                         
 ---------------------------------------------------------------------
 Center     Atomic      Atomic             Coordinates (Angstroms)
 Number     Number       Type             X           Y           Z
 ---------------------------------------------------------------------
      1          6           0       -0.359704   -0.456991    0.104857
      2          6           0        0.271350    0.891400    0.276655
      3          6           0        2.425073    0.459804   -0.079293
      4          8           0       -1.747055   -0.526857    0.481856
      5          8           0       -2.490307    0.302043   -0.458040
      6          8           0        2.638640   -0.682718   -0.218426
      7          1           0       -3.036125   -0.380676   -0.885736
      8          1           0       -0.258054   -0.813833   -0.928976
      9          1           0        0.087026   -1.203212    0.773082
     10          1           0        1.874749    1.396502   -0.146033
     11          1           0        0.275388    1.249428    1.311870
     12          1           0       -0.173524    1.646770   -0.380643
 ---------------------------------------------------------------------
 Rotational constants (GHZ):          10.2132475           1.4096607           1.3233549
 Standard basis: 6-31+G(d) (6D, 7F)
 There are   126 symmetry adapted cartesian basis functions of A   symmetry.
 There are   126 symmetry adapted basis functions of A   symmetry.
   126 basis functions,   216 primitive gaussians,   126 cartesian basis functions
    24 alpha electrons       24 beta electrons
       nuclear repulsion energy       225.1458525441 Hartrees.
 NAtoms=   12 NActive=   12 NUniq=   12 SFac= 1.00D+00 NAtFMM=   60 NAOKFM=F Big=F
 Integral buffers will be    131072 words long.
 Raffenetti 2 integral format.
 Two-electron integral symmetry is turned on.
 One-electron integrals computed using PRISM.
 NBasis=   126 RedAO= T EigKep=  1.26D-04  NBF=   126
 NBsUse=   126 1.00D-06 EigRej= -1.00D+00 NBFU=   126
 Initial guess from the checkpoint file:  "/scratch/bell/zhao922/YARP/paper-example/KHP-network/pp_0/TS-folder/Gau-20227.chk"
 B after Tr=    -0.000000    0.000000   -0.000000
         Rot=    0.991426   -0.130652   -0.002317    0.000384 Ang= -15.02 deg.
 ExpMin= 4.38D-02 ExpMax= 5.48D+03 ExpMxC= 8.25D+02 IAcc=3 IRadAn=         5 AccDes= 0.00D+00
 Harris functional with IExCor=  402 and IRadAn=       5 diagonalized for initial guess.
 HarFok:  IExCor=  402 AccDes= 0.00D+00 IRadAn=         5 IDoV= 1 UseB2=F ITyADJ=14
 ICtDFT=  3500011 ScaDFX=  1.000000  1.000000  1.000000  1.000000
 FoFCou: FMM=F IPFlag=           0 FMFlag=      100000 FMFlg1=           0
         NFxFlg=           0 DoJE=T BraDBF=F KetDBF=T FulRan=T
         wScrn=  0.000000 ICntrl=       500 IOpCl=  0 I1Cent=   200000004 NGrid=           0
         NMat0=    1 NMatS0=      1 NMatT0=    0 NMatD0=    1 NMtDS0=    0 NMtDT0=    0
 Petite list used in FoFCou.
 Keep R1 ints in memory in canonical form, NReq=47237537.
 Requested convergence on RMS density matrix=1.00D-08 within 128 cycles.
 Requested convergence on MAX density matrix=1.00D-06.
 Requested convergence on             energy=1.00D-06.
 No special actions if energy rises.
 SCF Done:  E(RB3LYP) =  -343.358430345     A.U. after   15 cycles
            NFock= 15  Conv=0.28D-08     -V/T= 2.0091
 DoSCS=F DFT=T ScalE2(SS,OS)=  1.000000  1.000000
 Range of M.O.s used for correlation:     1   126
 NBasis=   126 NAE=    24 NBE=    24 NFC=     0 NFV=     0
 NROrb=    126 NOA=    24 NOB=    24 NVA=   102 NVB=   102

 **** Warning!!: The largest alpha MO coefficient is  0.28464822D+02

 Symmetrizing basis deriv contribution to polar:
 IMax=3 JMax=2 DiffMx= 0.00D+00
 G2DrvN: will do    13 centers at a time, making    1 passes.
 Calling FoFCou, ICntrl=  3107 FMM=F I1Cent=   0 AccDes= 0.00D+00.
 End of G2Drv F.D. properties file   721 does not exist.
 End of G2Drv F.D. properties file   722 does not exist.
 End of G2Drv F.D. properties file   788 does not exist.
          IDoAtm=111111111111
          Differentiating once with respect to electric field.
                with respect to dipole field.
          Differentiating once with respect to nuclear coordinates.
 Keep R1 ints in memory in canonical form, NReq=47193559.
          There are    39 degrees of freedom in the 1st order CPHF.  IDoFFX=6 NUNeed=     3.
     36 vectors produced by pass  0 Test12= 6.28D-15 2.56D-09 XBig12= 1.75D+02 1.08D+01.
 AX will form    36 AO Fock derivatives at one time.
     36 vectors produced by pass  1 Test12= 6.28D-15 2.56D-09 XBig12= 4.49D+01 1.32D+00.
     36 vectors produced by pass  2 Test12= 6.28D-15 2.56D-09 XBig12= 3.82D-01 1.31D-01.
     36 vectors produced by pass  3 Test12= 6.28D-15 2.56D-09 XBig12= 1.60D-03 6.65D-03.
     36 vectors produced by pass  4 Test12= 6.28D-15 2.56D-09 XBig12= 3.04D-06 2.44D-04.
     27 vectors produced by pass  5 Test12= 6.28D-15 2.56D-09 XBig12= 3.07D-09 7.11D-06.
      4 vectors produced by pass  6 Test12= 6.28D-15 2.56D-09 XBig12= 2.64D-12 1.95D-07.
      3 vectors produced by pass  7 Test12= 6.28D-15 2.56D-09 XBig12= 2.23D-15 5.92D-09.
 InvSVY:  IOpt=1 It=  1 EMax= 2.66D-15
 Solved reduced A of dimension   214 with    39 vectors.
 Isotropic polarizability for W=    0.000000       63.39 Bohr**3.
 End of Minotr F.D. properties file   721 does not exist.
 End of Minotr F.D. properties file   722 does not exist.
 End of Minotr F.D. properties file   788 does not exist.
 Calling FoFJK, ICntrl=    100127 FMM=F ISym2X=0 I1Cent= 0 IOpClX= 0 NMat=1 NMatS=1 NMatT=0.
 ***** Axes restored to original set *****
 -------------------------------------------------------------------
 Center     Atomic                   Forces (Hartrees/Bohr)
 Number     Number              X              Y              Z
 -------------------------------------------------------------------
      1        6           0.002665905   -0.003572157    0.002146288
      2        6          -0.003740126    0.002044637    0.004393507
      3        6           0.021532533   -0.015614452    0.008475323
      4        8          -0.000648472    0.000145376   -0.001634467
      5        8          -0.000762662    0.000530653    0.001197374
      6        8          -0.005663827    0.003607197   -0.007190410
      7        1           0.000407138    0.001109392   -0.000192227
      8        1           0.000783541    0.000620038   -0.000431630
      9        1           0.000544504   -0.000222454   -0.000439993
     10        1          -0.015226301    0.013108593   -0.006113585
     11        1          -0.000138874   -0.001179070   -0.000955173
     12        1           0.000246640   -0.000577752    0.000744993
 -------------------------------------------------------------------
 Cartesian Forces:  Max     0.021532533 RMS     0.006215843
 FormGI is forming the generalized inverse of G from B-inverse, IUseBI=4.

 GradGradGradGradGradGradGradGradGradGradGradGradGradGradGradGradGradGrad
 Berny optimization.
 Internal  Forces:  Max     0.016195010 RMS     0.003146490
 Search for a saddle point.
 Step number   2 out of a maximum of  100
 All quantities printed in internal units (Hartrees-Bohrs-Radians)
 Swapping is turned off.
 Second derivative matrix not updated -- analytic derivatives used.
 ITU=  0  0
     Eigenvalues ---   -0.16570  -0.00118   0.00109   0.00558   0.01032
     Eigenvalues ---    0.01400   0.02039   0.02752   0.04223   0.04581
     Eigenvalues ---    0.05391   0.08004   0.09458   0.10200   0.12109
     Eigenvalues ---    0.14220   0.17675   0.20213   0.23191   0.25779
     Eigenvalues ---    0.28083   0.31598   0.33261   0.33853   0.34237
     Eigenvalues ---    0.34605   0.35735   0.40114   0.49474   1.02655
 Eigenvectors required to have negative eigenvalues:
                          A16       A13       R9        A7        R5
   1                   -0.63399   0.61262  -0.29388   0.19270   0.18712
                          D16       A11       R8        A10       A8
   1                    0.17596  -0.13228   0.05200  -0.04830  -0.04656
 RFO step:  Lambda0=1.198757499D-03 Lambda=-3.52104091D-03.
 Linear search not attempted -- option 19 set.
 Iteration  1 RMS(Cart)=  0.18364383 RMS(Int)=  0.04641374
 Iteration  2 RMS(Cart)=  0.09256721 RMS(Int)=  0.00485494
 Iteration  3 RMS(Cart)=  0.00604672 RMS(Int)=  0.00059644
 Iteration  4 RMS(Cart)=  0.00001306 RMS(Int)=  0.00059637
 Iteration  5 RMS(Cart)=  0.00000000 RMS(Int)=  0.00059637
 Variable       Old X    -DE/DX   Delta X   Delta X   Delta X     New X
                                 (Linear)    (Quad)   (Total)
    R1        2.83201   0.00079   0.00000  -0.00227  -0.00227   2.82974
    R2        2.71999   0.00213   0.00000   0.00320   0.00320   2.72319
    R3        2.07567   0.00057   0.00000   0.00083   0.00083   2.07650
    R4        2.07262   0.00062   0.00000   0.00329   0.00329   2.07591
    R5        3.27565  -0.00332   0.00000   0.01028   0.01028   3.28593
    R6        2.06998   0.00098   0.00000   0.00272   0.00272   2.07269
    R7        2.07055   0.00026   0.00000   0.00112   0.00112   2.07167
    R8        2.21213  -0.00135   0.00000   0.00585   0.00585   2.21798
    R9        2.05686   0.01620   0.00000   0.00697   0.00697   2.06384
   R10        2.75336   0.00185   0.00000   0.00922   0.00922   2.76258
   R11        1.83891   0.00113   0.00000   0.00179   0.00179   1.84070
    A1        2.00371  -0.00072   0.00000   0.00324   0.00319   2.00690
    A2        1.94039   0.00119   0.00000   0.01047   0.01044   1.95083
    A3        1.95067   0.00007   0.00000  -0.01045  -0.01044   1.94024
    A4        1.89648  -0.00018   0.00000   0.00174   0.00167   1.89815
    A5        1.77214   0.00004   0.00000  -0.00516  -0.00518   1.76697
    A6        1.89095  -0.00053   0.00000  -0.00135  -0.00132   1.88963
    A7        2.24430  -0.00447   0.00000  -0.02922  -0.02954   2.21476
    A8        1.98665   0.00111   0.00000  -0.00478  -0.00492   1.98174
    A9        1.96118   0.00113   0.00000   0.02897   0.02705   1.98823
   A10        1.70298   0.00128   0.00000   0.07821   0.07840   1.78138
   A11        1.59920   0.00111   0.00000  -0.08719  -0.08799   1.51121
   A12        1.92102  -0.00010   0.00000   0.00672   0.00768   1.92870
   A13        2.75154  -0.00474   0.00000   0.10343   0.10343   2.85498
   A14        1.87037   0.00153   0.00000  -0.00067  -0.00067   1.86970
   A15        1.74215   0.00049   0.00000  -0.00339  -0.00339   1.73876
   A16        1.77416   0.00494   0.00000  -0.10365  -0.10365   1.67051
    D1       -3.07433  -0.00055   0.00000  -0.07079  -0.07085   3.13800
    D2        1.07150   0.00059   0.00000  -0.16331  -0.16320   0.90831
    D3       -1.12703  -0.00114   0.00000  -0.19303  -0.19313  -1.32016
    D4       -0.91272  -0.00039   0.00000  -0.05739  -0.05741  -0.97013
    D5       -3.05008   0.00076   0.00000  -0.14991  -0.14975   3.08336
    D6        1.03457  -0.00097   0.00000  -0.17962  -0.17968   0.85489
    D7        1.20269  -0.00018   0.00000  -0.05903  -0.05909   1.14359
    D8       -0.93467   0.00096   0.00000  -0.15156  -0.15144  -1.08610
    D9       -3.13320  -0.00077   0.00000  -0.18127  -0.18137   2.96862
   D10        1.15929   0.00050   0.00000  -0.00473  -0.00473   1.15456
   D11       -1.02546  -0.00040   0.00000  -0.02242  -0.02241  -1.04787
   D12       -3.01647   0.00024   0.00000  -0.01917  -0.01917  -3.03564
   D13       -0.47624  -0.00052   0.00000  -0.38642  -0.38517  -0.86141
   D14        1.77287  -0.00103   0.00000  -0.32891  -0.32756   1.44531
   D15       -2.58190  -0.00086   0.00000  -0.32916  -0.33176  -2.91366
   D16        0.74614  -0.00800   0.00000  -0.25986  -0.25986   0.48628
   D17        2.02049   0.00057   0.00000   0.08340   0.08340   2.10389
         Item               Value     Threshold  Converged?
 Maximum Force            0.016195     0.000450     NO 
 RMS     Force            0.003146     0.000300     NO 
 Maximum Displacement     0.768675     0.001800     NO 
 RMS     Displacement     0.258560     0.001200     NO 
 Predicted change in Energy=-2.305243D-03
 GradGradGradGradGradGradGradGradGradGradGradGradGradGradGradGradGradGrad

                          Input orientation:                          
 ---------------------------------------------------------------------
 Center     Atomic      Atomic             Coordinates (Angstroms)
 Number     Number       Type             X           Y           Z
 ---------------------------------------------------------------------
      1          6           0        1.308387    1.541414   -1.978439
      2          6           0        0.330500    0.705769   -1.211799
      3          6           0        1.289041   -1.200333   -1.005911
      4          8           0        0.730603    2.648265   -2.697931
      5          8           0        0.207043    3.582368   -1.702702
      6          8           0        1.993268   -1.425669   -1.917434
      7          1           0        0.726475    4.373575   -1.932860
      8          1           0        2.113662    1.920625   -1.334101
      9          1           0        1.763770    0.968038   -2.797353
     10          1           0        0.686452   -0.696465   -0.247119
     11          1           0       -0.517684    0.359769   -1.815032
     12          1           0       -0.022581    1.172817   -0.284960
 ---------------------------------------------------------------------
                    Distance matrix (angstroms):
                    1          2          3          4          5
     1  C    0.000000
     2  C    1.497432   0.000000
     3  C    2.909186   2.143460   0.000000
     4  O    1.441049   2.478298   4.241049   0.000000
     5  O    2.335483   2.920796   4.952825   1.461897   0.000000
     6  O    3.045713   2.793877   1.173706   4.335948   5.321386
     7  H    2.891683   3.758926   5.678395   1.887337   0.974059
     8  H    1.098836   2.161134   3.244702   2.074210   2.555867
     9  H    1.098524   2.153376   2.852449   1.974965   3.233633
    10  H    2.896960   1.738842   1.092136   4.146764   4.544994
    11  H    2.181174   1.096823   2.520486   2.752262   3.304995
    12  H    2.185225   1.096280   2.805703   2.926886   2.805112
                    6          7          8          9         10
     6  O    0.000000
     7  H    5.936011   0.000000
     8  H    3.398890   2.880931   0.000000
     9  H    2.560617   3.663470   1.780717   0.000000
    10  H    2.242645   5.343092   3.172951   3.230306   0.000000
    11  H    3.082719   4.203862   3.097022   2.557338   2.241411
    12  H    3.671614   3.677160   2.494684   3.089515   1.999594
                   11         12
    11  H    0.000000
    12  H    1.802025   0.000000
 Stoichiometry    C3H6O3
 Framework group  C1[X(C3H6O3)]
 Deg. of freedom    30
 Full point group                 C1      NOp   1
 Largest Abelian subgroup         C1      NOp   1
 Largest concise Abelian subgroup C1      NOp   1
                         Standard orientation:                         
 ---------------------------------------------------------------------
 Center     Atomic      Atomic             Coordinates (Angstroms)
 Number     Number       Type             X           Y           Z
 ---------------------------------------------------------------------
      1          6           0       -0.369928   -0.425209   -0.231865
      2          6           0        0.302200    0.835746    0.215951
      3          6           0        2.390818    0.484584   -0.113863
      4          8           0       -1.664147   -0.666362    0.354191
      5          8           0       -2.560809    0.378300   -0.137562
      6          8           0        2.657893   -0.651870    0.007495
      7          1           0       -3.229910   -0.175612   -0.578330
      8          1           0       -0.463349   -0.470985   -1.325766
      9          1           0        0.185577   -1.311537    0.103682
     10          1           0        1.859914    1.423376   -0.285832
     11          1           0        0.358742    0.938638    1.306472
     12          1           0       -0.113001    1.744858   -0.234554
 ---------------------------------------------------------------------
 Rotational constants (GHZ):          11.2111734           1.4215152           1.3112166
 Standard basis: 6-31+G(d) (6D, 7F)
 There are   126 symmetry adapted cartesian basis functions of A   symmetry.
 There are   126 symmetry adapted basis functions of A   symmetry.
   126 basis functions,   216 primitive gaussians,   126 cartesian basis functions
    24 alpha electrons       24 beta electrons
       nuclear repulsion energy       225.7476923275 Hartrees.
 NAtoms=   12 NActive=   12 NUniq=   12 SFac= 1.00D+00 NAtFMM=   60 NAOKFM=F Big=F
 Integral buffers will be    131072 words long.
 Raffenetti 2 integral format.
 Two-electron integral symmetry is turned on.
 One-electron integrals computed using PRISM.
 NBasis=   126 RedAO= T EigKep=  1.20D-04  NBF=   126
 NBsUse=   126 1.00D-06 EigRej= -1.00D+00 NBFU=   126
 Initial guess from the checkpoint file:  "/scratch/bell/zhao922/YARP/paper-example/KHP-network/pp_0/TS-folder/Gau-20227.chk"
 B after Tr=    -0.000000   -0.000000    0.000000
         Rot=    0.997932   -0.064012   -0.005461   -0.001837 Ang=  -7.37 deg.
 ExpMin= 4.38D-02 ExpMax= 5.48D+03 ExpMxC= 8.25D+02 IAcc=3 IRadAn=         5 AccDes= 0.00D+00
 Harris functional with IExCor=  402 and IRadAn=       5 diagonalized for initial guess.
 HarFok:  IExCor=  402 AccDes= 0.00D+00 IRadAn=         5 IDoV= 1 UseB2=F ITyADJ=14
 ICtDFT=  3500011 ScaDFX=  1.000000  1.000000  1.000000  1.000000
 FoFCou: FMM=F IPFlag=           0 FMFlag=      100000 FMFlg1=           0
         NFxFlg=           0 DoJE=T BraDBF=F KetDBF=T FulRan=T
         wScrn=  0.000000 ICntrl=       500 IOpCl=  0 I1Cent=   200000004 NGrid=           0
         NMat0=    1 NMatS0=      1 NMatT0=    0 NMatD0=    1 NMtDS0=    0 NMtDT0=    0
 Petite list used in FoFCou.
 Keep R1 ints in memory in canonical form, NReq=47237537.
 Requested convergence on RMS density matrix=1.00D-08 within 128 cycles.
 Requested convergence on MAX density matrix=1.00D-06.
 Requested convergence on             energy=1.00D-06.
 No special actions if energy rises.
 SCF Done:  E(RB3LYP) =  -343.360695851     A.U. after   15 cycles
            NFock= 15  Conv=0.26D-08     -V/T= 2.0092
 DoSCS=F DFT=T ScalE2(SS,OS)=  1.000000  1.000000
 Range of M.O.s used for correlation:     1   126
 NBasis=   126 NAE=    24 NBE=    24 NFC=     0 NFV=     0
 NROrb=    126 NOA=    24 NOB=    24 NVA=   102 NVB=   102

 **** Warning!!: The largest alpha MO coefficient is  0.27948100D+02

 Symmetrizing basis deriv contribution to polar:
 IMax=3 JMax=2 DiffMx= 0.00D+00
 G2DrvN: will do    13 centers at a time, making    1 passes.
 Calling FoFCou, ICntrl=  3107 FMM=F I1Cent=   0 AccDes= 0.00D+00.
 End of G2Drv F.D. properties file   721 does not exist.
 End of G2Drv F.D. properties file   722 does not exist.
 End of G2Drv F.D. properties file   788 does not exist.
          IDoAtm=111111111111
          Differentiating once with respect to electric field.
                with respect to dipole field.
          Differentiating once with respect to nuclear coordinates.
 Keep R1 ints in memory in canonical form, NReq=47193559.
          There are    39 degrees of freedom in the 1st order CPHF.  IDoFFX=6 NUNeed=     3.
     36 vectors produced by pass  0 Test12= 6.28D-15 2.56D-09 XBig12= 1.47D+02 1.01D+01.
 AX will form    36 AO Fock derivatives at one time.
     36 vectors produced by pass  1 Test12= 6.28D-15 2.56D-09 XBig12= 3.71D+01 1.22D+00.
     36 vectors produced by pass  2 Test12= 6.28D-15 2.56D-09 XBig12= 3.74D-01 1.26D-01.
     36 vectors produced by pass  3 Test12= 6.28D-15 2.56D-09 XBig12= 1.62D-03 6.13D-03.
     36 vectors produced by pass  4 Test12= 6.28D-15 2.56D-09 XBig12= 2.83D-06 2.30D-04.
     28 vectors produced by pass  5 Test12= 6.28D-15 2.56D-09 XBig12= 2.62D-09 7.09D-06.
      4 vectors produced by pass  6 Test12= 6.28D-15 2.56D-09 XBig12= 2.31D-12 1.88D-07.
      2 vectors produced by pass  7 Test12= 6.28D-15 2.56D-09 XBig12= 1.76D-15 5.75D-09.
 InvSVY:  IOpt=1 It=  1 EMax= 6.22D-15
 Solved reduced A of dimension   214 with    39 vectors.
 Isotropic polarizability for W=    0.000000       62.35 Bohr**3.
 End of Minotr F.D. properties file   721 does not exist.
 End of Minotr F.D. properties file   722 does not exist.
 End of Minotr F.D. properties file   788 does not exist.
 Calling FoFJK, ICntrl=    100127 FMM=F ISym2X=0 I1Cent= 0 IOpClX= 0 NMat=1 NMatS=1 NMatT=0.
 ***** Axes restored to original set *****
 -------------------------------------------------------------------
 Center     Atomic                   Forces (Hartrees/Bohr)
 Number     Number              X              Y              Z
 -------------------------------------------------------------------
      1        6           0.001213666   -0.000552912    0.001107489
      2        6          -0.000556553   -0.000601786   -0.001551628
      3        6           0.004406273    0.002659636    0.003636146
      4        8          -0.000048226   -0.000016665   -0.000413710
      5        8           0.000186417    0.000006953    0.000086605
      6        8          -0.002545932   -0.000146125   -0.002519347
      7        1          -0.000132505    0.000070162   -0.000074086
      8        1          -0.000259562    0.000618283    0.000210630
      9        1           0.000019888   -0.000559183   -0.000522121
     10        1          -0.002314265   -0.001802745   -0.000260484
     11        1          -0.000000716    0.000778112   -0.000081420
     12        1           0.000031513   -0.000453730    0.000381926
 -------------------------------------------------------------------
 Cartesian Forces:  Max     0.004406273 RMS     0.001390518
 FormGI is forming the generalized inverse of G from B-inverse, IUseBI=4.

 GradGradGradGradGradGradGradGradGradGradGradGradGradGradGradGradGradGrad
 Berny optimization.
 Internal  Forces:  Max     0.005650252 RMS     0.001046145
 Search for a saddle point.
 Step number   3 out of a maximum of  100
 All quantities printed in internal units (Hartrees-Bohrs-Radians)
 Swapping is turned off.
 Second derivative matrix not updated -- analytic derivatives used.
 ITU=  0  0  0
     Eigenvalues ---   -0.18620   0.00102   0.00281   0.00466   0.00832
     Eigenvalues ---    0.01012   0.01760   0.02734   0.04500   0.04622
     Eigenvalues ---    0.05376   0.07953   0.09496   0.10090   0.12200
     Eigenvalues ---    0.14255   0.17545   0.20799   0.24813   0.26615
     Eigenvalues ---    0.27674   0.31460   0.32934   0.33646   0.34029
     Eigenvalues ---    0.34686   0.39394   0.41320   0.49206   1.01946
 Eigenvectors required to have negative eigenvalues:
                          A16       A13       R9        R5        A7
   1                    0.64638  -0.64451   0.26217  -0.15931  -0.15841
                          A11       D16       R8        A8        D4
   1                    0.12597  -0.10613  -0.05840   0.05396  -0.05015
 RFO step:  Lambda0=5.158649707D-05 Lambda=-1.18178787D-03.
 Linear search not attempted -- option 19 set.
 Iteration  1 RMS(Cart)=  0.10076105 RMS(Int)=  0.00802462
 Iteration  2 RMS(Cart)=  0.00622028 RMS(Int)=  0.00019739
 Iteration  3 RMS(Cart)=  0.00013195 RMS(Int)=  0.00014880
 Iteration  4 RMS(Cart)=  0.00000006 RMS(Int)=  0.00014880
 Variable       Old X    -DE/DX   Delta X   Delta X   Delta X     New X
                                 (Linear)    (Quad)   (Total)
    R1        2.82974   0.00020   0.00000   0.00118   0.00118   2.83092
    R2        2.72319   0.00024   0.00000  -0.00127  -0.00127   2.72192
    R3        2.07650   0.00015   0.00000  -0.00030  -0.00030   2.07620
    R4        2.07591   0.00069   0.00000   0.00377   0.00377   2.07968
    R5        3.28593  -0.00019   0.00000   0.01992   0.01992   3.30586
    R6        2.07269  -0.00020   0.00000  -0.00242  -0.00242   2.07027
    R7        2.07167   0.00012   0.00000  -0.00047  -0.00047   2.07120
    R8        2.21798   0.00046   0.00000   0.00176   0.00176   2.21975
    R9        2.06384  -0.00091   0.00000   0.00156   0.00156   2.06539
   R10        2.76258   0.00004   0.00000   0.00258   0.00258   2.76517
   R11        1.84070   0.00000   0.00000  -0.00032  -0.00032   1.84039
    A1        2.00690   0.00013   0.00000  -0.00067  -0.00069   2.00622
    A2        1.95083   0.00016   0.00000   0.00350   0.00350   1.95433
    A3        1.94024  -0.00036   0.00000  -0.00686  -0.00688   1.93336
    A4        1.89815  -0.00019   0.00000  -0.00088  -0.00088   1.89726
    A5        1.76697  -0.00006   0.00000  -0.00495  -0.00498   1.76198
    A6        1.88963   0.00031   0.00000   0.00986   0.00987   1.89950
    A7        2.21476  -0.00230   0.00000  -0.06122  -0.06121   2.15356
    A8        1.98174   0.00017   0.00000  -0.00255  -0.00224   1.97950
    A9        1.98823   0.00065   0.00000   0.01033   0.01001   1.99824
   A10        1.78138   0.00144   0.00000   0.05333   0.05337   1.83476
   A11        1.51121   0.00035   0.00000  -0.00004  -0.00031   1.51090
   A12        1.92870  -0.00025   0.00000   0.00464   0.00451   1.93321
   A13        2.85498  -0.00020   0.00000   0.00651   0.00651   2.86148
   A14        1.86970   0.00006   0.00000  -0.00231  -0.00231   1.86739
   A15        1.73876   0.00008   0.00000  -0.00259  -0.00259   1.73617
   A16        1.67051  -0.00565   0.00000  -0.02388  -0.02388   1.64663
    D1        3.13800  -0.00012   0.00000  -0.06382  -0.06375   3.07426
    D2        0.90831  -0.00017   0.00000  -0.08117  -0.08124   0.82707
    D3       -1.32016  -0.00054   0.00000  -0.09467  -0.09465  -1.41481
    D4       -0.97013  -0.00013   0.00000  -0.06262  -0.06256  -1.03268
    D5        3.08336  -0.00019   0.00000  -0.07997  -0.08005   3.00331
    D6        0.85489  -0.00056   0.00000  -0.09348  -0.09346   0.76144
    D7        1.14359   0.00013   0.00000  -0.05238  -0.05232   1.09127
    D8       -1.08610   0.00008   0.00000  -0.06973  -0.06981  -1.15592
    D9        2.96862  -0.00030   0.00000  -0.08323  -0.08322   2.88539
   D10        1.15456   0.00027   0.00000   0.00714   0.00713   1.16169
   D11       -1.04787   0.00010   0.00000   0.00369   0.00369  -1.04418
   D12       -3.03564  -0.00015   0.00000  -0.00473  -0.00473  -3.04036
   D13       -0.86141   0.00003   0.00000  -0.09817  -0.09756  -0.95897
   D14        1.44531  -0.00019   0.00000  -0.09715  -0.09766   1.34765
   D15       -2.91366  -0.00035   0.00000  -0.09159  -0.09169  -3.00536
   D16        0.48628  -0.00223   0.00000  -0.24094  -0.24094   0.24534
   D17        2.10389   0.00029   0.00000   0.06852   0.06852   2.17242
         Item               Value     Threshold  Converged?
 Maximum Force            0.005650     0.000450     NO 
 RMS     Force            0.001046     0.000300     NO 
 Maximum Displacement     0.310846     0.001800     NO 
 RMS     Displacement     0.101981     0.001200     NO 
 Predicted change in Energy=-6.544331D-04
 GradGradGradGradGradGradGradGradGradGradGradGradGradGradGradGradGradGrad

                          Input orientation:                          
 ---------------------------------------------------------------------
 Center     Atomic      Atomic             Coordinates (Angstroms)
 Number     Number       Type             X           Y           Z
 ---------------------------------------------------------------------
      1          6           0        1.341173    1.545519   -1.911797
      2          6           0        0.338495    0.709919   -1.176550
      3          6           0        1.288409   -1.194757   -1.056215
      4          8           0        0.781083    2.612288   -2.701094
      5          8           0        0.185071    3.567954   -1.766957
      6          8           0        1.828775   -1.427314   -2.072924
      7          1           0        0.654279    4.375588   -2.042702
      8          1           0        2.099020    1.966875   -1.237098
      9          1           0        1.847424    0.953659   -2.689326
     10          1           0        0.766607   -0.699776   -0.233245
     11          1           0       -0.503937    0.391401   -1.800300
     12          1           0       -0.017465    1.148817   -0.237433
 ---------------------------------------------------------------------
                    Distance matrix (angstroms):
                    1          2          3          4          5
     1  C    0.000000
     2  C    1.498058   0.000000
     3  C    2.871222   2.131808   0.000000
     4  O    1.440377   2.477726   4.178109   0.000000
     5  O    2.334052   2.922411   4.940236   1.463264   0.000000
     6  O    3.016862   2.755392   1.174639   4.220266   5.267646
     7  H    2.915176   3.779824   5.692453   1.886474   0.973891
     8  H    1.098677   2.164036   3.268903   2.072872   2.550962
     9  H    1.100518   2.150527   2.755947   1.971870   3.232448
    10  H    2.861645   1.749384   1.092960   4.130406   4.572087
    11  H    2.179186   1.095541   2.506405   2.719383   3.250590
    12  H    2.192433   1.096029   2.805004   2.974735   2.869267
                    6          7          8          9         10
     6  O    0.000000
     7  H    5.920644   0.000000
     8  H    3.506018   2.922015   0.000000
     9  H    2.459540   3.681211   1.788540   0.000000
    10  H    2.245424   5.389441   3.145485   3.151880   0.000000
    11  H    2.970454   4.156196   3.094301   2.575927   2.293603
    12  H    3.662524   3.757963   2.479528   3.086694   2.008005
                   11         12
    11  H    0.000000
    12  H    1.803576   0.000000
 Stoichiometry    C3H6O3
 Framework group  C1[X(C3H6O3)]
 Deg. of freedom    30
 Full point group                 C1      NOp   1
 Largest Abelian subgroup         C1      NOp   1
 Largest concise Abelian subgroup C1      NOp   1
                         Standard orientation:                         
 ---------------------------------------------------------------------
 Center     Atomic      Atomic             Coordinates (Angstroms)
 Number     Number       Type             X           Y           Z
 ---------------------------------------------------------------------
      1          6           0       -0.364359   -0.367141   -0.340893
      2          6           0        0.310823    0.858048    0.195034
      3          6           0        2.377887    0.460146   -0.141899
      4          8           0       -1.611068   -0.702363    0.297878
      5          8           0       -2.560136    0.361450   -0.031839
      6          8           0        2.604569   -0.665948    0.103669
      7          1           0       -3.271981   -0.174795   -0.424499
      8          1           0       -0.529736   -0.304377   -1.425237
      9          1           0        0.230520   -1.267202   -0.123757
     10          1           0        1.878711    1.409810   -0.350520
     11          1           0        0.363915    0.882609    1.289012
     12          1           0       -0.084453    1.802526   -0.196115
 ---------------------------------------------------------------------
 Rotational constants (GHZ):          11.0993908           1.4521026           1.3365721
 Standard basis: 6-31+G(d) (6D, 7F)
 There are   126 symmetry adapted cartesian basis functions of A   symmetry.
 There are   126 symmetry adapted basis functions of A   symmetry.
   126 basis functions,   216 primitive gaussians,   126 cartesian basis functions
    24 alpha electrons       24 beta electrons
       nuclear repulsion energy       226.5281627633 Hartrees.
 NAtoms=   12 NActive=   12 NUniq=   12 SFac= 1.00D+00 NAtFMM=   60 NAOKFM=F Big=F
 Integral buffers will be    131072 words long.
 Raffenetti 2 integral format.
 Two-electron integral symmetry is turned on.
 One-electron integrals computed using PRISM.
 NBasis=   126 RedAO= T EigKep=  1.19D-04  NBF=   126
 NBsUse=   126 1.00D-06 EigRej= -1.00D+00 NBFU=   126
 Initial guess from the checkpoint file:  "/scratch/bell/zhao922/YARP/paper-example/KHP-network/pp_0/TS-folder/Gau-20227.chk"
 B after Tr=    -0.000000   -0.000000   -0.000000
         Rot=    0.999872   -0.015967   -0.001254    0.000212 Ang=  -1.84 deg.
 ExpMin= 4.38D-02 ExpMax= 5.48D+03 ExpMxC= 8.25D+02 IAcc=3 IRadAn=         5 AccDes= 0.00D+00
 Harris functional with IExCor=  402 and IRadAn=       5 diagonalized for initial guess.
 HarFok:  IExCor=  402 AccDes= 0.00D+00 IRadAn=         5 IDoV= 1 UseB2=F ITyADJ=14
 ICtDFT=  3500011 ScaDFX=  1.000000  1.000000  1.000000  1.000000
 FoFCou: FMM=F IPFlag=           0 FMFlag=      100000 FMFlg1=           0
         NFxFlg=           0 DoJE=T BraDBF=F KetDBF=T FulRan=T
         wScrn=  0.000000 ICntrl=       500 IOpCl=  0 I1Cent=   200000004 NGrid=           0
         NMat0=    1 NMatS0=      1 NMatT0=    0 NMatD0=    1 NMtDS0=    0 NMtDT0=    0
 Petite list used in FoFCou.
 Keep R1 ints in memory in canonical form, NReq=47237537.
 Requested convergence on RMS density matrix=1.00D-08 within 128 cycles.
 Requested convergence on MAX density matrix=1.00D-06.
 Requested convergence on             energy=1.00D-06.
 No special actions if energy rises.
 SCF Done:  E(RB3LYP) =  -343.361322553     A.U. after   13 cycles
            NFock= 13  Conv=0.86D-08     -V/T= 2.0092
 DoSCS=F DFT=T ScalE2(SS,OS)=  1.000000  1.000000
 Range of M.O.s used for correlation:     1   126
 NBasis=   126 NAE=    24 NBE=    24 NFC=     0 NFV=     0
 NROrb=    126 NOA=    24 NOB=    24 NVA=   102 NVB=   102

 **** Warning!!: The largest alpha MO coefficient is  0.28466276D+02

 Symmetrizing basis deriv contribution to polar:
 IMax=3 JMax=2 DiffMx= 0.00D+00
 G2DrvN: will do    13 centers at a time, making    1 passes.
 Calling FoFCou, ICntrl=  3107 FMM=F I1Cent=   0 AccDes= 0.00D+00.
 End of G2Drv F.D. properties file   721 does not exist.
 End of G2Drv F.D. properties file   722 does not exist.
 End of G2Drv F.D. properties file   788 does not exist.
          IDoAtm=111111111111
          Differentiating once with respect to electric field.
                with respect to dipole field.
          Differentiating once with respect to nuclear coordinates.
 Keep R1 ints in memory in canonical form, NReq=47193559.
          There are    39 degrees of freedom in the 1st order CPHF.  IDoFFX=6 NUNeed=     3.
     36 vectors produced by pass  0 Test12= 6.28D-15 2.56D-09 XBig12= 1.42D+02 1.01D+01.
 AX will form    36 AO Fock derivatives at one time.
     36 vectors produced by pass  1 Test12= 6.28D-15 2.56D-09 XBig12= 3.53D+01 1.19D+00.
     36 vectors produced by pass  2 Test12= 6.28D-15 2.56D-09 XBig12= 3.79D-01 1.20D-01.
     36 vectors produced by pass  3 Test12= 6.28D-15 2.56D-09 XBig12= 1.70D-03 6.94D-03.
     36 vectors produced by pass  4 Test12= 6.28D-15 2.56D-09 XBig12= 3.06D-06 2.39D-04.
     30 vectors produced by pass  5 Test12= 6.28D-15 2.56D-09 XBig12= 2.94D-09 7.05D-06.
      4 vectors produced by pass  6 Test12= 6.28D-15 2.56D-09 XBig12= 2.54D-12 2.03D-07.
      2 vectors produced by pass  7 Test12= 6.28D-15 2.56D-09 XBig12= 1.86D-15 6.50D-09.
 InvSVY:  IOpt=1 It=  1 EMax= 3.55D-15
 Solved reduced A of dimension   216 with    39 vectors.
 Isotropic polarizability for W=    0.000000       62.01 Bohr**3.
 End of Minotr F.D. properties file   721 does not exist.
 End of Minotr F.D. properties file   722 does not exist.
 End of Minotr F.D. properties file   788 does not exist.
 Calling FoFJK, ICntrl=    100127 FMM=F ISym2X=0 I1Cent= 0 IOpClX= 0 NMat=1 NMatS=1 NMatT=0.
 ***** Axes restored to original set *****
 -------------------------------------------------------------------
 Center     Atomic                   Forces (Hartrees/Bohr)
 Number     Number              X              Y              Z
 -------------------------------------------------------------------
      1        6           0.000127254   -0.000033555   -0.000027512
      2        6           0.000117778   -0.000238240   -0.000490801
      3        6           0.000378018    0.001757347    0.000528111
      4        8           0.000021781    0.000064586   -0.000102776
      5        8           0.000072139   -0.000013038    0.000037713
      6        8          -0.000455407   -0.000498044   -0.000075468
      7        1          -0.000041750    0.000021599   -0.000030794
      8        1          -0.000058820    0.000103070    0.000013466
      9        1          -0.000016743    0.000204913   -0.000093808
     10        1          -0.000240896   -0.001429159    0.000111290
     11        1           0.000019869    0.000092046    0.000005881
     12        1           0.000076777   -0.000031526    0.000124699
 -------------------------------------------------------------------
 Cartesian Forces:  Max     0.001757347 RMS     0.000426079
 FormGI is forming the generalized inverse of G from B-inverse, IUseBI=4.

 GradGradGradGradGradGradGradGradGradGradGradGradGradGradGradGradGradGrad
 Berny optimization.
 Internal  Forces:  Max     0.000948137 RMS     0.000280816
 Search for a saddle point.
 Step number   4 out of a maximum of  100
 All quantities printed in internal units (Hartrees-Bohrs-Radians)
 Swapping is turned off.
 Second derivative matrix not updated -- analytic derivatives used.
 ITU=  0  0  0  0
     Eigenvalues ---   -0.18796   0.00100   0.00339   0.00395   0.00678
     Eigenvalues ---    0.01004   0.01836   0.02772   0.04550   0.04711
     Eigenvalues ---    0.05409   0.07963   0.09576   0.10203   0.13188
     Eigenvalues ---    0.14643   0.17581   0.20990   0.24985   0.27368
     Eigenvalues ---    0.29037   0.31369   0.32755   0.33827   0.34176
     Eigenvalues ---    0.34654   0.39398   0.45709   0.49317   1.01859
 Eigenvectors required to have negative eigenvalues:
                          A13       A16       R9        R5        A7
   1                   -0.65954   0.63613   0.26263  -0.16314  -0.15830
                          A11       R8        D4        D1        A8
   1                    0.12641  -0.05800  -0.05451  -0.05366   0.05359
 RFO step:  Lambda0=1.372555389D-05 Lambda=-3.41948998D-05.
 Linear search not attempted -- option 19 set.
 Iteration  1 RMS(Cart)=  0.00673158 RMS(Int)=  0.00016940
 Iteration  2 RMS(Cart)=  0.00023887 RMS(Int)=  0.00000101
 Iteration  3 RMS(Cart)=  0.00000022 RMS(Int)=  0.00000099
 Variable       Old X    -DE/DX   Delta X   Delta X   Delta X     New X
                                 (Linear)    (Quad)   (Total)
    R1        2.83092   0.00036   0.00000   0.00130   0.00130   2.83221
    R2        2.72192   0.00009   0.00000   0.00034   0.00034   2.72226
    R3        2.07620   0.00001   0.00000  -0.00019  -0.00019   2.07601
    R4        2.07968  -0.00005   0.00000  -0.00021  -0.00021   2.07947
    R5        3.30586   0.00036   0.00000  -0.00022  -0.00022   3.30564
    R6        2.07027  -0.00005   0.00000  -0.00036  -0.00036   2.06991
    R7        2.07120   0.00007   0.00000   0.00018   0.00018   2.07137
    R8        2.21975  -0.00005   0.00000  -0.00062  -0.00062   2.21912
    R9        2.06539  -0.00095   0.00000   0.00053   0.00053   2.06593
   R10        2.76517  -0.00000   0.00000   0.00073   0.00073   2.76589
   R11        1.84039   0.00001   0.00000  -0.00010  -0.00010   1.84029
    A1        2.00622   0.00004   0.00000  -0.00117  -0.00117   2.00505
    A2        1.95433  -0.00001   0.00000   0.00024   0.00024   1.95457
    A3        1.93336   0.00019   0.00000   0.00212   0.00212   1.93547
    A4        1.89726  -0.00006   0.00000  -0.00111  -0.00111   1.89615
    A5        1.76198  -0.00017   0.00000  -0.00122  -0.00122   1.76077
    A6        1.89950  -0.00000   0.00000   0.00112   0.00112   1.90062
    A7        2.15356   0.00052   0.00000   0.00239   0.00239   2.15595
    A8        1.97950  -0.00014   0.00000  -0.00071  -0.00071   1.97878
    A9        1.99824  -0.00008   0.00000  -0.00186  -0.00186   1.99638
   A10        1.83476  -0.00013   0.00000  -0.00203  -0.00202   1.83273
   A11        1.51090  -0.00025   0.00000   0.00190   0.00191   1.51281
   A12        1.93321   0.00008   0.00000   0.00091   0.00091   1.93412
   A13        2.86148   0.00087   0.00000  -0.00279  -0.00279   2.85869
   A14        1.86739  -0.00002   0.00000  -0.00100  -0.00100   1.86638
   A15        1.73617   0.00002   0.00000  -0.00101  -0.00101   1.73516
   A16        1.64663  -0.00093   0.00000   0.00572   0.00572   1.65235
    D1        3.07426   0.00008   0.00000  -0.00197  -0.00197   3.07229
    D2        0.82707  -0.00009   0.00000  -0.00043  -0.00043   0.82664
    D3       -1.41481  -0.00000   0.00000   0.00062   0.00062  -1.41419
    D4       -1.03268   0.00002   0.00000  -0.00424  -0.00424  -1.03692
    D5        3.00331  -0.00015   0.00000  -0.00270  -0.00270   3.00061
    D6        0.76144  -0.00006   0.00000  -0.00165  -0.00165   0.75979
    D7        1.09127   0.00014   0.00000  -0.00113  -0.00113   1.09014
    D8       -1.15592  -0.00003   0.00000   0.00041   0.00041  -1.15551
    D9        2.88539   0.00006   0.00000   0.00146   0.00146   2.88685
   D10        1.16169  -0.00003   0.00000   0.00316   0.00316   1.16485
   D11       -1.04418   0.00001   0.00000   0.00465   0.00465  -1.03953
   D12       -3.04036   0.00011   0.00000   0.00437   0.00437  -3.03600
   D13       -0.95897  -0.00012   0.00000   0.00941   0.00941  -0.94956
   D14        1.34765   0.00000   0.00000   0.00831   0.00831   1.35596
   D15       -3.00536   0.00002   0.00000   0.00969   0.00969  -2.99567
   D16        0.24534  -0.00034   0.00000  -0.07149  -0.07149   0.17385
   D17        2.17242   0.00010   0.00000   0.02453   0.02453   2.19695
         Item               Value     Threshold  Converged?
 Maximum Force            0.000948     0.000450     NO 
 RMS     Force            0.000281     0.000300     YES
 Maximum Displacement     0.021071     0.001800     NO 
 RMS     Displacement     0.006801     0.001200     NO 
 Predicted change in Energy=-1.033828D-05
 GradGradGradGradGradGradGradGradGradGradGradGradGradGradGradGradGradGrad

                          Input orientation:                          
 ---------------------------------------------------------------------
 Center     Atomic      Atomic             Coordinates (Angstroms)
 Number     Number       Type             X           Y           Z
 ---------------------------------------------------------------------
      1          6           0        1.343325    1.546031   -1.910463
      2          6           0        0.339547    0.709671   -1.176185
      3          6           0        1.292951   -1.198899   -1.053422
      4          8           0        0.782401    2.613784   -2.698162
      5          8           0        0.190590    3.569565   -1.760875
      6          8           0        1.823072   -1.434932   -2.074335
      7          1           0        0.643129    4.380714   -2.053465
      8          1           0        2.099965    1.968063   -1.234992
      9          1           0        1.850043    0.957030   -2.689703
     10          1           0        0.762272   -0.703574   -0.235981
     11          1           0       -0.502669    0.393200   -1.800931
     12          1           0       -0.015690    1.149519   -0.237127
 ---------------------------------------------------------------------
                    Distance matrix (angstroms):
                    1          2          3          4          5
     1  C    0.000000
     2  C    1.498744   0.000000
     3  C    2.876055   2.136981   0.000000
     4  O    1.440557   2.477535   4.183585   0.000000
     5  O    2.333638   2.922848   4.945092   1.463648   0.000000
     6  O    3.023764   2.758050   1.174310   4.226613   5.273352
     7  H    2.923381   3.786600   5.705650   1.886021   0.973840
     8  H    1.098579   2.164735   3.273207   2.072149   2.546974
     9  H    1.100409   2.152562   2.763295   1.970981   3.231384
    10  H    2.863954   1.749269   1.093241   4.131296   4.572946
    11  H    2.179154   1.095349   2.513524   2.717981   3.251385
    12  H    2.191847   1.096124   2.809616   2.972829   2.867225
[...]
    D1        3.07229   0.00001   0.00000   0.00022   0.00022   3.07251
    D2        0.82664  -0.00000   0.00000   0.00014   0.00014   0.82678
    D3       -1.41419  -0.00000   0.00000   0.00012   0.00012  -1.41406
    D4       -1.03692   0.00001   0.00000   0.00019   0.00019  -1.03673
    D5        3.00061  -0.00000   0.00000   0.00012   0.00012   3.00073
    D6        0.75979  -0.00000   0.00000   0.00010   0.00010   0.75989
    D7        1.09014   0.00001   0.00000   0.00020   0.00020   1.09034
    D8       -1.15551  -0.00000   0.00000   0.00013   0.00013  -1.15538
    D9        2.88685  -0.00000   0.00000   0.00011   0.00011   2.88696
   D10        1.16485  -0.00000   0.00000   0.00001   0.00001   1.16486
   D11       -1.03953  -0.00000   0.00000   0.00003   0.00003  -1.03950
   D12       -3.03600   0.00000   0.00000   0.00004   0.00004  -3.03596
   D13       -0.94956   0.00000   0.00000  -0.00061  -0.00061  -0.95017
   D14        1.35596   0.00001   0.00000  -0.00059  -0.00059   1.35536
   D15       -2.99567   0.00000   0.00000  -0.00059  -0.00059  -2.99626
   D16        0.17385   0.00001   0.00000   0.00239   0.00239   0.17624
   D17        2.19695   0.00000   0.00000   0.00080   0.00080   2.19775
         Item               Value     Threshold  Converged?
 Maximum Force            0.000156     0.000450     YES
 RMS     Force            0.000027     0.000300     YES
 Maximum Displacement     0.000565     0.001800     YES
 RMS     Displacement     0.000230     0.001200     YES
 Predicted change in Energy= 8.586624D-09
 Optimization completed.
    -- Stationary point found.
                           ----------------------------
                           !   Optimized Parameters   !
                           ! (Angstroms and Degrees)  !
 --------------------------                            --------------------------
 ! Name  Definition              Value          Derivative Info.                !
 --------------------------------------------------------------------------------
 ! R1    R(1,2)                  1.4987         -DE/DX =    0.0                 !
 ! R2    R(1,4)                  1.4406         -DE/DX =    0.0                 !
 ! R3    R(1,8)                  1.0986         -DE/DX =    0.0                 !
 ! R4    R(1,9)                  1.1004         -DE/DX =    0.0                 !
 ! R5    R(2,10)                 1.7493         -DE/DX =    0.0                 !
 ! R6    R(2,11)                 1.0953         -DE/DX =    0.0                 !
 ! R7    R(2,12)                 1.0961         -DE/DX =    0.0                 !
 ! R8    R(3,6)                  1.1743         -DE/DX =    0.0                 !
 ! R9    R(3,10)                 1.0932         -DE/DX =   -0.0001              !
 ! R10   R(4,5)                  1.4636         -DE/DX =    0.0                 !
 ! R11   R(5,7)                  0.9738         -DE/DX =    0.0                 !
 ! A1    A(2,1,4)              114.8808         -DE/DX =    0.0                 !
 ! A2    A(2,1,8)              111.9887         -DE/DX =    0.0                 !
 ! A3    A(2,1,9)              110.8945         -DE/DX =    0.0                 !
 ! A4    A(4,1,8)              108.6415         -DE/DX =    0.0                 !
 ! A5    A(4,1,9)              100.8844         -DE/DX =    0.0                 !
 ! A6    A(8,1,9)              108.8975         -DE/DX =    0.0                 !
 ! A7    A(1,2,10)             123.5266         -DE/DX =    0.0                 !
 ! A8    A(1,2,11)             113.376          -DE/DX =    0.0                 !
 ! A9    A(1,2,12)             114.3841         -DE/DX =    0.0                 !
 ! A10   A(10,2,11)            105.0077         -DE/DX =    0.0                 !
 ! A11   A(10,2,12)             86.6775         -DE/DX =    0.0                 !
 ! A12   A(11,2,12)            110.8168         -DE/DX =    0.0                 !
 ! A13   A(6,3,10)             163.7911         -DE/DX =    0.0                 !
 ! A14   A(1,4,5)              106.9359         -DE/DX =    0.0                 !
 ! A15   A(4,5,7)               99.4173         -DE/DX =    0.0                 !
 ! A16   A(2,10,3)              94.6726         -DE/DX =   -0.0002              !
 ! D1    D(4,1,2,10)           176.0293         -DE/DX =    0.0                 !
 ! D2    D(4,1,2,11)            47.3627         -DE/DX =    0.0                 !
 ! D3    D(4,1,2,12)           -81.0269         -DE/DX =    0.0                 !
 ! D4    D(8,1,2,10)           -59.4112         -DE/DX =    0.0                 !
 ! D5    D(8,1,2,11)           171.9223         -DE/DX =    0.0                 !
 ! D6    D(8,1,2,12)            43.5326         -DE/DX =    0.0                 !
 ! D7    D(9,1,2,10)            62.4606         -DE/DX =    0.0                 !
 ! D8    D(9,1,2,11)           -66.2059         -DE/DX =    0.0                 !
 ! D9    D(9,1,2,12)           165.4044         -DE/DX =    0.0                 !
 ! D10   D(2,1,4,5)             66.7412         -DE/DX =    0.0                 !
 ! D11   D(8,1,4,5)            -59.5604         -DE/DX =    0.0                 !
 ! D12   D(9,1,4,5)           -173.9498         -DE/DX =    0.0                 !
 ! D13   D(1,2,10,3)           -54.4057         -DE/DX =    0.0                 !
 ! D14   D(11,2,10,3)           77.6907         -DE/DX =    0.0                 !
 ! D15   D(12,2,10,3)         -171.6391         -DE/DX =    0.0                 !
 ! D16   D(6,3,10,2)             9.9607         -DE/DX =    0.0                 !
 ! D17   D(1,4,5,7)            125.8759         -DE/DX =    0.0                 !
 --------------------------------------------------------------------------------
 GradGradGradGradGradGradGradGradGradGradGradGradGradGradGradGradGradGrad


 ----------------------------------------------------------------------

 Electric dipole moment (input orientation):
 (Debye = 10**-18 statcoulomb cm , SI units = C m)
                  (au)            (Debye)         (10**-30 SI)
   Tot        0.881084D+00      0.223949D+01      0.747014D+01
   x          0.306418D+00      0.778837D+00      0.259792D+01
   y         -0.869660D-01     -0.221046D+00     -0.737329D+00
   z          0.821495D+00      0.208803D+01      0.696493D+01

 Dipole polarizability, Alpha (input orientation).
 (esu units = cm**3 , SI units = C**2 m**2 J**-1)
 Alpha(0;0):
               (au)            (10**-24 esu)      (10**-40 SI)
   iso        0.621299D+02      0.920670D+01      0.102438D+02
   aniso      0.499917D+02      0.740800D+01      0.824252D+01
   xx         0.487679D+02      0.722665D+01      0.804074D+01
   yx        -0.159686D+02     -0.236630D+01     -0.263286D+01
   yy         0.892699D+02      0.132284D+02      0.147186D+02
   zx        -0.333543D+01     -0.494259D+00     -0.549938D+00
   zy        -0.380233D+01     -0.563447D+00     -0.626920D+00
   zz         0.483519D+02      0.716501D+01      0.797215D+01

 ----------------------------------------------------------------------

 Dipole orientation:
     6          3.68708165          2.59559462         -2.77162452
     6          1.39829880          1.12633621         -1.98156537
     6          2.94245629         -2.40725187         -0.78270034
     8          3.24694944          4.43743022         -4.72728667
     8          1.61468910          6.38944626         -3.64307109
     8          4.54455617         -3.02366806         -2.18904944
     1          2.63585730          7.87518568         -4.01248153
     1          4.59767907          3.54048942         -1.16295458
     1          5.07704811          1.35982146         -3.70170888
     1          1.48179381         -1.34128676          0.21641553
     1          0.30631374          0.38650632         -3.57679102
     1          0.16663456          2.11656719         -0.64252204

 Electric dipole moment (dipole orientation):
 (Debye = 10**-18 statcoulomb cm , SI units = C m)
                  (au)            (Debye)         (10**-30 SI)
   Tot        0.881084D+00      0.223949D+01      0.747014D+01
   x          0.000000D+00      0.000000D+00      0.000000D+00
   y          0.000000D+00      0.000000D+00      0.000000D+00
   z          0.881084D+00      0.223949D+01      0.747014D+01

 Dipole polarizability, Alpha (dipole orientation).
 (esu units = cm**3 , SI units = C**2 m**2 J**-1)
 Alpha(0;0):
               (au)            (10**-24 esu)      (10**-40 SI)
   iso        0.621299D+02      0.920670D+01      0.102438D+02
   aniso      0.499917D+02      0.740800D+01      0.824252D+01
   xx         0.504203D+02      0.747151D+01      0.831318D+01
   yx        -0.131475D+02     -0.194826D+01     -0.216773D+01
   yy         0.875355D+02      0.129714D+02      0.144327D+02
   zx        -0.126257D+01     -0.187094D+00     -0.208170D+00
   zy        -0.131733D+02     -0.195208D+01     -0.217198D+01
   zz         0.484339D+02      0.717717D+01      0.798568D+01

 ----------------------------------------------------------------------
 1\1\GINC-BELL-A064\Freq\RB3LYP\6-31+G(d)\C3H6O3\ZHAO922\23-Dec-2020\0\
 \#N Geom=AllCheck Guess=TCheck SCRF=Check GenChk RB3LYP/6-31+G(d) Freq
 \\pp_16_0 TS\\0,1\C,1.343325375,1.5460305787,-1.9104630701\C,0.3395470
 559,0.7096711728,-1.1761850653\C,1.2929510353,-1.1988988616,-1.0534217
 255\O,0.7824005073,2.6137841001,-2.6981622801\O,0.1905898643,3.5695646
 464,-1.7608748233\O,1.8230718688,-1.4349316718,-2.0743349772\H,0.64312
 88256,4.3807143858,-2.0534646952\H,2.0999650212,1.968062915,-1.2349919
 296\H,1.850042929,0.9570304022,-2.6897031834\H,0.7622721944,-0.7035743
 847,-0.2359811609\H,-0.5026691556,0.3932001025,-1.8009305904\H,-0.0156
 895211,1.1495186146,-0.237127499\\Version=ES64L-G16RevB.01\State=1-A\H
 F=-343.3613322\RMSD=3.844e-09\RMSF=2.873e-05\ZeroPoint=0.0868297\Therm
 al=0.0947014\Dipole=0.3064182,-0.086966,0.8214953\DipoleDeriv=0.282717
 7,0.4289824,0.0026474,0.008889,0.8062707,-0.2451158,0.1340489,-0.59276
 25,0.4809999,-0.0597539,-0.0599468,0.1156278,0.1511077,-0.5310973,0.20
 34159,0.0673624,0.1921313,-0.0949596,0.4940531,-0.6663867,-0.2487897,-
 0.2558166,0.1541444,0.4285019,-0.6927356,1.4550687,0.220808,-0.2633004
 ,-0.1254701,-0.0287453,-0.0558515,-0.5586307,0.2669811,-0.116118,0.515
 0567,-0.3883094,-0.2593461,0.1516014,-0.1454363,0.2093898,-0.4638286,-
 0.017038,-0.0605382,-0.1262067,-0.2829008,-0.5071069,0.5976895,0.15078
 68,0.0899576,-0.1989273,-0.1614323,0.7018622,-1.4099745,-0.3773284,0.2
 489518,-0.0496908,0.0849384,-0.0544758,0.2664816,0.0070004,0.0954757,0
 .0200961,0.2749697,-0.0797142,-0.0724574,-0.0835854,-0.0922106,-0.0603
 491,-0.0334316,-0.1246083,0.0302412,-0.0393002,0.0283443,0.0113257,0.0
 505161,0.0731414,-0.0420797,-0.0423229,0.0395793,0.0864239,-0.0550478,
 0.1931156,-0.1897052,0.0519164,-0.0960501,0.7084539,-0.2706398,-0.0102
 108,-0.1637646,0.3488523,-0.0722374,-0.0522101,-0.031365,-0.0539531,-0
 .0184626,-0.0360258,-0.0836913,-0.0165556,-0.017157,-0.0057234,0.02626
 79,0.0814888,0.0758721,-0.0619752,-0.0998931,0.0495737,0.0102459,-0.07
 06266\Polar=48.7678799,-15.968569,89.2699033,-3.3354274,-3.8023319,48.
 3518946\Quadrupole=-1.6633327,1.8059682,-0.1426356,3.9675244,0.0218451
 ,-2.0620881\PG=C01 [X(C3H6O3)]\NImag=1\\0.51740375,0.03543765,0.452837
 39,-0.00705726,0.11019160,0.55675790,-0.14919295,-0.07132042,0.0492696
 6,0.44671286,-0.04783319,-0.09457707,0.00708138,0.10578087,0.27972578,
 0.04100651,0.02364445,-0.10831497,-0.01698605,0.08445700,0.52837736,0.
 00095128,0.00689496,-0.00816582,0.02434979,-0.00723816,-0.03790492,0.2
 6215725,0.01413114,-0.01825100,0.01241704,-0.03979599,0.02071035,0.087
 57876,-0.02182835,-0.07354021,-0.02272365,-0.00062761,0.01249382,0.015
 57234,0.00987682,-0.00555786,-0.47394602,0.21000636,0.99358282,-0.0714
 5455,0.02453437,-0.03954919,0.01403788,-0.00810133,0.01112738,-0.00004
 073,-0.00452084,0.00506633,0.11862084,0.02983267,-0.10099159,0.0675840
 2,0.00233946,-0.03398238,0.02574950,-0.00201448,-0.00598266,0.01156570
 ,-0.10750752,0.30316738,-0.02724516,0.02596631,-0.13108261,-0.00048249
 ,0.03288510,-0.01938527,0.00151295,0.00271160,-0.01022466,-0.00638859,
 -0.00326003,0.29150947,-0.01367049,0.01603002,0.01451112,0.00113707,-0
 .00222205,-0.00164010,-0.00003738,-0.00043586,0.00030815,-0.04763643,0
 .02701822,0.04405365,0.18556657,0.02168323,-0.03001176,-0.03541349,-0.
 00096770,0.00128216,0.00079271,0.00008950,0.00019692,-0.00083965,0.056
 46174,-0.12662923,-0.06337369,0.12571150,0.48980854,-0.00039361,0.0043
 1798,0.01411022,-0.00015214,0.00108412,0.00205777,0.00034358,-0.000216
 36,-0.00019940,0.06232155,-0.05793469,-0.13041276,-0.15206354,-0.05124
 042,0.18029576,-0.00293527,-0.00587287,0.00699788,-0.01626998,0.011054
 28,0.02396191,-0.20403370,0.05525140,0.36250636,0.00071537,0.00254341,
 -0.00248431,0.00011294,-0.00019079,-0.00022486,0.21812636,-0.00260471,
 0.00261987,-0.00509033,0.01984770,-0.01851744,-0.04181422,0.05258922,-
 0.01714544,-0.13943030,0.00096997,0.00344410,-0.00144567,0.00034118,-0
 .00000447,0.00020287,-0.09842936,0.07271949,0.01807523,0.00716818,-0.0
 1354917,-0.00332225,-0.01736680,-0.01103017,0.36393955,-0.14675644,-0.
 75359833,-0.00361968,-0.00954795,0.00909300,-0.00015511,0.00072313,0.0
 0021011,-0.38216195,0.17573164,0.74794340,0.00019735,0.00339984,0.0044
 0017,-0.00011156,-0.00039758,-0.00004522,-0.00032406,0.00048899,0.0002
 1951,0.00544371,0.02571623,-0.00392633,-0.12842951,-0.20273142,0.09243
 072,0.00020580,-0.00017738,-0.00031206,0.12437887,0.00051941,-0.004623
 34,-0.00241496,0.00034936,0.00077273,-0.00088970,0.00021035,0.00015184
 ,-0.00084006,-0.00603249,-0.02366132,0.00515566,-0.16811351,-0.3311563
 5,0.09969368,-0.00024639,-0.00013382,0.00074350,0.17280255,0.35926789,
 0.00033524,-0.00017094,-0.00434819,-0.00049037,0.00063926,-0.00033697,
 0.00043809,-0.00047157,-0.00046952,-0.00444392,-0.04012782,-0.00111417
 ,0.09614235,0.14177951,-0.07133738,-0.00032806,0.00022116,0.00051084,-
 0.09153326,-0.10199779,0.07568589,-0.16499522,-0.07280903,-0.09706319,
 -0.01410616,-0.01173421,-0.01251169,-0.00091645,-0.00050997,0.00152609
 ,-0.01140596,0.00781112,-0.01822921,0.00171627,-0.00177028,0.00106971,
 0.00048335,0.00033176,-0.00144782,-0.00049570,-0.00016709,-0.00031922,
 0.17937840,-0.07348981,-0.09372339,-0.07110384,-0.01248745,-0.00583490
 ,-0.01123090,-0.00091172,-0.00013500,0.00046403,0.02570448,-0.00013148
 ,0.02610174,-0.00188052,0.00374220,0.00054918,0.00086433,-0.00037368,-
 0.00060899,-0.00005595,-0.00005217,0.00075228,0.07661420,0.10147178,-0
 .10145340,-0.06403829,-0.14294238,0.01237089,0.00613887,0.01087261,0.0
 0036540,-0.00082157,0.00034082,-0.01769688,0.00151379,-0.02029494,0.00
 282725,0.00122905,0.00288092,-0.00004697,-0.00004665,0.00006998,-0.000
 58165,0.00006907,0.00037022,0.11647471,0.06130203,0.16050899,-0.100116
 03,0.05617183,0.07623395,-0.00881853,0.00754485,0.01832384,-0.00116452
 ,0.00301123,0.00240198,-0.00959453,0.01548535,0.01002414,0.00050794,0.
 00229574,-0.00235569,0.00045512,-0.00036717,-0.00289420,-0.00088337,0.
 00044227,0.00030602,0.01213939,-0.01224007,-0.01447793,0.10959904,0.05
 580258,-0.11430035,-0.09258476,-0.00649741,0.01184495,0.01216099,-0.00
 273237,-0.00114302,0.00367231,0.01559160,-0.02343828,-0.01824678,0.003
 13264,-0.00589127,0.00362343,0.00094787,0.00104812,-0.00156506,0.00106
 062,-0.00038171,-0.00063278,0.00421107,-0.00477586,-0.00798379,-0.0700
 5335,0.13941103,0.07791977,-0.10236062,-0.17917864,0.00799298,-0.00223
 480,-0.01347476,0.00387478,-0.00139928,-0.00548717,-0.00597695,0.00758
 081,0.00922725,-0.00330201,0.00644541,0.00203932,-0.00269451,-0.000615
 35,0.00445138,-0.00064287,0.00043660,0.00062340,0.00884668,-0.00931095
 ,-0.01175832,-0.08948625,0.09973102,0.19297389,0.00663707,-0.00066977,
 0.00004103,-0.01757008,-0.00027724,0.01083753,-0.08115132,0.00025392,0
 .12019414,-0.00125246,-0.00242002,0.00256997,0.00001379,0.00007461,-0.
 00019972,0.00611079,0.02392651,0.00327467,0.00008423,0.00014118,-0.000
 03447,-0.00039817,-0.00036868,-0.00027049,-0.00001534,0.00032440,0.000
 27957,0.09091360,-0.00783089,-0.00121253,-0.00011202,0.02242581,-0.027
 79757,-0.02552547,-0.01548899,0.08760525,-0.10548765,0.00169339,0.0043
 2881,-0.00391140,-0.00015148,0.00042297,0.00020370,0.02519321,-0.03914
 960,0.00142795,-0.00011881,-0.00034399,0.00012489,0.00018716,0.0004950
 6,0.00021605,-0.00028010,0.00003980,-0.00027195,-0.03138179,-0.0176579
 3,0.00204963,-0.00057537,-0.00161054,-0.01385128,0.02128257,-0.0036431
 7,0.14421577,-0.15436742,-0.22889705,-0.00052395,-0.00150530,0.0009752
 8,0.00005876,-0.00025393,-0.00005576,-0.00114155,0.00739629,0.01079756
 ,0.00002814,0.00013688,0.00003165,-0.00042799,-0.00019597,0.00000542,0
 .00055840,-0.00033872,-0.00010287,-0.13443600,0.13205039,0.22420982,-0
 .01724672,-0.00363272,-0.01626787,-0.20669282,-0.07347146,-0.11802532,
 -0.00354872,0.00352272,-0.00680448,0.00288132,0.00091021,0.00066539,0.
 00007615,-0.00019927,0.00001674,0.00032716,-0.00088738,0.00369624,-0.0
 0009856,0.00005588,-0.00006735,-0.00195728,-0.00265295,0.00291934,0.00
 046769,0.00023602,-0.00018777,-0.00052688,-0.00101220,0.00085273,0.217
 09194,-0.01643195,-0.00678931,-0.01058269,-0.05207435,-0.04876823,-0.0
 3969176,0.00351039,-0.01123581,0.00615983,0.00128987,0.00321798,-0.002
 14388,0.00017330,-0.00057288,0.00003019,0.00023585,0.00443560,-0.00178
 399,0.00003339,-0.00002574,-0.00009579,-0.00319522,-0.00089517,0.00284
 645,0.00005162,0.00042484,0.00086072,0.00356900,0.00559014,0.00045314,
 0.07386333,0.05695331,0.01398407,0.00558653,0.01049306,-0.11948820,-0.
 05249518,-0.14143297,-0.00042352,0.00362015,-0.00183086,-0.00057693,-0
 .00127728,0.00147640,-0.00008498,0.00000476,-0.00015022,-0.00027745,-0
 .00122977,0.00183312,0.00008323,0.00001297,0.00000932,0.00240598,0.002
 44578,-0.00097698,-0.00047626,-0.00056865,0.00052070,-0.00029390,-0.00
 347317,-0.00159500,0.12585393,0.05208706,0.14538833,-0.00557820,0.0118
 3612,0.01664952,-0.07347551,0.02689523,0.08185613,0.00375857,-0.009568
 40,-0.00432076,-0.00031447,0.00028535,-0.00007000,0.00064308,-0.000456
 83,-0.00079273,-0.00329795,0.00445966,0.00492738,0.00003281,0.00003851
 ,-0.00000505,0.00055751,0.00090413,-0.00043025,-0.00257686,-0.00202367
 ,0.00337659,-0.00284524,0.00676469,0.00261734,0.00922673,-0.01102523,-
 0.02070596,0.07386954,-0.00921614,0.00902309,0.02002803,0.03240012,-0.
 08485838,-0.11523136,-0.01308033,0.01876877,0.00548022,-0.00008325,0.0
 0065866,-0.00043895,0.00039653,-0.00118684,-0.00031367,0.00864908,-0.0
 0894272,-0.00816518,-0.00002047,0.00018598,-0.00002040,0.00103051,0.00
 021262,-0.00042502,-0.00206219,-0.00283826,0.00113839,0.00682788,-0.01
 232041,-0.00408258,0.00326781,-0.00233474,-0.00471320,-0.02810956,0.08
 363224,0.00550264,-0.00910222,-0.01282849,0.06956692,-0.09134835,-0.23
 813160,0.00575017,-0.01230127,-0.00015261,0.00026082,-0.00034077,0.000
 23302,-0.00065554,0.00014661,0.00056141,-0.00410649,0.00612033,0.00326
 828,-0.00012038,-0.00010585,0.00037492,-0.00032404,0.00083560,0.000923
 66,0.00184200,0.00273279,0.00016580,-0.00196232,0.00475869,-0.00011534
 ,0.00734841,-0.00813929,-0.01373490,-0.08310221,0.10674372,0.25943585\
 \0.00000776,0.00000134,0.00000608,-0.00002173,0.00002468,0.00005306,0.
 00008881,-0.00007944,0.00000453,-0.00000290,-0.00000689,0.00000242,-0.
 00000212,0.00000174,-0.00000016,-0.00001737,-0.00001014,-0.00001438,0.
 00000138,-0.00000239,0.00000041,-0.00000170,-0.00000036,0.00000006,-0.
 00000107,-0.00000330,0.00000189,-0.00005192,0.00007333,-0.00004928,0.0
 0000439,-0.00000912,0.00000240,-0.00000353,0.00001056,-0.00000703\\\@


 EXPERIENCE IS A WONDERFUL THING.  IT ENABLES
 YOU TO RECOGNIZE A MISTAKE WHEN YOU MAKE IT AGAIN.
           - BACK OF A SUGAR PACKET
 Job cpu time:       0 days  0 hours  3 minutes 56.0 seconds.
 Elapsed time:       0 days  0 hours  0 minutes 15.4 seconds.
 File lengths (MBytes):  RWF=     27 Int=      0 D2E=      0 Chk=      3 Scr=      1
 Normal termination of Gaussian 16 at Wed Dec 23 23:09:06 2020.
