 Entering Gaussian System, Link 0=g16
 Initial command:
 /apps/cent7/gaussian/g16-B.01/g16-haswell/g16/l1.exe "/scratch/bell/zhao922/YARP/paper-example/KHP-network/pp_0/TS-folder/Gau-4811.inp" -scrdir="/scratch/bell/zhao922/YARP/paper-example/KHP-network/pp_0/TS-folder/"
 Entering Link 1 = /apps/cent7/gaussian/g16-B.01/g16-haswell/g16/l1.exe PID=      4813.
  
 Copyright (c) 1988-2017, Gaussian, Inc.  All Rights Reserved.
  
 This is part of the Gaussian(R) 16 program.  It is based on
 the Gaussian(R) 09 system (copyright 2009, Gaussian, Inc.),
 the Gaussian(R) 03 system (copyright 2003, Gaussian, Inc.),
 the Gaussian(R) 98 system (copyright 1998, Gaussian, Inc.),
 the Gaussian(R) 94 system (copyright 1995, Gaussian, Inc.),
 the Gaussian 92(TM) system (copyright 1992, Gaussian, Inc.),
 the Gaussian 90(TM) system (copyright 1990, Gaussian, Inc.),
 the Gaussian 88(TM) system (copyright 1988, Gaussian, Inc.),
 the Gaussian 86(TM) system (copyright 1986, Carnegie Mellon
 University), and the Gaussian 82(TM) system (copyright 1983,
 Carnegie Mellon University). Gaussian is a federally registered
 trademark of Gaussian, Inc.
  
 This software contains proprietary and confidential information,
 including trade secrets, belonging to Gaussian, Inc.
  
 This software is provided under written license and may be
 used, copied, transmitted, or stored only in accord with that
 written license.
  
 The following legend is applicable only to US Government
 contracts under FAR:
  
                    RESTRICTED RIGHTS LEGEND
  
 Use, reproduction and disclosure by the US Government is
 subject to restrictions as set forth in subparagraphs (a)
 and (c) of the Commercial Computer Software - Restricted
 Rights clause in FAR 52.227-19.
  
 Gaussian, Inc.
 340 Quinnipiac St., Bldg. 40, Wallingford CT 06492
  
  
 ---------------------------------------------------------------
 Warning -- This program may not be used in any manner that
 competes with the business of Gaussian, Inc. or will provide
 assistance to any competitor of Gaussian, Inc.  The licensee
 of this program is prohibited from giving any competitor of
 Gaussian, Inc. access to this program.  By using this program,
 the user acknowledges that Gaussian, Inc. is engaged in the
 business of creating and licensing software in the field of
 computational chemistry and represents and warrants to the
 licensee that it is not a competitor of Gaussian, Inc. and that
 it will not use this program in any manner prohibited above.
 ---------------------------------------------------------------
  

 Cite this work as:
 Gaussian 16, Revision B.01,
 M. J. Frisch, G. W. Trucks, H. B. Schlegel, G. E. Scuseria, 
 M. A. Robb, J. R. Cheeseman, G. Scalmani, V. Barone, 
 G. A. Petersson, H. Nakatsuji, X. Li, M. Caricato, A. V. Marenich, 
 J. Bloino, B. G. Janesko, R. Gomperts, B. Mennucci, H. P. Hratchian, 
 J. V. Ortiz, A. F. Izmaylov, J. L. Sonnenberg, D. Williams-Young, 
 F. Ding, F. Lipparini, F. Egidi, J. Goings, B. Peng, A. Petrone, 
 T. Henderson, D. Ranasinghe, V. G. Zakrzewski, J. Gao, N. Rega, 
 G. Zheng, W. Liang, M. Hada, M. Ehara, K. Toyota, R. Fukuda, 
 J. Hasegawa, M. Ishida, T. Nakajima, Y. Honda, O. Kitao, H. Nakai, 
 T. Vreven, K. Throssell, J. A. Montgomery, Jr., J. E. Peralta, 
 F. Ogliaro, M. J. Bearpark, J. J. Heyd, E. N. Brothers, K. N. Kudin, 
 V. N. Staroverov, T. A. Keith, R. Kobayashi, J. Normand, 
 K. Raghavachari, A. P. Rendell, J. C. Burant, S. S. Iyengar, 
 J. Tomasi, M. Cossi, J. M. Millam, M. Klene, C. Adamo, R. Cammi, 
 J. W. Ochterski, R. L. Martin, K. Morokuma, O. Farkas, 
 J. B. Foresman, and D. J. Fox, Gaussian, Inc., Wallingford CT, 2016.
 
 ******************************************
 Gaussian 16:  ES64L-G16RevB.01 20-Dec-2017
                23-Dec-2020 
 ******************************************
 %NProcShared=16
 Will use up to   16 processors via shared memory.
 %Mem=6GB
 --------------------------------------------------------------
 # B3LYP/6-31+G* OPT=(TS, CALCALL, NOEIGEN, maxcycles=100) Freq
 --------------------------------------------------------------
 1/5=1,6=100,10=4,11=1,18=20,26=3,38=1/1,3;
 2/9=110,12=2,17=6,18=5,40=1/2;
 3/5=1,6=6,7=11,11=2,25=1,30=1,71=2,74=-5,140=1/1,2,3;
 4//1;
 5/5=2,38=5/2;
 8/6=4,10=90,11=11/1;
 11/6=1,8=1,9=11,15=111,16=1/1,2,10;
 10/6=1/2;
 6/7=2,8=2,9=2,10=2,18=1,28=1/1;
 7/10=1,25=1/1,2,3,16;
 1/5=1,6=100,10=4,11=1,18=20,26=3/3(3);
 2/9=110/2;
 7/8=1,9=1,25=1,44=-1/16;
 99//99;
 2/9=110/2;
 3/5=1,6=6,7=11,11=2,25=1,30=1,71=2,74=-5,140=1/1,2,3;
 4/5=5,16=3,69=1/1;
 5/5=2,38=5/2;
 8/6=4,10=90,11=11/1;
 11/6=1,8=1,9=11,15=111,16=1/1,2,10;
 10/6=1/2;
 7/10=1,25=1/1,2,3,16;
 1/5=1,6=100,10=4,11=1,18=20,26=3/3(-8);
 2/9=110/2;
 6/7=2,8=2,9=2,10=2,18=1,19=2,28=1/1;
 7/8=1,9=1,25=1,44=-1/16;
 99//99;
 ----------
 pp_13_3 TS
 ----------
 Symbolic Z-matrix:
 Charge =  0 Multiplicity = 1
 C                     0.89439   1.56373  -1.29824 
 C                     0.66202   0.15416  -1.59355 
 C                     1.80589  -0.61539  -1.17353 
 O                     1.05573   2.33136  -2.31828 
 O                     1.44037   3.67774  -1.99616 
 O                     2.86261  -0.15699  -0.76517 
 H                     2.22283   3.84458  -2.54596 
 H                     1.48521   1.78007  -0.40943 
 H                    -1.05502   1.66984  -1.55178 
 H                     1.66953  -1.72061  -1.25144 
 H                     0.14183  -0.10325  -2.50217 
 H                    -0.81335   0.41999  -1.02315 
 
 Add virtual bond connecting atoms H12        and H9         Dist= 2.60D+00.
 Add virtual bond connecting atoms H12        and C2         Dist= 3.03D+00.

 GradGradGradGradGradGradGradGradGradGradGradGradGradGradGradGradGradGrad
 Berny optimization.
 Initialization pass.
                           ----------------------------
                           !    Initial Parameters    !
                           ! (Angstroms and Degrees)  !
 --------------------------                            --------------------------
 ! Name  Definition              Value          Derivative Info.                !
 --------------------------------------------------------------------------------
 ! R1    R(1,2)                  1.4588         calculate D2E/DX2 analytically  !
 ! R2    R(1,4)                  1.2868         calculate D2E/DX2 analytically  !
 ! R3    R(1,8)                  1.089          calculate D2E/DX2 analytically  !
 ! R4    R(2,3)                  1.4412         calculate D2E/DX2 analytically  !
 ! R5    R(2,11)                 1.0782         calculate D2E/DX2 analytically  !
 ! R6    R(2,12)                 1.604          calculate D2E/DX2 analytically  !
 ! R7    R(3,6)                  1.2221         calculate D2E/DX2 analytically  !
 ! R8    R(3,10)                 1.1163         calculate D2E/DX2 analytically  !
 ! R9    R(4,5)                  1.4368         calculate D2E/DX2 analytically  !
 ! R10   R(5,7)                  0.9707         calculate D2E/DX2 analytically  !
 ! R11   R(9,12)                 1.3784         calculate D2E/DX2 analytically  !
 ! A1    A(2,1,4)              115.8444         calculate D2E/DX2 analytically  !
 ! A2    A(2,1,8)              116.3349         calculate D2E/DX2 analytically  !
 ! A3    A(4,1,8)              117.417          calculate D2E/DX2 analytically  !
 ! A4    A(1,2,3)              109.3002         calculate D2E/DX2 analytically  !
 ! A5    A(1,2,11)             118.5645         calculate D2E/DX2 analytically  !
 ! A6    A(1,2,12)              85.0892         calculate D2E/DX2 analytically  !
 ! A7    A(3,2,11)             120.0699         calculate D2E/DX2 analytically  !
 ! A8    A(3,2,12)             135.6359         calculate D2E/DX2 analytically  !
 ! A9    A(11,2,12)             84.0001         calculate D2E/DX2 analytically  !
 ! A10   A(2,3,6)              125.6885         calculate D2E/DX2 analytically  !
 ! A11   A(2,3,10)             114.2902         calculate D2E/DX2 analytically  !
 ! A12   A(6,3,10)             120.0203         calculate D2E/DX2 analytically  !
 ! A13   A(1,4,5)              114.5101         calculate D2E/DX2 analytically  !
 ! A14   A(4,5,7)              104.4687         calculate D2E/DX2 analytically  !
 ! A15   A(2,12,9)             100.0882         calculate D2E/DX2 analytically  !
 ! D1    D(4,1,2,3)            111.1136         calculate D2E/DX2 analytically  !
 ! D2    D(4,1,2,11)           -31.5533         calculate D2E/DX2 analytically  !
 ! D3    D(4,1,2,12)          -111.9846         calculate D2E/DX2 analytically  !
 ! D4    D(8,1,2,3)            -33.0454         calculate D2E/DX2 analytically  !
 ! D5    D(8,1,2,11)          -175.7123         calculate D2E/DX2 analytically  !
 ! D6    D(8,1,2,12)           103.8564         calculate D2E/DX2 analytically  !
 ! D7    D(2,1,4,5)           -172.9063         calculate D2E/DX2 analytically  !
 ! D8    D(8,1,4,5)            -29.1464         calculate D2E/DX2 analytically  !
 ! D9    D(1,2,3,6)             -7.1287         calculate D2E/DX2 analytically  !
 ! D10   D(1,2,3,10)           173.2408         calculate D2E/DX2 analytically  !
 ! D11   D(11,2,3,6)           134.8857         calculate D2E/DX2 analytically  !
 ! D12   D(11,2,3,10)          -44.7448         calculate D2E/DX2 analytically  !
 ! D13   D(12,2,3,6)          -110.3281         calculate D2E/DX2 analytically  !
 ! D14   D(12,2,3,10)           70.0414         calculate D2E/DX2 analytically  !
 ! D15   D(1,2,12,9)            39.6212         calculate D2E/DX2 analytically  !
 ! D16   D(3,2,12,9)           152.3638         calculate D2E/DX2 analytically  !
 ! D17   D(11,2,12,9)          -79.8235         calculate D2E/DX2 analytically  !
 ! D18   D(1,4,5,7)            128.5377         calculate D2E/DX2 analytically  !
 --------------------------------------------------------------------------------
 Trust Radius=3.00D-01 FncErr=1.00D-07 GrdErr=1.00D-06 EigMax=2.50D+02 EigMin=1.00D-04
 Number of steps in this run=    100 maximum allowed number of steps=    100.
 Search for a saddle point of order  1.
 GradGradGradGradGradGradGradGradGradGradGradGradGradGradGradGradGradGrad

                          Input orientation:                          
 ---------------------------------------------------------------------
 Center     Atomic      Atomic             Coordinates (Angstroms)
 Number     Number       Type             X           Y           Z
 ---------------------------------------------------------------------
      1          6           0        0.894393    1.563725   -1.298239
      2          6           0        0.662015    0.154162   -1.593546
      3          6           0        1.805891   -0.615392   -1.173526
      4          8           0        1.055731    2.331360   -2.318282
      5          8           0        1.440374    3.677742   -1.996158
      6          8           0        2.862609   -0.156992   -0.765166
      7          1           0        2.222827    3.844581   -2.545959
      8          1           0        1.485211    1.780073   -0.409429
      9          1           0       -1.055016    1.669840   -1.551781
     10          1           0        1.669525   -1.720614   -1.251441
     11          1           0        0.141828   -0.103252   -2.502167
     12          1           0       -0.813345    0.419990   -1.023153
 ---------------------------------------------------------------------
                    Distance matrix (angstroms):
                    1          2          3          4          5
     1  C    0.000000
     2  C    1.458792   0.000000
     3  C    2.365361   1.441209   0.000000
     4  O    1.286772   2.328185   3.249085   0.000000
     5  O    2.292216   3.630917   4.386494   1.436822   0.000000
     6  O    2.668128   2.371844   1.222105   3.445123   4.271215
     7  H    2.919563   4.118545   4.684951   1.924523   0.970747
     8  H    1.088970   2.173332   2.534745   2.032754   2.474039
     9  H    1.968690   2.290681   3.681053   2.341022   3.233591
    10  H    3.374893   2.155666   1.116325   4.234783   5.454297
    11  H    2.189660   1.078169   2.190132   2.606984   4.029663
    12  H    2.073685   1.603964   2.820465   2.970545   4.079085
                    6          7          8          9         10
     6  O    0.000000
     7  H    4.426413   0.000000
     8  H    2.403330   3.061214   0.000000
     9  H    4.393616   4.057357   2.787449   0.000000
    10  H    2.026037   5.740498   3.605241   4.359875   0.000000
    11  H    3.228422   4.462943   3.119478   2.340838   2.552260
    12  H    3.729893   4.823391   2.740409   1.378397   3.286175
                   11         12
    11  H    0.000000
    12  H    1.836742   0.000000
 Stoichiometry    C3H6O3
 Framework group  C1[X(C3H6O3)]
 Deg. of freedom    30
 Full point group                 C1      NOp   1
 Largest Abelian subgroup         C1      NOp   1
 Largest concise Abelian subgroup C1      NOp   1
                         Standard orientation:                         
 ---------------------------------------------------------------------
 Center     Atomic      Atomic             Coordinates (Angstroms)
 Number     Number       Type             X           Y           Z
 ---------------------------------------------------------------------
      1          6           0        0.337183    0.351285    0.421849
      2          6           0       -0.876765    0.959247   -0.111804
      3          6           0       -1.928729   -0.025384   -0.142680
      4          8           0        1.301330    0.195129   -0.415897
      5          8           0        2.420044   -0.548071    0.094584
      6          8           0       -1.798685   -1.215557    0.102510
      7          1           0        2.576290   -1.238235   -0.569954
      8          1           0        0.198941   -0.421122    1.176920
      9          1           0        0.867466    2.233337    0.650806
     10          1           0       -2.929385    0.380433   -0.425843
     11          1           0       -0.785378    1.677392   -0.910781
     12          1           0       -0.499581    2.205306    0.825089
 ---------------------------------------------------------------------
 Rotational constants (GHZ):           7.7411449           1.9876681           1.6802586
 Standard basis: 6-31+G(d) (6D, 7F)
 There are   126 symmetry adapted cartesian basis functions of A   symmetry.
 There are   126 symmetry adapted basis functions of A   symmetry.
   126 basis functions,   216 primitive gaussians,   126 cartesian basis functions
    24 alpha electrons       24 beta electrons
       nuclear repulsion energy       238.0892438439 Hartrees.
 NAtoms=   12 NActive=   12 NUniq=   12 SFac= 1.00D+00 NAtFMM=   60 NAOKFM=F Big=F
 Integral buffers will be    131072 words long.
 Raffenetti 2 integral format.
 Two-electron integral symmetry is turned on.
 One-electron integrals computed using PRISM.
 NBasis=   126 RedAO= T EigKep=  7.94D-05  NBF=   126
 NBsUse=   126 1.00D-06 EigRej= -1.00D+00 NBFU=   126
 ExpMin= 4.38D-02 ExpMax= 5.48D+03 ExpMxC= 8.25D+02 IAcc=3 IRadAn=         5 AccDes= 0.00D+00
 Harris functional with IExCor=  402 and IRadAn=       5 diagonalized for initial guess.
 HarFok:  IExCor=  402 AccDes= 0.00D+00 IRadAn=         5 IDoV= 1 UseB2=F ITyADJ=14
 ICtDFT=  3500011 ScaDFX=  1.000000  1.000000  1.000000  1.000000
 FoFCou: FMM=F IPFlag=           0 FMFlag=      100000 FMFlg1=           0
         NFxFlg=           0 DoJE=T BraDBF=F KetDBF=T FulRan=T
         wScrn=  0.000000 ICntrl=       500 IOpCl=  0 I1Cent=   200000004 NGrid=           0
         NMat0=    1 NMatS0=      1 NMatT0=    0 NMatD0=    1 NMtDS0=    0 NMtDT0=    0
 Petite list used in FoFCou.
 Keep R1 ints in memory in canonical form, NReq=47237537.
 Requested convergence on RMS density matrix=1.00D-08 within 128 cycles.
 Requested convergence on MAX density matrix=1.00D-06.
 Requested convergence on             energy=1.00D-06.
 No special actions if energy rises.
 EnCoef did     2 forward-backward iterations
 EnCoef did     4 forward-backward iterations
 SCF Done:  E(RB3LYP) =  -343.270672003     A.U. after   18 cycles
            NFock= 18  Conv=0.71D-08     -V/T= 2.0090
 DoSCS=F DFT=T ScalE2(SS,OS)=  1.000000  1.000000
 Range of M.O.s used for correlation:     1   126
 NBasis=   126 NAE=    24 NBE=    24 NFC=     0 NFV=     0
 NROrb=    126 NOA=    24 NOB=    24 NVA=   102 NVB=   102

 **** Warning!!: The largest alpha MO coefficient is  0.32505005D+02


 **** Warning!!: The smallest alpha delta epsilon is  0.89374353D-01

 Symmetrizing basis deriv contribution to polar:
 IMax=3 JMax=2 DiffMx= 0.00D+00
 G2DrvN: will do    13 centers at a time, making    1 passes.
 Calling FoFCou, ICntrl=  3107 FMM=F I1Cent=   0 AccDes= 0.00D+00.
 End of G2Drv F.D. properties file   721 does not exist.
 End of G2Drv F.D. properties file   722 does not exist.
 End of G2Drv F.D. properties file   788 does not exist.
          IDoAtm=111111111111
          Differentiating once with respect to electric field.
                with respect to dipole field.
          Differentiating once with respect to nuclear coordinates.
 Keep R1 ints in memory in canonical form, NReq=47193559.
          There are    39 degrees of freedom in the 1st order CPHF.  IDoFFX=6 NUNeed=     3.
     36 vectors produced by pass  0 Test12= 6.28D-15 2.56D-09 XBig12= 1.54D+02 7.28D+00.
 AX will form    36 AO Fock derivatives at one time.
     36 vectors produced by pass  1 Test12= 6.28D-15 2.56D-09 XBig12= 2.88D+01 1.13D+00.
     36 vectors produced by pass  2 Test12= 6.28D-15 2.56D-09 XBig12= 4.24D-01 7.98D-02.
     36 vectors produced by pass  3 Test12= 6.28D-15 2.56D-09 XBig12= 2.47D-03 6.85D-03.
     36 vectors produced by pass  4 Test12= 6.28D-15 2.56D-09 XBig12= 3.69D-06 2.57D-04.
     28 vectors produced by pass  5 Test12= 6.28D-15 2.56D-09 XBig12= 4.52D-09 7.57D-06.
      4 vectors produced by pass  6 Test12= 6.28D-15 2.56D-09 XBig12= 3.87D-12 2.30D-07.
      3 vectors produced by pass  7 Test12= 6.28D-15 2.56D-09 XBig12= 3.19D-15 8.16D-09.
 InvSVY:  IOpt=1 It=  1 EMax= 7.11D-15
 Solved reduced A of dimension   215 with    39 vectors.
 Isotropic polarizability for W=    0.000000       74.82 Bohr**3.
 End of Minotr F.D. properties file   721 does not exist.
 End of Minotr F.D. properties file   722 does not exist.
 End of Minotr F.D. properties file   788 does not exist.

 **********************************************************************

            Population analysis using the SCF Density.

 **********************************************************************

 Orbital symmetries:
       Occupied  (A) (A) (A) (A) (A) (A) (A) (A) (A) (A) (A) (A)
                 (A) (A) (A) (A) (A) (A) (A) (A) (A) (A) (A) (A)
       Virtual   (A) (A) (A) (A) (A) (A) (A) (A) (A) (A) (A) (A)
                 (A) (A) (A) (A) (A) (A) (A) (A) (A) (A) (A) (A)
                 (A) (A) (A) (A) (A) (A) (A) (A) (A) (A) (A) (A)
                 (A) (A) (A) (A) (A) (A) (A) (A) (A) (A) (A) (A)
                 (A) (A) (A) (A) (A) (A) (A) (A) (A) (A) (A) (A)
                 (A) (A) (A) (A) (A) (A) (A) (A) (A) (A) (A) (A)
                 (A) (A) (A) (A) (A) (A) (A) (A) (A) (A) (A) (A)
                 (A) (A) (A) (A) (A) (A) (A) (A) (A) (A) (A) (A)
                 (A) (A) (A) (A) (A) (A)
 The electronic state is 1-A.
 Alpha  occ. eigenvalues --  -19.32957 -19.27887 -19.15084 -10.36469 -10.27585
 Alpha  occ. eigenvalues --  -10.21343  -1.23466  -1.04905  -1.03038  -0.80832
 Alpha  occ. eigenvalues --   -0.68827  -0.63437  -0.59770  -0.57067  -0.51288
 Alpha  occ. eigenvalues --   -0.49692  -0.45213  -0.43874  -0.42081  -0.39860
 Alpha  occ. eigenvalues --   -0.36995  -0.33716  -0.26976  -0.21493
 Alpha virt. eigenvalues --   -0.12556  -0.06469  -0.04454  -0.00183   0.01802
 Alpha virt. eigenvalues --    0.02668   0.05073   0.05393   0.05474   0.07610
 Alpha virt. eigenvalues --    0.08830   0.09459   0.09697   0.11624   0.12445
 Alpha virt. eigenvalues --    0.13641   0.16160   0.17504   0.19648   0.20808
 Alpha virt. eigenvalues --    0.21222   0.22181   0.23350   0.23761   0.25452
 Alpha virt. eigenvalues --    0.25833   0.26725   0.27427   0.29179   0.30785
 Alpha virt. eigenvalues --    0.31674   0.34582   0.35531   0.38199   0.40155
 Alpha virt. eigenvalues --    0.48685   0.62762   0.64519   0.66600   0.69341
 Alpha virt. eigenvalues --    0.72222   0.75630   0.80094   0.80370   0.84019
 Alpha virt. eigenvalues --    0.91803   0.93266   0.95337   0.98647   1.01178
 Alpha virt. eigenvalues --    1.04316   1.05930   1.08639   1.10135   1.10716
 Alpha virt. eigenvalues --    1.13873   1.18169   1.19726   1.24322   1.26054
 Alpha virt. eigenvalues --    1.27804   1.28941   1.35190   1.38966   1.44651
 Alpha virt. eigenvalues --    1.46783   1.51292   1.54792   1.56565   1.61015
 Alpha virt. eigenvalues --    1.65828   1.73085   1.76471   1.78758   1.82048
 Alpha virt. eigenvalues --    1.83837   1.90096   1.94297   1.95093   2.05215
 Alpha virt. eigenvalues --    2.08432   2.15810   2.22637   2.27073   2.34364
 Alpha virt. eigenvalues --    2.39795   2.40763   2.46311   2.51483   2.61105
 Alpha virt. eigenvalues --    2.67299   2.84225   2.87964   2.96924   3.06314
 Alpha virt. eigenvalues --    3.10655   3.90311   4.13015   4.20129   4.28468
 Alpha virt. eigenvalues --    4.33410   4.48007
          Condensed to atoms (all electrons):
               1          2          3          4          5          6
     1  C    6.115102  -1.958426   1.039836  -0.027785   0.128814   0.101180
     2  C   -1.958426  12.093139  -3.562042   0.265717  -0.133640  -0.204763
     3  C    1.039836  -3.562042   7.575878  -0.161594   0.061518   0.369437
     4  O   -0.027785   0.265717  -0.161594   7.942098   0.011793   0.003309
     5  O    0.128814  -0.133640   0.061518   0.011793   8.234069  -0.005397
     6  O    0.101180  -0.204763   0.369437   0.003309  -0.005397   8.226847
     7  H   -0.006001   0.010287  -0.005036  -0.007924   0.180877   0.000028
     8  H    0.378816  -0.077791   0.029796  -0.048297   0.006608   0.003528
     9  H    0.504439  -0.582002   0.233667  -0.119559   0.018851  -0.000301
    10  H    0.040603  -0.153083   0.389498  -0.000044   0.000041  -0.058515
    11  H   -0.056834   0.386624  -0.019173  -0.001708   0.000395   0.002488
    12  H    0.120148  -0.072170   0.098157  -0.010634  -0.001502   0.001029
               7          8          9         10         11         12
     1  C   -0.006001   0.378816   0.504439   0.040603  -0.056834   0.120148
     2  C    0.010287  -0.077791  -0.582002  -0.153083   0.386624  -0.072170
     3  C   -0.005036   0.029796   0.233667   0.389498  -0.019173   0.098157
     4  O   -0.007924  -0.048297  -0.119559  -0.000044  -0.001708  -0.010634
     5  O    0.180877   0.006608   0.018851   0.000041   0.000395  -0.001502
     6  O    0.000028   0.003528  -0.000301  -0.058515   0.002488   0.001029
     7  H    0.339860   0.000215  -0.000248  -0.000000   0.000014  -0.000021
     8  H    0.000215   0.434621   0.001623   0.000188   0.003191  -0.003308
     9  H   -0.000248   0.001623   0.936779  -0.000142  -0.006591   0.148077
    10  H   -0.000000   0.000188  -0.000142   0.627868   0.001271  -0.000627
    11  H    0.000014   0.003191  -0.006591   0.001271   0.452507  -0.025747
    12  H   -0.000021  -0.003308   0.148077  -0.000627  -0.025747   0.558919
 Mulliken charges:
               1
     1  C   -0.379891
     2  C   -0.011850
     3  C   -0.049943
     4  O    0.154628
     5  O   -0.502426
     6  O   -0.438869
     7  H    0.487950
     8  H    0.270810
     9  H   -0.134594
    10  H    0.152943
    11  H    0.263563
    12  H    0.187680
 Sum of Mulliken charges =  -0.00000
 Mulliken charges with hydrogens summed into heavy atoms:
               1
     1  C   -0.243675
     2  C    0.439393
     3  C    0.103000
     4  O    0.154628
     5  O   -0.014476
     6  O   -0.438869
 APT charges:
               1
     1  C    0.760956
     2  C   -0.595776
     3  C    0.983911
     4  O   -0.169758
     5  O   -0.452750
     6  O   -0.786360
     7  H    0.302233
     8  H    0.113972
     9  H   -0.557167
    10  H   -0.074589
    11  H    0.079240
    12  H    0.396086
 Sum of APT charges =  -0.00000
 APT charges with hydrogens summed into heavy atoms:
               1
     1  C    0.317762
     2  C   -0.120450
     3  C    0.909322
     4  O   -0.169758
     5  O   -0.150516
     6  O   -0.786360
 Electronic spatial extent (au):  <R**2>=            703.7213
 Charge=             -0.0000 electrons
 Dipole moment (field-independent basis, Debye):
    X=              1.5221    Y=             -0.6412    Z=             -1.3560  Tot=              2.1370
 Quadrupole moment (field-independent basis, Debye-Ang):
   XX=            -38.0816   YY=            -42.3236   ZZ=            -36.5277
   XY=            -11.9340   XZ=             -2.4570   YZ=             -0.3886
 Traceless Quadrupole moment (field-independent basis, Debye-Ang):
   XX=              0.8960   YY=             -3.3460   ZZ=              2.4500
   XY=            -11.9340   XZ=             -2.4570   YZ=             -0.3886
 Octapole moment (field-independent basis, Debye-Ang**2):
  XXX=             17.9198  YYY=            -21.7472  ZZZ=             -4.4720  XYY=             10.6157
  XXY=            -11.0877  XXZ=            -14.0768  XZZ=              3.3268  YZZ=             -7.3159
  YYZ=             -8.7850  XYZ=              2.6920
 Hexadecapole moment (field-independent basis, Debye-Ang**3):
 XXXX=           -587.4193 YYYY=           -259.5570 ZZZZ=            -71.0583 XXXY=            -58.7732
 XXXZ=            -22.4618 YYYX=            -43.0718 YYYZ=            -12.7754 ZZZX=             -7.6757
 ZZZY=             -9.0696 XXYY=           -143.9879 XXZZ=           -111.2318 YYZZ=            -51.7086
 XXYZ=              7.2177 YYXZ=            -10.1684 ZZXY=             -7.3891
 N-N= 2.380892438439D+02 E-N=-1.279118224961D+03  KE= 3.402229534734D+02
  Exact polarizability:  97.089   4.265  83.927   4.449   6.082  43.436
 Approx polarizability: 149.935  17.620 155.998   7.137  16.535  64.542
 Calling FoFJK, ICntrl=    100127 FMM=F ISym2X=0 I1Cent= 0 IOpClX= 0 NMat=1 NMatS=1 NMatT=0.
 ***** Axes restored to original set *****
 -------------------------------------------------------------------
 Center     Atomic                   Forces (Hartrees/Bohr)
 Number     Number              X              Y              Z
 -------------------------------------------------------------------
      1        6          -0.012845880   -0.006374343   -0.018085699
      2        6          -0.016683835   -0.010580173    0.016885326
      3        6          -0.012321034   -0.031930329   -0.016910503
      4        8           0.009137390   -0.000909039   -0.024199080
      5        8          -0.003720843    0.018878661    0.021161560
      6        8           0.013021608    0.012607703    0.013326790
      7        1           0.004154888   -0.007442724   -0.008124699
      8        1          -0.016602459    0.011716545    0.010291182
      9        1          -0.000517860   -0.010182077    0.025955550
     10        1           0.001988174    0.002099444    0.001351879
     11        1           0.001113026   -0.002707919   -0.005808085
     12        1           0.033276824    0.024824252   -0.015844221
 -------------------------------------------------------------------
 Cartesian Forces:  Max     0.033276824 RMS     0.015020182
 FormGI is forming the generalized inverse of G from B-inverse, IUseBI=4.

 GradGradGradGradGradGradGradGradGradGradGradGradGradGradGradGradGradGrad
 Berny optimization.
 Internal  Forces:  Max     0.032328476 RMS     0.013707522
 Search for a saddle point.
 Step number   1 out of a maximum of  100
 All quantities printed in internal units (Hartrees-Bohrs-Radians)
 Swapping is turned off.
 Second derivative matrix not updated -- analytic derivatives used.
 ITU=  0
     Eigenvalues ---   -0.53382  -0.02044   0.00240   0.00355   0.00957
     Eigenvalues ---    0.01365   0.01736   0.02735   0.03135   0.03594
     Eigenvalues ---    0.04928   0.06759   0.08050   0.10417   0.11518
     Eigenvalues ---    0.15064   0.16618   0.19490   0.21016   0.23061
     Eigenvalues ---    0.24163   0.29668   0.30408   0.33997   0.36624
     Eigenvalues ---    0.37112   0.37949   0.50856   0.57910   0.83277
 Eigenvectors required to have negative eigenvalues:
                          R6        A15       D15       D3        R1
   1                   -0.51087  -0.43450  -0.30516  -0.27622   0.22880
                          A4        R11       D1        R2        A5
   1                    0.21776   0.18631  -0.16154   0.15917  -0.15913
 RFO step:  Lambda0=1.775291135D-03 Lambda=-5.55179283D-02.
 Linear search not attempted -- option 19 set.
 Maximum step size (   0.300) exceeded in Quadratic search.
    -- Step size scaled by   0.348
 Iteration  1 RMS(Cart)=  0.07543202 RMS(Int)=  0.00726181
 Iteration  2 RMS(Cart)=  0.00686035 RMS(Int)=  0.00034349
 Iteration  3 RMS(Cart)=  0.00002913 RMS(Int)=  0.00034323
 Iteration  4 RMS(Cart)=  0.00000000 RMS(Int)=  0.00034323
 Variable       Old X    -DE/DX   Delta X   Delta X   Delta X     New X
                                 (Linear)    (Quad)   (Total)
    R1        2.75672   0.00833   0.00000  -0.01258  -0.01258   2.74414
    R2        2.43165   0.01633   0.00000   0.01212   0.01212   2.44376
    R3        2.05785   0.00172   0.00000   0.00007   0.00007   2.05793
    R4        2.72349   0.01068   0.00000  -0.00459  -0.00459   2.71890
    R5        2.03744   0.00500   0.00000   0.00566   0.00566   2.04310
    R6        3.03105  -0.02411   0.00000   0.05054   0.05054   3.08159
    R7        2.30944   0.02044   0.00000   0.00891   0.00891   2.31836
    R8        2.10955  -0.00242   0.00000  -0.00335  -0.00335   2.10620
    R9        2.71520   0.01375   0.00000   0.02535   0.02535   2.74055
   R10        1.83445   0.00667   0.00000   0.00403   0.00403   1.83848
   R11        2.60479  -0.01910   0.00000  -0.24192  -0.24192   2.36287
    A1        2.02187   0.01014   0.00000   0.01016   0.00990   2.03177
    A2        2.03043   0.00777   0.00000   0.02261   0.02243   2.05286
    A3        2.04931  -0.01129   0.00000  -0.01060  -0.01098   2.03833
    A4        1.90765   0.03233   0.00000   0.06122   0.06078   1.96843
    A5        2.06934  -0.01759   0.00000  -0.02328  -0.02335   2.04599
    A6        1.48509  -0.02349   0.00000  -0.11373  -0.11362   1.37147
    A7        2.09562  -0.01016   0.00000  -0.00771  -0.00829   2.08733
    A8        2.36729  -0.01170   0.00000   0.00653   0.00736   2.37465
    A9        1.46608   0.01828   0.00000   0.03995   0.03905   1.50513
   A10        2.19368  -0.00983   0.00000  -0.00197  -0.00201   2.19167
   A11        1.99474   0.00706   0.00000   0.00120   0.00115   1.99589
   A12        2.09475   0.00279   0.00000   0.00087   0.00083   2.09558
   A13        1.99858  -0.01597   0.00000  -0.01570  -0.01570   1.98288
   A14        1.82332  -0.01771   0.00000  -0.02711  -0.02711   1.79621
   A15        1.74687   0.03007   0.00000   0.08208   0.08208   1.82894
    D1        1.93930   0.00028   0.00000  -0.00667  -0.00631   1.93299
    D2       -0.55071  -0.00339   0.00000  -0.04642  -0.04590  -0.59661
    D3       -1.95450  -0.01430   0.00000  -0.03219  -0.03270  -1.98720
    D4       -0.57675  -0.00561   0.00000  -0.03634  -0.03623  -0.61298
    D5       -3.06676  -0.00929   0.00000  -0.07609  -0.07582   3.14061
    D6        1.81264  -0.02019   0.00000  -0.06187  -0.06262   1.75001
    D7       -3.01778  -0.00398   0.00000  -0.02070  -0.02048  -3.03827
    D8       -0.50870   0.00912   0.00000   0.02165   0.02144  -0.48726
    D9       -0.12442   0.00220   0.00000  -0.01234  -0.01279  -0.13721
   D10        3.02362  -0.00289   0.00000  -0.02937  -0.02982   2.99381
   D11        2.35420   0.00308   0.00000   0.02194   0.02223   2.37643
   D12       -0.78094  -0.00201   0.00000   0.00491   0.00520  -0.77574
   D13       -1.92559   0.00904   0.00000   0.09078   0.09094  -1.83465
   D14        1.22245   0.00394   0.00000   0.07375   0.07391   1.29636
   D15        0.69152  -0.02603   0.00000  -0.05877  -0.05949   0.63203
   D16        2.65925  -0.00765   0.00000  -0.08863  -0.08849   2.57076
   D17       -1.39318  -0.00921   0.00000  -0.04801  -0.04743  -1.44062
   D18        2.24341   0.00170   0.00000   0.00417   0.00417   2.24758
         Item               Value     Threshold  Converged?
 Maximum Force            0.032328     0.000450     NO 
 RMS     Force            0.013708     0.000300     NO 
 Maximum Displacement     0.221715     0.001800     NO 
 RMS     Displacement     0.076444     0.001200     NO 
 Predicted change in Energy=-1.985755D-02
 GradGradGradGradGradGradGradGradGradGradGradGradGradGradGradGradGradGrad

                          Input orientation:                          
 ---------------------------------------------------------------------
 Center     Atomic      Atomic             Coordinates (Angstroms)
 Number     Number       Type             X           Y           Z
 ---------------------------------------------------------------------
      1          6           0        0.880434    1.550297   -1.337969
      2          6           0        0.702444    0.136508   -1.617643
      3          6           0        1.812050   -0.663617   -1.171926
      4          8           0        1.066659    2.319934   -2.360368
      5          8           0        1.371995    3.692679   -2.006070
      6          8           0        2.874559   -0.231205   -0.736969
      7          1           0        2.177543    3.875849   -2.519919
      8          1           0        1.397035    1.821950   -0.418585
      9          1           0       -0.974042    1.694593   -1.457966
     10          1           0        1.641447   -1.763100   -1.237179
     11          1           0        0.187933   -0.125984   -2.531585
     12          1           0       -0.766014    0.537317   -1.032667
 ---------------------------------------------------------------------
                    Distance matrix (angstroms):
                    1          2          3          4          5
     1  C    0.000000
     2  C    1.452135   0.000000
     3  C    2.407674   1.438781   0.000000
     4  O    1.293183   2.334875   3.296905   0.000000
     5  O    2.297345   3.639440   4.457215   1.450236   0.000000
     6  O    2.740708   2.372526   1.226822   3.523100   4.389212
     7  H    2.913364   4.119792   4.749465   1.918434   0.972882
     8  H    1.089008   2.181951   2.630172   2.031664   2.453643
     9  H    1.863948   2.294283   3.661323   2.317292   3.129961
    10  H    3.401162   2.152903   1.114552   4.273536   5.516278
    11  H    2.171220   1.081163   2.185287   2.604609   4.032413
    12  H    1.957071   1.630709   2.847463   2.880834   3.933816
                    6          7          8          9         10
     6  O    0.000000
     7  H    4.531294   0.000000
     8  H    2.549488   3.040278   0.000000
     9  H    4.363515   3.977199   2.592015   0.000000
    10  H    2.029157   5.807802   3.685433   4.341103   0.000000
    11  H    3.232595   4.469155   3.117874   2.411917   2.543293
    12  H    3.732537   4.692786   2.589625   1.250378   3.336107
                   11         12
    11  H    0.000000
    12  H    1.896506   0.000000
 Stoichiometry    C3H6O3
 Framework group  C1[X(C3H6O3)]
 Deg. of freedom    30
 Full point group                 C1      NOp   1
 Largest Abelian subgroup         C1      NOp   1
 Largest concise Abelian subgroup C1      NOp   1
                         Standard orientation:                         
 ---------------------------------------------------------------------
 Center     Atomic      Atomic             Coordinates (Angstroms)
 Number     Number       Type             X           Y           Z
 ---------------------------------------------------------------------
      1          6           0        0.359420    0.353787    0.401043
      2          6           0       -0.862608    0.938198   -0.122223
      3          6           0       -1.961989    0.010177   -0.137370
      4          8           0        1.316565    0.165714   -0.447970
      5          8           0        2.454083   -0.542585    0.106603
      6          8           0       -1.887284   -1.188873    0.111208
      7          1           0        2.597179   -1.260085   -0.534659
      8          1           0        0.266661   -0.374493    1.205371
      9          1           0        0.907493    2.097970    0.764007
     10          1           0       -2.945949    0.467355   -0.392392
     11          1           0       -0.763082    1.661137   -0.919948
     12          1           0       -0.338153    2.121106    0.870192
 ---------------------------------------------------------------------
 Rotational constants (GHZ):           7.9967257           1.9078334           1.6395993
 Standard basis: 6-31+G(d) (6D, 7F)
 There are   126 symmetry adapted cartesian basis functions of A   symmetry.
 There are   126 symmetry adapted basis functions of A   symmetry.
   126 basis functions,   216 primitive gaussians,   126 cartesian basis functions
    24 alpha electrons       24 beta electrons
       nuclear repulsion energy       236.8283836188 Hartrees.
 NAtoms=   12 NActive=   12 NUniq=   12 SFac= 1.00D+00 NAtFMM=   60 NAOKFM=F Big=F
 Integral buffers will be    131072 words long.
 Raffenetti 2 integral format.
 Two-electron integral symmetry is turned on.
 One-electron integrals computed using PRISM.
 NBasis=   126 RedAO= T EigKep=  7.89D-05  NBF=   126
 NBsUse=   126 1.00D-06 EigRej= -1.00D+00 NBFU=   126
 Initial guess from the checkpoint file:  "/scratch/bell/zhao922/YARP/paper-example/KHP-network/pp_0/TS-folder/Gau-4813.chk"
 B after Tr=     0.000000   -0.000000   -0.000000
         Rot=    0.999970   -0.000007   -0.001374    0.007561 Ang=  -0.88 deg.
 ExpMin= 4.38D-02 ExpMax= 5.48D+03 ExpMxC= 8.25D+02 IAcc=3 IRadAn=         5 AccDes= 0.00D+00
 Harris functional with IExCor=  402 and IRadAn=       5 diagonalized for initial guess.
 HarFok:  IExCor=  402 AccDes= 0.00D+00 IRadAn=         5 IDoV= 1 UseB2=F ITyADJ=14
 ICtDFT=  3500011 ScaDFX=  1.000000  1.000000  1.000000  1.000000
 FoFCou: FMM=F IPFlag=           0 FMFlag=      100000 FMFlg1=           0
         NFxFlg=           0 DoJE=T BraDBF=F KetDBF=T FulRan=T
         wScrn=  0.000000 ICntrl=       500 IOpCl=  0 I1Cent=   200000004 NGrid=           0
         NMat0=    1 NMatS0=      1 NMatT0=    0 NMatD0=    1 NMtDS0=    0 NMtDT0=    0
 Petite list used in FoFCou.
 Keep R1 ints in memory in canonical form, NReq=47237537.
 Requested convergence on RMS density matrix=1.00D-08 within 128 cycles.
 Requested convergence on MAX density matrix=1.00D-06.
 Requested convergence on             energy=1.00D-06.
 No special actions if energy rises.
 SCF Done:  E(RB3LYP) =  -343.290460826     A.U. after   14 cycles
            NFock= 14  Conv=0.93D-08     -V/T= 2.0091
 DoSCS=F DFT=T ScalE2(SS,OS)=  1.000000  1.000000
 Range of M.O.s used for correlation:     1   126
 NBasis=   126 NAE=    24 NBE=    24 NFC=     0 NFV=     0
 NROrb=    126 NOA=    24 NOB=    24 NVA=   102 NVB=   102

 **** Warning!!: The largest alpha MO coefficient is  0.31370378D+02

 Symmetrizing basis deriv contribution to polar:
 IMax=3 JMax=2 DiffMx= 0.00D+00
 G2DrvN: will do    13 centers at a time, making    1 passes.
 Calling FoFCou, ICntrl=  3107 FMM=F I1Cent=   0 AccDes= 0.00D+00.
 End of G2Drv F.D. properties file   721 does not exist.
 End of G2Drv F.D. properties file   722 does not exist.
 End of G2Drv F.D. properties file   788 does not exist.
          IDoAtm=111111111111
          Differentiating once with respect to electric field.
                with respect to dipole field.
          Differentiating once with respect to nuclear coordinates.
 Keep R1 ints in memory in canonical form, NReq=47193559.
          There are    39 degrees of freedom in the 1st order CPHF.  IDoFFX=6 NUNeed=     3.
     36 vectors produced by pass  0 Test12= 6.28D-15 2.56D-09 XBig12= 1.46D+02 7.03D+00.
 AX will form    36 AO Fock derivatives at one time.
     36 vectors produced by pass  1 Test12= 6.28D-15 2.56D-09 XBig12= 2.38D+01 1.11D+00.
     36 vectors produced by pass  2 Test12= 6.28D-15 2.56D-09 XBig12= 4.08D-01 8.79D-02.
     36 vectors produced by pass  3 Test12= 6.28D-15 2.56D-09 XBig12= 2.34D-03 7.89D-03.
     36 vectors produced by pass  4 Test12= 6.28D-15 2.56D-09 XBig12= 3.44D-06 2.08D-04.
     28 vectors produced by pass  5 Test12= 6.28D-15 2.56D-09 XBig12= 3.89D-09 8.55D-06.
      4 vectors produced by pass  6 Test12= 6.28D-15 2.56D-09 XBig12= 3.20D-12 2.06D-07.
      3 vectors produced by pass  7 Test12= 6.28D-15 2.56D-09 XBig12= 2.18D-15 6.79D-09.
 InvSVY:  IOpt=1 It=  1 EMax= 4.44D-15
 Solved reduced A of dimension   215 with    39 vectors.
 Isotropic polarizability for W=    0.000000       72.66 Bohr**3.
 End of Minotr F.D. properties file   721 does not exist.
 End of Minotr F.D. properties file   722 does not exist.
 End of Minotr F.D. properties file   788 does not exist.
 Calling FoFJK, ICntrl=    100127 FMM=F ISym2X=0 I1Cent= 0 IOpClX= 0 NMat=1 NMatS=1 NMatT=0.
 ***** Axes restored to original set *****
 -------------------------------------------------------------------
 Center     Atomic                   Forces (Hartrees/Bohr)
 Number     Number              X              Y              Z
 -------------------------------------------------------------------
      1        6          -0.006076205   -0.006762750   -0.015128306
      2        6          -0.010998874   -0.011659791    0.008733827
      3        6          -0.006430017   -0.018786025   -0.011701807
      4        8           0.007528021   -0.001114116   -0.017322497
      5        8          -0.003800690    0.014470503    0.015385713
      6        8           0.008013939    0.008023374    0.011333401
      7        1           0.003073463   -0.005435224   -0.005740115
      8        1          -0.016096780    0.008660097    0.007827842
      9        1           0.000154558   -0.014963255    0.025088740
     10        1           0.001880610    0.001520579   -0.000140126
     11        1          -0.001232751   -0.003603483   -0.002548737
     12        1           0.023984723    0.029650090   -0.015787934
 -------------------------------------------------------------------
 Cartesian Forces:  Max     0.029650090 RMS     0.012136619
 FormGI is forming the generalized inverse of G from B-inverse, IUseBI=4.

 GradGradGradGradGradGradGradGradGradGradGradGradGradGradGradGradGradGrad
 Berny optimization.
 Internal  Forces:  Max     0.026647458 RMS     0.010865942
 Search for a saddle point.
 Step number   2 out of a maximum of  100
 All quantities printed in internal units (Hartrees-Bohrs-Radians)
 Swapping is turned off.
 Second derivative matrix not updated -- analytic derivatives used.
 ITU=  0  0
     Eigenvalues ---   -0.53912  -0.01399   0.00105   0.00332   0.00979
     Eigenvalues ---    0.01324   0.01936   0.02816   0.03181   0.03725
     Eigenvalues ---    0.04865   0.06464   0.07611   0.09322   0.11446
     Eigenvalues ---    0.14422   0.15718   0.18951   0.20287   0.21544
     Eigenvalues ---    0.23638   0.29883   0.30545   0.33770   0.36484
     Eigenvalues ---    0.36958   0.37476   0.50159   0.56294   0.80983
 Eigenvectors required to have negative eigenvalues:
                          R6        A15       D15       D3        R1
   1                    0.52880   0.45797   0.27309   0.26230  -0.25499
                          A4        R11       D1        D2        A5
   1                   -0.20952  -0.20562   0.15139   0.14999   0.14583
 RFO step:  Lambda0=4.557188246D-04 Lambda=-4.75101345D-02.
 Linear search not attempted -- option 19 set.
 Maximum step size (   0.300) exceeded in Quadratic search.
    -- Step size scaled by   0.330
 Iteration  1 RMS(Cart)=  0.07476636 RMS(Int)=  0.00768072
 Iteration  2 RMS(Cart)=  0.00660362 RMS(Int)=  0.00032465
 Iteration  3 RMS(Cart)=  0.00002808 RMS(Int)=  0.00032359
 Iteration  4 RMS(Cart)=  0.00000000 RMS(Int)=  0.00032359
 Variable       Old X    -DE/DX   Delta X   Delta X   Delta X     New X
                                 (Linear)    (Quad)   (Total)
    R1        2.74414   0.00479   0.00000  -0.00474  -0.00474   2.73939
    R2        2.44376   0.01176   0.00000   0.01709   0.01709   2.46085
    R3        2.05793   0.00113   0.00000  -0.00053  -0.00053   2.05740
    R4        2.71890   0.00765   0.00000  -0.00528  -0.00528   2.71362
    R5        2.04310   0.00362   0.00000   0.00400   0.00400   2.04710
    R6        3.08159  -0.01479   0.00000   0.08031   0.08031   3.16191
    R7        2.31836   0.01379   0.00000   0.00568   0.00568   2.32404
    R8        2.10620  -0.00178   0.00000  -0.00172  -0.00172   2.10448
    R9        2.74055   0.01076   0.00000   0.02318   0.02318   2.76373
   R10        1.83848   0.00455   0.00000   0.00237   0.00237   1.84085
   R11        2.36287  -0.02241   0.00000  -0.24339  -0.24339   2.11948
    A1        2.03177   0.00763   0.00000  -0.00088  -0.00091   2.03086
    A2        2.05286   0.00600   0.00000   0.01723   0.01722   2.07007
    A3        2.03833  -0.00817   0.00000  -0.00901  -0.00906   2.02927
    A4        1.96843   0.02377   0.00000   0.05958   0.05914   2.02757
    A5        2.04599  -0.01228   0.00000  -0.02060  -0.02085   2.02515
    A6        1.37147  -0.02027   0.00000  -0.11978  -0.11943   1.25204
    A7        2.08733  -0.00723   0.00000  -0.00679  -0.00764   2.07969
    A8        2.37465  -0.00723   0.00000   0.01128   0.01206   2.38671
    A9        1.50513   0.01381   0.00000   0.03534   0.03443   1.53956
   A10        2.19167  -0.00631   0.00000   0.00381   0.00379   2.19546
   A11        1.99589   0.00464   0.00000  -0.00280  -0.00282   1.99308
   A12        2.09558   0.00164   0.00000  -0.00114  -0.00116   2.09442
   A13        1.98288  -0.01146   0.00000  -0.01189  -0.01189   1.97099
   A14        1.79621  -0.01305   0.00000  -0.01984  -0.01984   1.77638
   A15        1.82894   0.02665   0.00000   0.04637   0.04637   1.87532
    D1        1.93299   0.00156   0.00000  -0.02416  -0.02389   1.90910
    D2       -0.59661  -0.00264   0.00000  -0.07048  -0.07014  -0.66675
    D3       -1.98720  -0.01104   0.00000  -0.05070  -0.05124  -2.03844
    D4       -0.61298  -0.00473   0.00000  -0.03319  -0.03297  -0.64595
    D5        3.14061  -0.00893   0.00000  -0.07951  -0.07922   3.06139
    D6        1.75001  -0.01732   0.00000  -0.05974  -0.06032   1.68969
    D7       -3.03827  -0.00391   0.00000  -0.00804  -0.00798  -3.04625
    D8       -0.48726   0.00718   0.00000   0.00999   0.00994  -0.47733
    D9       -0.13721   0.00070   0.00000  -0.01433  -0.01479  -0.15200
   D10        2.99381  -0.00345   0.00000  -0.02717  -0.02762   2.96618
   D11        2.37643   0.00344   0.00000   0.02868   0.02895   2.40538
   D12       -0.77574  -0.00072   0.00000   0.01585   0.01612  -0.75963
   D13       -1.83465   0.00988   0.00000   0.09888   0.09908  -1.73557
   D14        1.29636   0.00573   0.00000   0.08605   0.08625   1.38261
   D15        0.63203  -0.01970   0.00000  -0.06126  -0.06175   0.57028
   D16        2.57076  -0.00745   0.00000  -0.09651  -0.09652   2.47424
   D17       -1.44062  -0.00705   0.00000  -0.05275  -0.05225  -1.49287
   D18        2.24758   0.00164   0.00000  -0.00157  -0.00157   2.24601
         Item               Value     Threshold  Converged?
 Maximum Force            0.026647     0.000450     NO 
 RMS     Force            0.010866     0.000300     NO 
 Maximum Displacement     0.229023     0.001800     NO 
 RMS     Displacement     0.075444     0.001200     NO 
 Predicted change in Energy=-1.736653D-02
 GradGradGradGradGradGradGradGradGradGradGradGradGradGradGradGradGradGrad

                          Input orientation:                          
 ---------------------------------------------------------------------
 Center     Atomic      Atomic             Coordinates (Angstroms)
 Number     Number       Type             X           Y           Z
 ---------------------------------------------------------------------
      1          6           0        0.853479    1.538593   -1.367106
      2          6           0        0.738487    0.118895   -1.636640
      3          6           0        1.820893   -0.703370   -1.173683
      4          8           0        1.076804    2.306061   -2.395166
      5          8           0        1.305609    3.702286   -2.024880
      6          8           0        2.886522   -0.297370   -0.713167
      7          1           0        2.138021    3.897925   -2.491523
      8          1           0        1.294948    1.856025   -0.423882
      9          1           0       -0.863235    1.716345   -1.380540
     10          1           0        1.622608   -1.797362   -1.237447
     11          1           0        0.224063   -0.151316   -2.550887
     12          1           0       -0.726157    0.658510   -1.033926
 ---------------------------------------------------------------------
                    Distance matrix (angstroms):
                    1          2          3          4          5
     1  C    0.000000
     2  C    1.449625   0.000000
     3  C    2.449429   1.435984   0.000000
     4  O    1.302225   2.339555   3.332021   0.000000
     5  O    2.306222   3.648706   4.516621   1.462501   0.000000
     6  O    2.816320   2.374896   1.229827   3.589158   4.496346
     7  H    2.912183   4.119537   4.796790   1.915593   0.974135
     8  H    1.088729   2.190445   2.718330   2.033736   2.443766
     9  H    1.725944   2.276609   3.619717   2.267374   3.010485
    10  H    3.425925   2.147804   1.113643   4.298406   5.564770
    11  H    2.157149   1.083279   2.179753   2.605786   4.036914
    12  H    1.838696   1.673210   2.891663   2.796081   3.791390
                    6          7          8          9         10
     6  O    0.000000
     7  H    4.617716   0.000000
     8  H    2.693307   3.025768   0.000000
     9  H    4.308261   3.873127   2.364838   0.000000
    10  H    2.030351   5.854456   3.757191   4.306510   0.000000
    11  H    3.238400   4.479187   3.114540   2.457659   2.527947
    12  H    3.750738   4.563103   2.427150   1.121582   3.404324
                   11         12
    11  H    0.000000
    12  H    1.964664   0.000000
 Stoichiometry    C3H6O3
 Framework group  C1[X(C3H6O3)]
 Deg. of freedom    30
 Full point group                 C1      NOp   1
 Largest Abelian subgroup         C1      NOp   1
 Largest concise Abelian subgroup C1      NOp   1
                         Standard orientation:                         
 ---------------------------------------------------------------------
 Center     Atomic      Atomic             Coordinates (Angstroms)
 Number     Number       Type             X           Y           Z
 ---------------------------------------------------------------------
      1          6           0        0.381610    0.367253    0.391707
      2          6           0       -0.852801    0.917635   -0.132433
      3          6           0       -1.987623    0.037737   -0.135412
      4          8           0        1.325582    0.136117   -0.475058
      5          8           0        2.485889   -0.533856    0.111228
      6          8           0       -1.965949   -1.164859    0.121043
      7          1           0        2.608818   -1.285988   -0.495504
      8          1           0        0.330278   -0.312127    1.240905
      9          1           0        0.933033    1.939537    0.841970
     10          1           0       -2.952802    0.538496   -0.375977
     11          1           0       -0.748693    1.647389   -0.926231
     12          1           0       -0.181921    2.037728    0.913962
 ---------------------------------------------------------------------
 Rotational constants (GHZ):           8.2332294           1.8407566           1.6052212
 Standard basis: 6-31+G(d) (6D, 7F)
 There are   126 symmetry adapted cartesian basis functions of A   symmetry.
 There are   126 symmetry adapted basis functions of A   symmetry.
   126 basis functions,   216 primitive gaussians,   126 cartesian basis functions
    24 alpha electrons       24 beta electrons
       nuclear repulsion energy       235.7875347321 Hartrees.
 NAtoms=   12 NActive=   12 NUniq=   12 SFac= 1.00D+00 NAtFMM=   60 NAOKFM=F Big=F
 Integral buffers will be    131072 words long.
 Raffenetti 2 integral format.
 Two-electron integral symmetry is turned on.
 One-electron integrals computed using PRISM.
 NBasis=   126 RedAO= T EigKep=  7.97D-05  NBF=   126
 NBsUse=   126 1.00D-06 EigRej= -1.00D+00 NBFU=   126
 Initial guess from the checkpoint file:  "/scratch/bell/zhao922/YARP/paper-example/KHP-network/pp_0/TS-folder/Gau-4813.chk"
 B after Tr=    -0.000000   -0.000000    0.000000
         Rot=    0.999979    0.000945   -0.001435    0.006287 Ang=   0.75 deg.
 ExpMin= 4.38D-02 ExpMax= 5.48D+03 ExpMxC= 8.25D+02 IAcc=3 IRadAn=         5 AccDes= 0.00D+00
 Harris functional with IExCor=  402 and IRadAn=       5 diagonalized for initial guess.
 HarFok:  IExCor=  402 AccDes= 0.00D+00 IRadAn=         5 IDoV= 1 UseB2=F ITyADJ=14
 ICtDFT=  3500011 ScaDFX=  1.000000  1.000000  1.000000  1.000000
 FoFCou: FMM=F IPFlag=           0 FMFlag=      100000 FMFlg1=           0
         NFxFlg=           0 DoJE=T BraDBF=F KetDBF=T FulRan=T
         wScrn=  0.000000 ICntrl=       500 IOpCl=  0 I1Cent=   200000004 NGrid=           0
         NMat0=    1 NMatS0=      1 NMatT0=    0 NMatD0=    1 NMtDS0=    0 NMtDT0=    0
 Petite list used in FoFCou.
 Keep R1 ints in memory in canonical form, NReq=47237537.
 Requested convergence on RMS density matrix=1.00D-08 within 128 cycles.
 Requested convergence on MAX density matrix=1.00D-06.
 Requested convergence on             energy=1.00D-06.
 No special actions if energy rises.
 SCF Done:  E(RB3LYP) =  -343.307515717     A.U. after   14 cycles
            NFock= 14  Conv=0.67D-08     -V/T= 2.0091
 DoSCS=F DFT=T ScalE2(SS,OS)=  1.000000  1.000000
 Range of M.O.s used for correlation:     1   126
 NBasis=   126 NAE=    24 NBE=    24 NFC=     0 NFV=     0
 NROrb=    126 NOA=    24 NOB=    24 NVA=   102 NVB=   102

 **** Warning!!: The largest alpha MO coefficient is  0.31327171D+02

 Symmetrizing basis deriv contribution to polar:
 IMax=3 JMax=2 DiffMx= 0.00D+00
 G2DrvN: will do    13 centers at a time, making    1 passes.
 Calling FoFCou, ICntrl=  3107 FMM=F I1Cent=   0 AccDes= 0.00D+00.
 End of G2Drv F.D. properties file   721 does not exist.
 End of G2Drv F.D. properties file   722 does not exist.
 End of G2Drv F.D. properties file   788 does not exist.
          IDoAtm=111111111111
          Differentiating once with respect to electric field.
                with respect to dipole field.
          Differentiating once with respect to nuclear coordinates.
 Keep R1 ints in memory in canonical form, NReq=47193559.
          There are    39 degrees of freedom in the 1st order CPHF.  IDoFFX=6 NUNeed=     3.
     36 vectors produced by pass  0 Test12= 6.28D-15 2.56D-09 XBig12= 1.44D+02 6.39D+00.
 AX will form    36 AO Fock derivatives at one time.
     36 vectors produced by pass  1 Test12= 6.28D-15 2.56D-09 XBig12= 2.28D+01 9.51D-01.
     36 vectors produced by pass  2 Test12= 6.28D-15 2.56D-09 XBig12= 4.24D-01 1.08D-01.
     36 vectors produced by pass  3 Test12= 6.28D-15 2.56D-09 XBig12= 2.46D-03 8.75D-03.
     36 vectors produced by pass  4 Test12= 6.28D-15 2.56D-09 XBig12= 3.82D-06 2.26D-04.
     28 vectors produced by pass  5 Test12= 6.28D-15 2.56D-09 XBig12= 4.49D-09 8.65D-06.
      4 vectors produced by pass  6 Test12= 6.28D-15 2.56D-09 XBig12= 3.59D-12 2.12D-07.
      2 vectors produced by pass  7 Test12= 6.28D-15 2.56D-09 XBig12= 2.69D-15 7.24D-09.
 InvSVY:  IOpt=1 It=  1 EMax= 7.11D-15
 Solved reduced A of dimension   214 with    39 vectors.
 Isotropic polarizability for W=    0.000000       71.11 Bohr**3.
 End of Minotr F.D. properties file   721 does not exist.
 End of Minotr F.D. properties file   722 does not exist.
 End of Minotr F.D. properties file   788 does not exist.
 Calling FoFJK, ICntrl=    100127 FMM=F ISym2X=0 I1Cent= 0 IOpClX= 0 NMat=1 NMatS=1 NMatT=0.
 ***** Axes restored to original set *****
 -------------------------------------------------------------------
 Center     Atomic                   Forces (Hartrees/Bohr)
 Number     Number              X              Y              Z
 -------------------------------------------------------------------
      1        6          -0.002342821   -0.006151014   -0.011912484
      2        6          -0.007278524   -0.012573882    0.002832470
      3        6          -0.002183412   -0.009805118   -0.008222613
      4        8           0.006556845   -0.001533006   -0.012465760
      5        8          -0.003731238    0.011533123    0.011193974
      6        8           0.004789762    0.005136246    0.010053326
      7        1           0.002380817   -0.004041505   -0.004035576
      8        1          -0.014349415    0.006013005    0.005649296
      9        1          -0.000836052   -0.015944497    0.023091828
     10        1           0.001880024    0.001086110   -0.001415954
     11        1          -0.003187501   -0.004333301   -0.000049177
     12        1           0.018301516    0.030613839   -0.014719330
 -------------------------------------------------------------------
 Cartesian Forces:  Max     0.030613839 RMS     0.010302529
 FormGI is forming the generalized inverse of G from B-inverse, IUseBI=4.

 GradGradGradGradGradGradGradGradGradGradGradGradGradGradGradGradGradGrad
 Berny optimization.
 Internal  Forces:  Max     0.023384909 RMS     0.008659056
 Search for a saddle point.
 Step number   3 out of a maximum of  100
 All quantities printed in internal units (Hartrees-Bohrs-Radians)
 Swapping is turned off.
 Second derivative matrix not updated -- analytic derivatives used.
 ITU=  0  0  0
     Eigenvalues ---   -0.51018  -0.00698   0.00090   0.00382   0.01040
     Eigenvalues ---    0.01376   0.01875   0.02720   0.03259   0.04512
     Eigenvalues ---    0.04886   0.06485   0.07509   0.09396   0.11442
     Eigenvalues ---    0.14229   0.14550   0.17330   0.20152   0.21258
     Eigenvalues ---    0.23272   0.30023   0.30569   0.33665   0.36318
     Eigenvalues ---    0.36840   0.37324   0.49754   0.54629   0.79521
 Eigenvectors required to have negative eigenvalues:
                          R6        A15       R1        D3        D15
   1                    0.54463   0.47810  -0.27713   0.24997   0.23904
                          R11       A4        D2        A6        R2
   1                   -0.22751  -0.19114   0.14750   0.14679  -0.14300
 RFO step:  Lambda0=3.397232840D-05 Lambda=-3.52414697D-02.
 Linear search not attempted -- option 19 set.
 Maximum step size (   0.300) exceeded in Quadratic search.
    -- Step size scaled by   0.403
 Iteration  1 RMS(Cart)=  0.06680368 RMS(Int)=  0.00822222
 Iteration  2 RMS(Cart)=  0.00692129 RMS(Int)=  0.00038408
 Iteration  3 RMS(Cart)=  0.00005729 RMS(Int)=  0.00037992
 Iteration  4 RMS(Cart)=  0.00000001 RMS(Int)=  0.00037992
 Variable       Old X    -DE/DX   Delta X   Delta X   Delta X     New X
                                 (Linear)    (Quad)   (Total)
    R1        2.73939   0.00264   0.00000   0.00941   0.00941   2.74880
    R2        2.46085   0.00859   0.00000   0.01828   0.01828   2.47913
    R3        2.05740   0.00083   0.00000  -0.00024  -0.00024   2.05716
    R4        2.71362   0.00557   0.00000  -0.00525  -0.00525   2.70837
    R5        2.04710   0.00264   0.00000   0.00330   0.00330   2.05040
    R6        3.16191  -0.00754   0.00000   0.10631   0.10631   3.26822
    R7        2.32404   0.00961   0.00000   0.00588   0.00588   2.32992
    R8        2.10448  -0.00132   0.00000  -0.00142  -0.00142   2.10306
    R9        2.76373   0.00875   0.00000   0.02989   0.02989   2.79362
   R10        1.84085   0.00316   0.00000   0.00207   0.00207   1.84292
   R11        2.11948  -0.02207   0.00000  -0.24298  -0.24298   1.87650
    A1        2.03086   0.00594   0.00000  -0.00548  -0.00548   2.02538
    A2        2.07007   0.00440   0.00000   0.01544   0.01544   2.08551
    A3        2.02927  -0.00590   0.00000  -0.01062  -0.01060   2.01867
    A4        2.02757   0.01655   0.00000   0.04782   0.04874   2.07631
    A5        2.02515  -0.00798   0.00000  -0.01654  -0.01726   2.00789
    A6        1.25204  -0.01660   0.00000  -0.10889  -0.10787   1.14417
    A7        2.07969  -0.00496   0.00000  -0.00971  -0.01071   2.06898
    A8        2.38671  -0.00423   0.00000   0.04328   0.04293   2.42964
    A9        1.53956   0.01005   0.00000   0.01005   0.00942   1.54898
   A10        2.19546  -0.00397   0.00000   0.00322   0.00319   2.19864
   A11        1.99308   0.00296   0.00000  -0.00234  -0.00238   1.99070
   A12        2.09442   0.00093   0.00000  -0.00118  -0.00121   2.09321
   A13        1.97099  -0.00835   0.00000  -0.01064  -0.01064   1.96034
   A14        1.77638  -0.00969   0.00000  -0.01966  -0.01966   1.75672
   A15        1.87532   0.02338   0.00000   0.00599   0.00599   1.88131
    D1        1.90910   0.00194   0.00000  -0.07860  -0.07857   1.83053
    D2       -0.66675  -0.00247   0.00000  -0.11167  -0.11157  -0.77832
    D3       -2.03844  -0.00858   0.00000  -0.06937  -0.06952  -2.10796
    D4       -0.64595  -0.00373   0.00000  -0.07374  -0.07369  -0.71964
    D5        3.06139  -0.00815   0.00000  -0.10680  -0.10670   2.95469
    D6        1.68969  -0.01426   0.00000  -0.06451  -0.06464   1.62505
    D7       -3.04625  -0.00350   0.00000   0.02163   0.02161  -3.02464
    D8       -0.47733   0.00544   0.00000   0.02572   0.02574  -0.45158
    D9       -0.15200  -0.00003   0.00000   0.00666   0.00650  -0.14549
   D10        2.96618  -0.00336   0.00000  -0.00844  -0.00860   2.95759
   D11        2.40538   0.00381   0.00000   0.03933   0.03940   2.44477
   D12       -0.75963   0.00049   0.00000   0.02423   0.02430  -0.73533
   D13       -1.73557   0.01004   0.00000   0.10182   0.10191  -1.63366
   D14        1.38261   0.00671   0.00000   0.08672   0.08681   1.46942
   D15        0.57028  -0.01445   0.00000  -0.06315  -0.06204   0.50824
   D16        2.47424  -0.00715   0.00000  -0.10259  -0.10362   2.37062
   D17       -1.49287  -0.00547   0.00000  -0.06458  -0.06467  -1.55754
   D18        2.24601   0.00143   0.00000  -0.00612  -0.00612   2.23990
         Item               Value     Threshold  Converged?
 Maximum Force            0.023385     0.000450     NO 
 RMS     Force            0.008659     0.000300     NO 
 Maximum Displacement     0.246818     0.001800     NO 
 RMS     Displacement     0.067086     0.001200     NO 
 Predicted change in Energy=-1.380622D-02
 GradGradGradGradGradGradGradGradGradGradGradGradGradGradGradGradGradGrad

                          Input orientation:                          
 ---------------------------------------------------------------------
 Center     Atomic      Atomic             Coordinates (Angstroms)
 Number     Number       Type             X           Y           Z
 ---------------------------------------------------------------------
      1          6           0        0.807387    1.531080   -1.386266
      2          6           0        0.756606    0.099393   -1.638383
      3          6           0        1.840508   -0.723401   -1.188659
      4          8           0        1.091649    2.288165   -2.419269
      5          8           0        1.277667    3.705468   -2.042338
      6          8           0        2.908400   -0.322397   -0.720747
      7          1           0        2.141941    3.889765   -2.454814
      8          1           0        1.164337    1.893415   -0.423791
      9          1           0       -0.764096    1.717599   -1.329396
     10          1           0        1.638788   -1.815829   -1.255274
     11          1           0        0.225276   -0.189794   -2.539125
     12          1           0       -0.716421    0.771759   -1.030784
 ---------------------------------------------------------------------
                    Distance matrix (angstroms):
                    1          2          3          4          5
     1  C    0.000000
     2  C    1.454603   0.000000
     3  C    2.487785   1.433208   0.000000
     4  O    1.311899   2.347927   3.338371   0.000000
     5  O    2.319387   3.665851   4.545376   1.478318   0.000000
     6  O    2.879679   2.377011   1.232939   3.605634   4.541981
     7  H    2.913112   4.117358   4.793257   1.915593   0.975229
     8  H    1.088604   2.204539   2.808906   2.035447   2.432298
     9  H    1.583535   2.242008   3.572430   2.226468   2.937466
    10  H    3.451115   2.143150   1.112892   4.300816   5.588793
    11  H    2.151591   1.085023   2.171974   2.627784   4.065389
    12  H    1.739232   1.729469   2.966196   2.737974   3.688669
                    6          7          8          9         10
     6  O    0.000000
     7  H    4.619172   0.000000
     8  H    2.835447   3.011009   0.000000
     9  H    4.244911   3.798674   2.137729   0.000000
    10  H    2.031742   5.851997   3.830791   4.273694   0.000000
    11  H    3.243954   4.508160   3.113877   2.465857   2.508043
    12  H    3.799030   4.463189   2.272400   0.993003   3.506140
                   11         12
    11  H    0.000000
    12  H    2.021502   0.000000
 Stoichiometry    C3H6O3
 Framework group  C1[X(C3H6O3)]
 Deg. of freedom    30
 Full point group                 C1      NOp   1
 Largest Abelian subgroup         C1      NOp   1
 Largest concise Abelian subgroup C1      NOp   1
                         Standard orientation:                         
 ---------------------------------------------------------------------
 Center     Atomic      Atomic             Coordinates (Angstroms)
 Number     Number       Type             X           Y           Z
 ---------------------------------------------------------------------
      1          6           0        0.402914    0.412829    0.389069
      2          6           0       -0.858931    0.908578   -0.138047
      3          6           0       -1.999840    0.041162   -0.137914
      4          8           0        1.318206    0.107319   -0.499741
      5          8           0        2.502199   -0.533365    0.111086
      6          8           0       -1.996234   -1.160171    0.139443
      7          1           0        2.582670   -1.330599   -0.444803
      8          1           0        0.405056   -0.191200    1.294719
      9          1           0        0.927840    1.833592    0.851095
     10          1           0       -2.957980    0.551734   -0.382480
     11          1           0       -0.768354    1.645951   -0.928839
     12          1           0       -0.047464    2.004840    0.925342
 ---------------------------------------------------------------------
 Rotational constants (GHZ):           8.2245695           1.8120681           1.5888821
 Standard basis: 6-31+G(d) (6D, 7F)
 There are   126 symmetry adapted cartesian basis functions of A   symmetry.
 There are   126 symmetry adapted basis functions of A   symmetry.
   126 basis functions,   216 primitive gaussians,   126 cartesian basis functions
    24 alpha electrons       24 beta electrons
       nuclear repulsion energy       234.9777108556 Hartrees.
 NAtoms=   12 NActive=   12 NUniq=   12 SFac= 1.00D+00 NAtFMM=   60 NAOKFM=F Big=F
 Integral buffers will be    131072 words long.
 Raffenetti 2 integral format.
 Two-electron integral symmetry is turned on.
 One-electron integrals computed using PRISM.
 NBasis=   126 RedAO= T EigKep=  8.19D-05  NBF=   126
 NBsUse=   126 1.00D-06 EigRej= -1.00D+00 NBFU=   126
 Initial guess from the checkpoint file:  "/scratch/bell/zhao922/YARP/paper-example/KHP-network/pp_0/TS-folder/Gau-4813.chk"
 B after Tr=     0.000000    0.000000    0.000000
         Rot=    0.999969    0.007129   -0.002169    0.002663 Ang=   0.91 deg.
 ExpMin= 4.38D-02 ExpMax= 5.48D+03 ExpMxC= 8.25D+02 IAcc=3 IRadAn=         5 AccDes= 0.00D+00
 Harris functional with IExCor=  402 and IRadAn=       5 diagonalized for initial guess.
 HarFok:  IExCor=  402 AccDes= 0.00D+00 IRadAn=         5 IDoV= 1 UseB2=F ITyADJ=14
 ICtDFT=  3500011 ScaDFX=  1.000000  1.000000  1.000000  1.000000
 FoFCou: FMM=F IPFlag=           0 FMFlag=      100000 FMFlg1=           0
         NFxFlg=           0 DoJE=T BraDBF=F KetDBF=T FulRan=T
         wScrn=  0.000000 ICntrl=       500 IOpCl=  0 I1Cent=   200000004 NGrid=           0
         NMat0=    1 NMatS0=      1 NMatT0=    0 NMatD0=    1 NMtDS0=    0 NMtDT0=    0
 Petite list used in FoFCou.
 Keep R1 ints in memory in canonical form, NReq=47237537.
 Requested convergence on RMS density matrix=1.00D-08 within 128 cycles.
 Requested convergence on MAX density matrix=1.00D-06.
 Requested convergence on             energy=1.00D-06.
 No special actions if energy rises.
 SCF Done:  E(RB3LYP) =  -343.320644299     A.U. after   14 cycles
            NFock= 14  Conv=0.38D-08     -V/T= 2.0091
 DoSCS=F DFT=T ScalE2(SS,OS)=  1.000000  1.000000
 Range of M.O.s used for correlation:     1   126
 NBasis=   126 NAE=    24 NBE=    24 NFC=     0 NFV=     0
 NROrb=    126 NOA=    24 NOB=    24 NVA=   102 NVB=   102

 **** Warning!!: The largest alpha MO coefficient is  0.32606059D+02

 Symmetrizing basis deriv contribution to polar:
 IMax=3 JMax=2 DiffMx= 0.00D+00
 G2DrvN: will do    13 centers at a time, making    1 passes.
 Calling FoFCou, ICntrl=  3107 FMM=F I1Cent=   0 AccDes= 0.00D+00.
 End of G2Drv F.D. properties file   721 does not exist.
 End of G2Drv F.D. properties file   722 does not exist.
 End of G2Drv F.D. properties file   788 does not exist.
          IDoAtm=111111111111
          Differentiating once with respect to electric field.
                with respect to dipole field.
          Differentiating once with respect to nuclear coordinates.
 Keep R1 ints in memory in canonical form, NReq=47193559.
          There are    39 degrees of freedom in the 1st order CPHF.  IDoFFX=6 NUNeed=     3.
     36 vectors produced by pass  0 Test12= 6.28D-15 2.56D-09 XBig12= 1.50D+02 7.19D+00.
 AX will form    36 AO Fock derivatives at one time.
     36 vectors produced by pass  1 Test12= 6.28D-15 2.56D-09 XBig12= 2.48D+01 8.55D-01.
     36 vectors produced by pass  2 Test12= 6.28D-15 2.56D-09 XBig12= 4.90D-01 1.28D-01.
     36 vectors produced by pass  3 Test12= 6.28D-15 2.56D-09 XBig12= 2.79D-03 8.13D-03.
     36 vectors produced by pass  4 Test12= 6.28D-15 2.56D-09 XBig12= 4.05D-06 2.48D-04.
     30 vectors produced by pass  5 Test12= 6.28D-15 2.56D-09 XBig12= 4.46D-09 6.99D-06.
      5 vectors produced by pass  6 Test12= 6.28D-15 2.56D-09 XBig12= 3.65D-12 2.17D-07.
      2 vectors produced by pass  7 Test12= 6.28D-15 2.56D-09 XBig12= 3.02D-15 8.15D-09.
 InvSVY:  IOpt=1 It=  1 EMax= 1.11D-15
 Solved reduced A of dimension   217 with    39 vectors.
 Isotropic polarizability for W=    0.000000       70.50 Bohr**3.
 End of Minotr F.D. properties file   721 does not exist.
 End of Minotr F.D. properties file   722 does not exist.
 End of Minotr F.D. properties file   788 does not exist.
 Calling FoFJK, ICntrl=    100127 FMM=F ISym2X=0 I1Cent= 0 IOpClX= 0 NMat=1 NMatS=1 NMatT=0.
 ***** Axes restored to original set *****
 -------------------------------------------------------------------
 Center     Atomic                   Forces (Hartrees/Bohr)
 Number     Number              X              Y              Z
 -------------------------------------------------------------------
      1        6           0.002441936   -0.005367442   -0.008125400
      2        6          -0.006151679   -0.012107172   -0.001422589
      3        6           0.001596093   -0.002420493   -0.004983219
      4        8           0.004463790   -0.002023412   -0.007444655
      5        8          -0.002810127    0.008646851    0.007341631
      6        8           0.002101619    0.002812081    0.008427828
      7        1           0.001577970   -0.002744786   -0.002560515
      8        1          -0.010700571    0.003616640    0.003384332
      9        1          -0.004163898   -0.010519738    0.017952349
     10        1           0.001776305    0.000755782   -0.002486783
     11        1          -0.004448995   -0.004583074    0.001996610
     12        1           0.014317556    0.023934761   -0.012079588
 -------------------------------------------------------------------
 Cartesian Forces:  Max     0.023934761 RMS     0.007824865
 FormGI is forming the generalized inverse of G from B-inverse, IUseBI=4.

 GradGradGradGradGradGradGradGradGradGradGradGradGradGradGradGradGradGrad
 Berny optimization.
 Internal  Forces:  Max     0.020522810 RMS     0.005922672
 Search for a saddle point.
 Step number   4 out of a maximum of  100
 All quantities printed in internal units (Hartrees-Bohrs-Radians)
 Swapping is turned off.
 Second derivative matrix not updated -- analytic derivatives used.
 ITU=  0  0  0  0
     Eigenvalues ---   -0.42373  -0.00659   0.00353   0.00604   0.01204
     Eigenvalues ---    0.01312   0.01863   0.02696   0.03308   0.04819
     Eigenvalues ---    0.05218   0.07115   0.09823   0.10956   0.11556
     Eigenvalues ---    0.12693   0.14389   0.15362   0.19788   0.21134
     Eigenvalues ---    0.22650   0.29851   0.30219   0.33298   0.36028
     Eigenvalues ---    0.36742   0.37177   0.49411   0.52891   0.78045
 Eigenvectors required to have negative eigenvalues:
                          R6        A15       R1        R11       D3
   1                    0.56651   0.47984  -0.29371  -0.26723   0.23963
                          D15       A4        R2        D2        D1
   1                    0.19392  -0.15837  -0.15685   0.14834   0.13974
 RFO step:  Lambda0=1.004757672D-04 Lambda=-1.90103249D-02.
 Linear search not attempted -- option 19 set.
 Maximum step size (   0.300) exceeded in Quadratic search.
    -- Step size scaled by   0.488
 Iteration  1 RMS(Cart)=  0.11354729 RMS(Int)=  0.00686246
 Iteration  2 RMS(Cart)=  0.00847134 RMS(Int)=  0.00146519
 Iteration  3 RMS(Cart)=  0.00005671 RMS(Int)=  0.00146421
 Iteration  4 RMS(Cart)=  0.00000002 RMS(Int)=  0.00146421
 Variable       Old X    -DE/DX   Delta X   Delta X   Delta X     New X
                                 (Linear)    (Quad)   (Total)
    R1        2.74880   0.00064   0.00000  -0.01237  -0.01237   2.73643
    R2        2.47913   0.00504   0.00000   0.02277   0.02277   2.50190
    R3        2.05716   0.00069   0.00000  -0.00083  -0.00083   2.05633
    R4        2.70837   0.00378   0.00000   0.00511   0.00511   2.71348
    R5        2.05040   0.00174   0.00000   0.00268   0.00268   2.05307
    R6        3.26822  -0.00137   0.00000  -0.14950  -0.14950   3.11873
    R7        2.32992   0.00593   0.00000   0.00066   0.00066   2.33058
    R8        2.10306  -0.00091   0.00000  -0.00296  -0.00296   2.10010
    R9        2.79362   0.00672   0.00000   0.00194   0.00194   2.79556
   R10        1.84292   0.00196   0.00000   0.00094   0.00094   1.84386
   R11        1.87650  -0.01522   0.00000  -0.01012  -0.01012   1.86639
    A1        2.02538   0.00466   0.00000   0.01782   0.01777   2.04315
    A2        2.08551   0.00255   0.00000  -0.01319  -0.01328   2.07223
    A3        2.01867  -0.00392   0.00000   0.00606   0.00603   2.02470
    A4        2.07631   0.00765   0.00000   0.01501   0.00902   2.08534
    A5        2.00789  -0.00314   0.00000   0.01100   0.01131   2.01920
    A6        1.14417  -0.00953   0.00000  -0.09010  -0.09458   1.04959
    A7        2.06898  -0.00220   0.00000   0.02026   0.02117   2.09015
    A8        2.42964  -0.00250   0.00000  -0.09701  -0.09577   2.33387
    A9        1.54898   0.00563   0.00000   0.08765   0.08863   1.63761
   A10        2.19864  -0.00207   0.00000  -0.00407  -0.00408   2.19457
   A11        1.99070   0.00157   0.00000   0.00519   0.00519   1.99589
   A12        2.09321   0.00042   0.00000  -0.00125  -0.00125   2.09196
   A13        1.96034  -0.00541   0.00000  -0.02303  -0.02303   1.93731
   A14        1.75672  -0.00647   0.00000  -0.01576  -0.01576   1.74096
   A15        1.88131   0.02052   0.00000   0.19581   0.19581   2.07712
    D1        1.83053   0.00156   0.00000   0.13767   0.13731   1.96784
    D2       -0.77832  -0.00196   0.00000   0.04484   0.04479  -0.73353
    D3       -2.10796  -0.00517   0.00000  -0.00472  -0.00440  -2.11236
    D4       -0.71964  -0.00283   0.00000   0.11676   0.11646  -0.60318
    D5        2.95469  -0.00636   0.00000   0.02394   0.02394   2.97863
    D6        1.62505  -0.00957   0.00000  -0.02563  -0.02525   1.59981
    D7       -3.02464  -0.00257   0.00000  -0.05856  -0.05868  -3.08332
    D8       -0.45158   0.00374   0.00000  -0.04530  -0.04518  -0.49677
    D9       -0.14549   0.00053   0.00000  -0.01112  -0.01080  -0.15629
   D10        2.95759  -0.00189   0.00000  -0.01512  -0.01479   2.94279
   D11        2.44477   0.00404   0.00000   0.08207   0.08233   2.52710
   D12       -0.73533   0.00162   0.00000   0.07807   0.07833  -0.65700
   D13       -1.63366   0.00836   0.00000   0.16068   0.16009  -1.47357
   D14        1.46942   0.00594   0.00000   0.15668   0.15609   1.62551
   D15        0.50824  -0.00786   0.00000  -0.03633  -0.04056   0.46768
   D16        2.37062  -0.00602   0.00000  -0.09770  -0.09376   2.27686
   D17       -1.55754  -0.00391   0.00000  -0.02681  -0.02651  -1.58405
   D18        2.23990   0.00117   0.00000   0.01760   0.01760   2.25750
         Item               Value     Threshold  Converged?
 Maximum Force            0.020523     0.000450     NO 
 RMS     Force            0.005923     0.000300     NO 
 Maximum Displacement     0.352722     0.001800     NO 
 RMS     Displacement     0.113633     0.001200     NO 
 Predicted change in Energy=-9.172091D-03
 GradGradGradGradGradGradGradGradGradGradGradGradGradGradGradGradGradGrad

                          Input orientation:                          
 ---------------------------------------------------------------------
 Center     Atomic      Atomic             Coordinates (Angstroms)
 Number     Number       Type             X           Y           Z
 ---------------------------------------------------------------------
      1          6           0        0.832301    1.507536   -1.433863
      2          6           0        0.786126    0.084725   -1.699098
      3          6           0        1.805041   -0.768813   -1.155843
      4          8           0        1.071942    2.304733   -2.463370
      5          8           0        1.168744    3.715837   -2.029919
      6          8           0        2.835135   -0.392095   -0.591935
      7          1           0        2.013834    3.960654   -2.451739
      8          1           0        1.204854    1.848081   -0.469845
      9          1           0       -0.665055    1.804869   -1.235124
     10          1           0        1.585374   -1.855028   -1.239057
     11          1           0        0.263516   -0.208752   -2.605244
     12          1           0       -0.529769    0.843477   -1.053809
 ---------------------------------------------------------------------
                    Distance matrix (angstroms):
                    1          2          3          4          5
     1  C    0.000000
     2  C    1.448058   0.000000
     3  C    2.491040   1.435911   0.000000
     4  O    1.323947   2.365214   3.419612   0.000000
     5  O    2.311941   3.666172   4.613130   1.479347   0.000000
     6  O    2.885963   2.377310   1.233290   3.726124   4.660446
     7  H    2.906868   4.134799   4.908238   1.905091   0.975728
[...]
    D2       -0.62587  -0.00000   0.00000  -0.00000  -0.00000  -0.62587
    D3       -2.01764   0.00000   0.00000  -0.00000  -0.00000  -2.01764
    D4       -0.06153  -0.00000   0.00000  -0.00000  -0.00000  -0.06154
    D5       -3.07803  -0.00000   0.00000  -0.00000  -0.00000  -3.07803
    D6        1.81338   0.00000   0.00000   0.00000   0.00000   1.81338
    D7        3.09167   0.00000   0.00000  -0.00000  -0.00000   3.09167
    D8       -0.77287  -0.00000   0.00000  -0.00000  -0.00000  -0.77287
    D9        0.10558  -0.00000   0.00000   0.00000   0.00000   0.10558
   D10       -3.04762  -0.00000   0.00000   0.00000   0.00000  -3.04762
   D11        3.11723  -0.00000   0.00000   0.00000   0.00000   3.11723
   D12       -0.03598  -0.00000   0.00000   0.00000   0.00000  -0.03598
   D13       -0.89965   0.00000   0.00000   0.00000   0.00000  -0.89965
   D14        2.23033   0.00000   0.00000   0.00000   0.00000   2.23033
   D15        0.07886  -0.00000   0.00000   0.00000   0.00000   0.07886
   D16        1.85857   0.00000   0.00000  -0.00000  -0.00000   1.85857
   D17       -1.99930   0.00000   0.00000  -0.00000  -0.00000  -1.99930
   D18        2.39789   0.00000   0.00000   0.00002   0.00002   2.39791
         Item               Value     Threshold  Converged?
 Maximum Force            0.000000     0.000450     YES
 RMS     Force            0.000000     0.000300     YES
 Maximum Displacement     0.000014     0.001800     YES
 RMS     Displacement     0.000004     0.001200     YES
 Predicted change in Energy=-4.276816D-13
 Optimization completed.
    -- Stationary point found.
                           ----------------------------
                           !   Optimized Parameters   !
                           ! (Angstroms and Degrees)  !
 --------------------------                            --------------------------
 ! Name  Definition              Value          Derivative Info.                !
 --------------------------------------------------------------------------------
 ! R1    R(1,2)                  1.4599         -DE/DX =    0.0                 !
 ! R2    R(1,4)                  1.3594         -DE/DX =    0.0                 !
 ! R3    R(1,8)                  1.0919         -DE/DX =    0.0                 !
 ! R4    R(2,3)                  1.4314         -DE/DX =    0.0                 !
 ! R5    R(2,11)                 1.0837         -DE/DX =    0.0                 !
 ! R6    R(2,12)                 1.5992         -DE/DX =    0.0                 !
 ! R7    R(3,6)                  1.238          -DE/DX =    0.0                 !
 ! R8    R(3,10)                 1.109          -DE/DX =    0.0                 !
 ! R9    R(4,5)                  1.482          -DE/DX =    0.0                 !
 ! R10   R(5,7)                  0.9758         -DE/DX =    0.0                 !
 ! R11   R(9,12)                 0.9992         -DE/DX =    0.0                 !
 ! A1    A(2,1,4)              114.8389         -DE/DX =    0.0                 !
 ! A2    A(2,1,8)              113.6191         -DE/DX =    0.0                 !
 ! A3    A(4,1,8)              118.2469         -DE/DX =    0.0                 !
 ! A4    A(1,2,3)              117.1727         -DE/DX =    0.0                 !
 ! A5    A(1,2,11)             119.4163         -DE/DX =    0.0                 !
 ! A6    A(1,2,12)              50.1568         -DE/DX =    0.0                 !
 ! A7    A(3,2,11)             122.9964         -DE/DX =    0.0                 !
 ! A8    A(3,2,12)             119.8102         -DE/DX =    0.0                 !
 ! A9    A(11,2,12)            101.2786         -DE/DX =    0.0                 !
 ! A10   A(2,3,6)              125.431          -DE/DX =    0.0                 !
 ! A11   A(2,3,10)             114.7633         -DE/DX =    0.0                 !
 ! A12   A(6,3,10)             119.8025         -DE/DX =    0.0                 !
 ! A13   A(1,4,5)              107.9617         -DE/DX =    0.0                 !
 ! A14   A(4,5,7)               98.7295         -DE/DX =    0.0                 !
 ! A15   A(2,12,9)             134.5692         -DE/DX =    0.0                 !
 ! D1    D(4,1,2,3)            136.9732         -DE/DX =    0.0                 !
 ! D2    D(4,1,2,11)           -35.8595         -DE/DX =    0.0                 !
 ! D3    D(4,1,2,12)          -115.6022         -DE/DX =    0.0                 !
 ! D4    D(8,1,2,3)             -3.5257         -DE/DX =    0.0                 !
 ! D5    D(8,1,2,11)          -176.3583         -DE/DX =    0.0                 !
 ! D6    D(8,1,2,12)           103.899          -DE/DX =    0.0                 !
 ! D7    D(2,1,4,5)            177.1394         -DE/DX =    0.0                 !
 ! D8    D(8,1,4,5)            -44.282          -DE/DX =    0.0                 !
 ! D9    D(1,2,3,6)              6.0495         -DE/DX =    0.0                 !
 ! D10   D(1,2,3,10)          -174.616          -DE/DX =    0.0                 !
 ! D11   D(11,2,3,6)           178.604          -DE/DX =    0.0                 !
 ! D12   D(11,2,3,10)           -2.0615         -DE/DX =    0.0                 !
 ! D13   D(12,2,3,6)           -51.5461         -DE/DX =    0.0                 !
 ! D14   D(12,2,3,10)          127.7884         -DE/DX =    0.0                 !
 ! D15   D(1,2,12,9)             4.5181         -DE/DX =    0.0                 !
 ! D16   D(3,2,12,9)           106.488          -DE/DX =    0.0                 !
 ! D17   D(11,2,12,9)         -114.5513         -DE/DX =    0.0                 !
 ! D18   D(1,4,5,7)            137.3891         -DE/DX =    0.0                 !
 --------------------------------------------------------------------------------
 GradGradGradGradGradGradGradGradGradGradGradGradGradGradGradGradGradGrad


 ----------------------------------------------------------------------

 Electric dipole moment (input orientation):
 (Debye = 10**-18 statcoulomb cm , SI units = C m)
                  (au)            (Debye)         (10**-30 SI)
   Tot        0.158056D+01      0.401738D+01      0.134005D+02
   x         -0.745219D+00     -0.189416D+01     -0.631823D+01
   y          0.104835D+01      0.266463D+01      0.888824D+01
   z         -0.918578D+00     -0.233479D+01     -0.778802D+01

 Dipole polarizability, Alpha (input orientation).
 (esu units = cm**3 , SI units = C**2 m**2 J**-1)
 Alpha(0;0):
               (au)            (10**-24 esu)      (10**-40 SI)
   iso        0.660796D+02      0.979199D+01      0.108951D+02
   aniso      0.491740D+02      0.728684D+01      0.810771D+01
   xx         0.528524D+02      0.783192D+01      0.871418D+01
   yx        -0.129214D+02     -0.191476D+01     -0.213045D+01
   yy         0.943330D+02      0.139787D+02      0.155534D+02
   zx         0.361140D+01      0.535154D+00      0.595439D+00
   zy        -0.515052D+01     -0.763229D+00     -0.849207D+00
   zz         0.510536D+02      0.756536D+01      0.841760D+01

 ----------------------------------------------------------------------

 Dipole orientation:
     6          3.36486605         -0.49286696          2.67878711
     6          3.07623567          1.90209391          1.34010863
     6          3.35473308          1.85494040         -1.34997006
     8          4.74781233         -0.36143960          4.83958454
     8          4.74582894         -2.90011611          6.02197365
     8          3.62062485         -0.07024441         -2.65243523
     1          6.52224290         -2.98308577          6.50968343
     1          3.65713923         -2.10844608          1.42909032
     1          1.04611277         -1.42102794          3.69418186
     1          3.29715882          3.73624399         -2.27155692
     1          2.88921279          3.63726314          2.41176679
     1          0.99160362          0.16131541          2.66537603

 Electric dipole moment (dipole orientation):
 (Debye = 10**-18 statcoulomb cm , SI units = C m)
                  (au)            (Debye)         (10**-30 SI)
   Tot        0.158056D+01      0.401738D+01      0.134005D+02
   x          0.000000D+00      0.000000D+00      0.000000D+00
   y          0.000000D+00      0.000000D+00      0.000000D+00
   z          0.158056D+01      0.401738D+01      0.134005D+02

 Dipole polarizability, Alpha (dipole orientation).
 (esu units = cm**3 , SI units = C**2 m**2 J**-1)
 Alpha(0;0):
               (au)            (10**-24 esu)      (10**-40 SI)
   iso        0.660796D+02      0.979199D+01      0.108951D+02
   aniso      0.491740D+02      0.728684D+01      0.810771D+01
   xx         0.477164D+02      0.707084D+01      0.786737D+01
   yx        -0.762408D+00     -0.112977D+00     -0.125704D+00
   yy         0.659972D+02      0.977978D+01      0.108815D+02
   zx        -0.100350D-01     -0.148704D-02     -0.165456D-02
   zy        -0.216037D+02     -0.320133D+01     -0.356196D+01
   zz         0.845253D+02      0.125254D+02      0.139363D+02

 ----------------------------------------------------------------------
 1\1\GINC-BELL-A103\Freq\RB3LYP\6-31+G(d)\C3H6O3\ZHAO922\23-Dec-2020\0\
 \#N Geom=AllCheck Guess=TCheck SCRF=Check GenChk RB3LYP/6-31+G(d) Freq
 \\pp_13_3 TS\\0,1\C,0.9134880352,1.4806486806,-1.4903936668\C,0.865567
 2066,0.0658391179,-1.8472858051\C,1.6683375554,-0.8311942354,-1.072904
 9383\O,0.9895422965,2.3336117041,-2.5461107643\O,0.9593344989,3.718040
 1497,-2.0182012736\O,2.3157209488,-0.5252077456,-0.0629597635\H,1.6542
 075442,4.1068342082,-2.5822909745\H,1.5272993355,1.6896658556,-0.61192
 78637\H,-0.2972300017,1.9488613164,-0.898362099\H,1.67519106,-1.879238
 2645,-1.435431211\H,0.3315259276,-0.2403287458,-2.7392321408\H,-0.2309
 41407,0.9776909588,-1.1237464994\\Version=ES64L-G16RevB.01\State=1-A\H
 F=-343.3406886\RMSD=6.203e-09\RMSF=2.875e-07\ZeroPoint=0.082909\Therma
 l=0.0900271\Dipole=-0.7452187,1.0483452,-0.9185775\DipoleDeriv=0.94057
 5,0.2155644,-0.5064707,-0.0795577,1.1859901,-0.2854714,-0.6101921,-0.2
 731021,0.7130652,-0.7777744,0.3944792,0.0439892,0.6071794,-1.2713265,0
 .3215767,0.1168669,0.2733835,-0.3402652,0.8528626,-0.7644083,0.7301623
 ,-0.3200378,1.0871143,-0.0354913,0.9295726,-0.6265556,1.0203915,-0.268
 9804,-0.0384113,0.0707074,-0.1094156,0.2919811,-0.0019444,0.2370175,0.
 404026,-0.5044842,-0.1906416,-0.0754271,-0.1181235,0.0296976,-1.100578
 6,0.3419594,-0.1263671,-0.0600994,-0.1916846,-0.831815,0.3530987,-0.45
 74166,-0.1027254,-0.4699565,-0.1625731,-0.6634265,0.441532,-1.0864832,
 0.2788145,0.0608312,0.0710948,0.0070133,0.3448158,-0.0403512,0.0825302
 ,-0.0864954,0.3023682,0.0284299,-0.0528101,0.0360673,0.0008344,0.12595
 25,-0.024823,0.0340091,0.0133316,0.067516,-0.3536039,0.2437901,0.21741
 62,0.3067971,-0.6377349,-0.0244824,0.1970712,-0.1391091,-0.080592,0.07
 2374,-0.0010531,-0.0352837,0.0063714,-0.2954948,-0.1301211,-0.0326541,
 -0.1374527,0.0057125,0.1299331,0.0743387,-0.1299216,0.0327805,0.038200
 6,-0.0367784,-0.1261423,-0.0676464,0.0462249,0.1198262,-0.4099925,0.07
 77789,-0.378937,0.7010368,0.0785003,-0.0382854,0.2581876,0.048231\Pola
 r=52.8523855,-12.9214136,94.3329523,3.6113991,-5.1505247,51.0535931\Qu
 adrupole=0.0534106,2.4545077,-2.5079183,5.4003559,-3.802081,1.8873404\
 PG=C01 [X(C3H6O3)]\NImag=1\\0.25398401,0.12117139,0.41926008,0.2335315
 6,-0.03500984,0.53880345,-0.07746907,0.05296610,-0.01243661,0.26997276
 ,-0.02797245,-0.19144080,-0.03069919,-0.06623299,0.53193928,-0.0197606
 9,-0.07265724,-0.10432802,0.28695838,0.05471178,0.50512694,0.00785448,
 0.01763765,0.01295100,-0.11555746,0.05526942,-0.07960196,0.40171702,0.
 02097346,-0.04159276,0.01424536,0.07570059,-0.18434564,0.06358796,-0.0
 2771818,0.62318824,0.00965931,0.01323132,0.00996183,-0.05924964,0.0363
 5148,-0.13607325,0.29741193,0.11562152,0.63841397,-0.04720912,-0.02134
 290,-0.00957474,0.01096747,-0.00095970,-0.00529073,-0.00274994,0.00222
 325,-0.00294042,0.07435501,0.00829483,-0.10933095,0.09539329,0.0016934
 0,-0.04063540,0.01506440,-0.00090716,-0.00142426,-0.00336870,0.0327133
 3,0.31331627,-0.04700082,0.06584725,-0.22640274,-0.00393731,0.00223125
 ,0.01646810,0.00056972,-0.00622619,-0.00257072,-0.03118454,-0.06728464
 ,0.36279254,-0.00130975,-0.00988318,0.00065299,0.00607739,-0.00032491,
 0.00060314,-0.00141733,-0.00080733,-0.00091674,-0.02928997,-0.01907863
 ,0.01521174,0.28122770,0.00673197,-0.05154661,-0.00636243,-0.00258523,
 -0.00661539,0.01362571,-0.01258257,0.00268956,-0.00458658,0.00449220,-
 0.13451656,-0.05065116,0.13021858,0.28072477,0.00345215,0.02739738,0.0
 2242677,-0.00164172,0.00333198,-0.00072931,-0.00047090,0.00157096,0.00
 087126,0.02430089,-0.04150267,-0.09017254,-0.23462754,-0.05798277,0.24
 817760,-0.00439691,-0.01035336,-0.00198512,-0.02230043,0.01702584,-0.0
 4379346,-0.21768985,-0.07262767,-0.23740379,0.00093269,-0.00068136,-0.
 00188802,0.00048233,0.00448451,0.00071305,0.22932817,-0.00344787,-0.00
 514008,-0.00070903,0.00908786,0.02930984,0.01821520,-0.06234054,-0.144
 20798,-0.11605539,0.00154921,0.00109923,0.00259960,0.00008440,0.001292
 59,-0.00022396,0.07146072,0.11862158,-0.00105753,-0.01274102,-0.005086
 30,-0.05422696,0.02712462,-0.03487594,-0.23170123,-0.12733605,-0.43689
 794,0.00237957,0.00008660,0.00046819,0.00058332,0.00542948,0.00024312,
 0.30458225,0.12997662,0.49796104,-0.00079327,0.00148318,0.00208238,-0.
 00014628,0.00121218,-0.00104237,0.00123679,-0.00022259,0.00053911,0.00
 425433,0.00567936,-0.00299426,-0.25512624,-0.13957499,0.20895058,-0.00
 058556,-0.00010370,-0.00063384,0.25072934,-0.00266080,-0.01061827,-0.0
 0206973,0.00109760,0.00126676,0.00119140,0.00003539,-0.00129956,0.0002
 7643,-0.02707328,-0.02711467,0.02273595,-0.10328487,-0.09258353,0.0684
 6452,-0.00030094,0.00023914,-0.00038235,0.13110525,0.12919668,0.001910
 03,0.00049836,-0.00501178,0.00020253,-0.00068345,0.00110644,-0.0006710
 3,0.00006277,-0.00004204,-0.01355712,-0.02079679,0.00958363,0.21922212
 ,0.11005845,-0.18327401,0.00006736,-0.00012969,0.00015735,-0.20624160,
 -0.08926545,0.17706377,-0.12904099,-0.04305276,-0.13312343,0.00820111,
 0.00164979,0.00192952,0.00175002,0.00011504,0.00135082,0.01204596,-0.0
 0012723,0.01059819,-0.00202737,0.00078801,-0.00010305,-0.00195045,-0.0
 0054525,-0.00051161,0.00013900,-0.00030991,0.00024228,0.14853197,-0.04
 814725,-0.05896790,-0.04352459,-0.01665769,-0.00700964,-0.02122790,-0.
 00249918,-0.00107357,-0.00451641,0.01000751,0.00031539,0.02172187,0.00
 048983,0.00380712,-0.00055305,0.00081937,0.00288568,0.00252456,0.00018
 405,0.00029998,0.00054931,0.04004507,0.06415545,-0.12893442,-0.0458600
 8,-0.23059898,-0.00564050,-0.00558135,-0.00562098,-0.00030668,0.000398
 57,0.00029827,-0.01120633,0.00255886,-0.02398358,0.00186268,-0.0021113
 3,0.00236034,-0.00004739,0.00137108,-0.00166210,-0.00025791,-0.0000128
 3,0.00013161,0.13044135,0.04888306,0.24801048,0.03710064,-0.05640161,-
 0.05589169,0.02295066,0.03069267,-0.00492927,0.00020973,-0.00190466,0.
 00615294,-0.01749071,-0.01112165,0.03338789,-0.00109504,0.00111832,-0.
 00020852,-0.00083145,-0.00089940,-0.00169498,0.00031776,0.00023104,-0.
 00090379,-0.02333529,0.01055440,0.00516348,0.01427346,0.03947006,-0.03
 754401,-0.03523870,0.03257614,-0.02641846,-0.00878445,-0.00733623,0.00
 798350,-0.01923679,-0.02008371,-0.01513401,0.02813766,0.00101057,0.008
 80553,0.00103837,0.00607768,0.00361778,0.00992372,0.00020784,0.0014673
 5,0.00048133,-0.00675261,0.00362122,0.00534828,-0.02553480,0.08663342,
 -0.02412174,0.01165798,-0.00396282,0.00036050,-0.01201212,0.00660690,0
 .00130425,0.00148281,-0.00337886,0.02502225,0.00802981,-0.02821796,-0.
 00041445,-0.00078384,0.00015688,0.00120663,-0.00029765,0.00078943,-0.0
 0029472,-0.00025857,0.00026574,-0.00611806,0.00138034,0.00523760,-0.00
 102377,0.01631174,0.03707671,0.00256717,0.00308397,-0.00655775,0.00820
 630,0.01750849,0.00101325,-0.05978694,0.01289033,0.00268279,-0.0001611
 6,-0.00014786,0.00195156,0.00036867,0.00192699,-0.00018241,0.01018364,
 -0.02214676,-0.01832814,-0.00017534,0.00024608,0.00019414,-0.00025958,
 0.00042276,-0.00062723,-0.00028469,-0.00196809,-0.00031181,0.04056739,
 0.00408039,-0.00032549,0.00121172,0.00309936,-0.01927799,-0.00638827,0
 .01834334,-0.25934261,-0.04806634,0.00030343,-0.00017692,0.00007370,-0
 .00028630,-0.00049578,0.00022128,-0.01251410,-0.00334486,-0.02416939,0
 .00006048,-0.00002551,-0.00011945,-0.00061307,0.00092127,-0.00046592,-
 0.00009716,-0.00128601,-0.00047907,-0.01169603,0.28288970,-0.00523441,
 0.00320542,0.00271045,-0.00292236,0.00949662,0.01021719,0.00274423,-0.
 05302427,-0.07070061,-0.00017060,0.00057341,-0.00014575,0.00006785,-0.
 00125479,-0.00024645,-0.01536470,-0.03725424,-0.01748841,0.00009366,0.
 00007778,-0.00011836,-0.00018785,0.00020041,-0.00019285,0.00009163,0.0
 0149267,0.00056619,0.01871015,0.07632120,0.07633100,-0.00555243,-0.003
 40277,0.00329287,-0.09833978,-0.03342951,-0.13866415,-0.00791504,-0.01
 125972,-0.00790986,-0.00056271,0.00051845,-0.00226717,0.00021783,0.000
 87564,0.00036976,0.00209731,0.00397883,-0.00419643,-0.00013668,-0.0001
 4593,-0.00004162,0.00045829,0.00005398,-0.00100237,-0.00014137,0.00063
 645,-0.00026787,-0.00084509,0.00006641,0.00133323,0.10592766,-0.014942
 71,-0.01129480,-0.02711999,-0.03112010,-0.07514350,-0.07098212,0.00636
 093,0.01271915,0.01790581,-0.00003563,0.00217060,-0.00101566,0.0003229
 5,0.00049563,0.00075922,0.00384164,-0.00304960,0.00126335,-0.00010607,
 0.00000709,0.00006721,0.00108518,-0.00478539,-0.00004300,-0.00060825,0
 .00057251,0.00010824,-0.00073472,-0.00002931,-0.00053263,0.03779590,0.
 07914961,0.00379462,0.00429814,-0.00207194,-0.14139017,-0.07499505,-0.
 24265890,0.00028976,-0.00800924,-0.00899107,0.00054482,0.00003970,0.00
 180254,-0.00026022,-0.00090274,-0.00016416,-0.00426629,0.00240187,0.00
 120031,0.00009669,0.00000062,-0.00001491,0.00047650,0.00045625,0.00051
 403,-0.00038879,-0.00117463,-0.00013154,0.00075995,0.00088120,-0.00010
 174,0.14356848,0.07972993,0.25507873,-0.03573475,-0.05190571,-0.032941
 45,-0.01256269,0.00556117,0.00257836,-0.00765148,0.00263749,-0.0093764
 7,-0.00509186,-0.01683549,0.02755302,0.00189179,0.00410658,-0.00055229
 ,0.00473050,0.00332250,0.00480558,0.00028615,0.00106038,-0.00042331,-0
 .01451266,0.00472715,0.01055533,-0.03167370,-0.01830329,0.00465880,-0.
 00038037,-0.00074675,0.00083917,0.00479202,-0.00185912,-0.00322535,0.0
 9590705,-0.10355101,0.09854160,0.06988312,-0.05962505,-0.01162906,0.01
 364352,0.01573713,-0.01329406,0.01244364,0.01820629,0.01143126,-0.0181
 6964,0.00153891,-0.01205732,-0.00252126,-0.00723233,-0.00132332,-0.011
 70015,0.00007502,-0.00083546,-0.00072261,0.00771775,-0.00416961,-0.004
 48535,0.05397110,-0.03231881,-0.02513966,0.00061485,0.00049351,0.00069
 843,0.00431228,-0.00081199,-0.00272605,0.06823508,-0.03402674,-0.02623
 804,0.04013234,0.00356007,-0.00607613,-0.00927658,-0.01523917,-0.00251
 910,-0.00237421,0.00910915,0.02167695,0.01120672,-0.01962171,-0.001984
 90,-0.00447801,0.00035049,-0.00182053,0.00010560,-0.00480875,-0.000297
 71,-0.00075778,0.00015255,-0.00499466,-0.00589385,0.00550617,0.0202448
 5,0.00170080,-0.01500828,0.00069550,0.00097932,-0.00083067,0.00578514,
 -0.00014037,-0.00446136,-0.00447137,-0.03120399,0.04129150\\0.00000009
 ,0.,0.00000005,-0.00000018,0.00000005,-0.00000007,0.00000015,-0.000000
 07,-0.00000041,-0.00000036,0.00000009,0.00000017,-0.00000011,0.0000000
 9,0.00000034,0.00000049,-0.00000021,-0.00000070,-0.00000030,0.00000008
 ,0.00000014,0.00000038,-0.00000011,-0.00000012,0.00000026,-0.00000002,
 0.00000062,-0.00000007,-0.00000003,-0.00000060,-0.00000050,0.00000017,
 0.00000011,0.00000015,-0.00000003,0.00000049\\\@


 "WHERE SHALL I START, PLEASE YOUR MAJESTY?" HE ASKED.
 "BEGIN AT THE BEGINNING," THE KING SAID GRAVELY,
 "AND GO ON TILL YOU COME TO THE END: THEN STOP." 

                                      -- LEWIS CARROLL
 Job cpu time:       0 days  0 hours  4 minutes  6.2 seconds.
 Elapsed time:       0 days  0 hours  0 minutes 15.6 seconds.
 File lengths (MBytes):  RWF=     27 Int=      0 D2E=      0 Chk=      3 Scr=      1
 Normal termination of Gaussian 16 at Wed Dec 23 22:04:48 2020.
