 Entering Gaussian System, Link 0=g16
 Initial command:
 /apps/cent7/gaussian/g16-B.01/g16-haswell/g16/l1.exe "/scratch/bell/zhao922/YARP/paper-example/KHP-network/pp_0/TS-folder/Gau-31818.inp" -scrdir="/scratch/bell/zhao922/YARP/paper-example/KHP-network/pp_0/TS-folder/"
 Entering Link 1 = /apps/cent7/gaussian/g16-B.01/g16-haswell/g16/l1.exe PID=     31819.
  
 Copyright (c) 1988-2017, Gaussian, Inc.  All Rights Reserved.
  
 This is part of the Gaussian(R) 16 program.  It is based on
 the Gaussian(R) 09 system (copyright 2009, Gaussian, Inc.),
 the Gaussian(R) 03 system (copyright 2003, Gaussian, Inc.),
 the Gaussian(R) 98 system (copyright 1998, Gaussian, Inc.),
 the Gaussian(R) 94 system (copyright 1995, Gaussian, Inc.),
 the Gaussian 92(TM) system (copyright 1992, Gaussian, Inc.),
 the Gaussian 90(TM) system (copyright 1990, Gaussian, Inc.),
 the Gaussian 88(TM) system (copyright 1988, Gaussian, Inc.),
 the Gaussian 86(TM) system (copyright 1986, Carnegie Mellon
 University), and the Gaussian 82(TM) system (copyright 1983,
 Carnegie Mellon University). Gaussian is a federally registered
 trademark of Gaussian, Inc.
  
 This software contains proprietary and confidential information,
 including trade secrets, belonging to Gaussian, Inc.
  
 This software is provided under written license and may be
 used, copied, transmitted, or stored only in accord with that
 written license.
  
 The following legend is applicable only to US Government
 contracts under FAR:
  
                    RESTRICTED RIGHTS LEGEND
  
 Use, reproduction and disclosure by the US Government is
 subject to restrictions as set forth in subparagraphs (a)
 and (c) of the Commercial Computer Software - Restricted
 Rights clause in FAR 52.227-19.
  
 Gaussian, Inc.
 340 Quinnipiac St., Bldg. 40, Wallingford CT 06492
  
  
 ---------------------------------------------------------------
 Warning -- This program may not be used in any manner that
 competes with the business of Gaussian, Inc. or will provide
 assistance to any competitor of Gaussian, Inc.  The licensee
 of this program is prohibited from giving any competitor of
 Gaussian, Inc. access to this program.  By using this program,
 the user acknowledges that Gaussian, Inc. is engaged in the
 business of creating and licensing software in the field of
 computational chemistry and represents and warrants to the
 licensee that it is not a competitor of Gaussian, Inc. and that
 it will not use this program in any manner prohibited above.
 ---------------------------------------------------------------
  

 Cite this work as:
 Gaussian 16, Revision B.01,
 M. J. Frisch, G. W. Trucks, H. B. Schlegel, G. E. Scuseria, 
 M. A. Robb, J. R. Cheeseman, G. Scalmani, V. Barone, 
 G. A. Petersson, H. Nakatsuji, X. Li, M. Caricato, A. V. Marenich, 
 J. Bloino, B. G. Janesko, R. Gomperts, B. Mennucci, H. P. Hratchian, 
 J. V. Ortiz, A. F. Izmaylov, J. L. Sonnenberg, D. Williams-Young, 
 F. Ding, F. Lipparini, F. Egidi, J. Goings, B. Peng, A. Petrone, 
 T. Henderson, D. Ranasinghe, V. G. Zakrzewski, J. Gao, N. Rega, 
 G. Zheng, W. Liang, M. Hada, M. Ehara, K. Toyota, R. Fukuda, 
 J. Hasegawa, M. Ishida, T. Nakajima, Y. Honda, O. Kitao, H. Nakai, 
 T. Vreven, K. Throssell, J. A. Montgomery, Jr., J. E. Peralta, 
 F. Ogliaro, M. J. Bearpark, J. J. Heyd, E. N. Brothers, K. N. Kudin, 
 V. N. Staroverov, T. A. Keith, R. Kobayashi, J. Normand, 
 K. Raghavachari, A. P. Rendell, J. C. Burant, S. S. Iyengar, 
 J. Tomasi, M. Cossi, J. M. Millam, M. Klene, C. Adamo, R. Cammi, 
 J. W. Ochterski, R. L. Martin, K. Morokuma, O. Farkas, 
 J. B. Foresman, and D. J. Fox, Gaussian, Inc., Wallingford CT, 2016.
 
 ******************************************
 Gaussian 16:  ES64L-G16RevB.01 20-Dec-2017
                23-Dec-2020 
 ******************************************
 %NProcShared=16
 Will use up to   16 processors via shared memory.
 %Mem=6GB
 --------------------------------------------------------------
 # B3LYP/6-31+G* OPT=(TS, CALCALL, NOEIGEN, maxcycles=100) Freq
 --------------------------------------------------------------
 1/5=1,6=100,10=4,11=1,18=20,26=3,38=1/1,3;
 2/9=110,12=2,17=6,18=5,40=1/2;
 3/5=1,6=6,7=11,11=2,25=1,30=1,71=2,74=-5,140=1/1,2,3;
 4//1;
 5/5=2,38=5/2;
 8/6=4,10=90,11=11/1;
 11/6=1,8=1,9=11,15=111,16=1/1,2,10;
 10/6=1/2;
 6/7=2,8=2,9=2,10=2,18=1,28=1/1;
 7/10=1,25=1/1,2,3,16;
 1/5=1,6=100,10=4,11=1,18=20,26=3/3(3);
 2/9=110/2;
 7/8=1,9=1,25=1,44=-1/16;
 99//99;
 2/9=110/2;
 3/5=1,6=6,7=11,11=2,25=1,30=1,71=2,74=-5,140=1/1,2,3;
 4/5=5,16=3,69=1/1;
 5/5=2,38=5/2;
 8/6=4,10=90,11=11/1;
 11/6=1,8=1,9=11,15=111,16=1/1,2,10;
 10/6=1/2;
 7/10=1,25=1/1,2,3,16;
 1/5=1,6=100,10=4,11=1,18=20,26=3/3(-8);
 2/9=110/2;
 6/7=2,8=2,9=2,10=2,18=1,19=2,28=1/1;
 7/8=1,9=1,25=1,44=-1/16;
 99//99;
 ----------
 pp_15_0 TS
 ----------
 Symbolic Z-matrix:
 Charge =  0 Multiplicity = 1
 C                     1.1853    1.49926  -2.20389 
 C                     0.95177   0.72198  -0.92512 
 C                     1.1874   -0.75692  -1.08961 
 O                     1.86424   2.59529  -2.0161 
 O                    -0.02833   3.00113  -1.79087 
 O                     1.7447   -1.45551  -0.29585 
 H                     0.16006   3.85266  -1.40208 
 H                     2.37017   1.7764   -3.07957 
 H                     0.61452   1.1912   -3.07486 
 H                     0.76834  -1.17336  -2.02772 
 H                    -0.09785   0.85719  -0.6506 
 H                     1.57543   1.11796  -0.12271 
 
 Add virtual bond connecting atoms H8         and C1         Dist= 2.83D+00.
 Add virtual bond connecting atoms H8         and O4         Dist= 2.71D+00.
 Add virtual bond connecting atoms O5         and C1         Dist= 3.73D+00.
 Add virtual bond connecting atoms O5         and O4         Dist= 3.68D+00.

 GradGradGradGradGradGradGradGradGradGradGradGradGradGradGradGradGradGrad
 Berny optimization.
 Initialization pass.
                           ----------------------------
                           !    Initial Parameters    !
                           ! (Angstroms and Degrees)  !
 --------------------------                            --------------------------
 ! Name  Definition              Value          Derivative Info.                !
 --------------------------------------------------------------------------------
 ! R1    R(1,2)                  1.5146         calculate D2E/DX2 analytically  !
 ! R2    R(1,4)                  1.3029         calculate D2E/DX2 analytically  !
 ! R3    R(1,5)                  1.9746         calculate D2E/DX2 analytically  !
 ! R4    R(1,8)                  1.4992         calculate D2E/DX2 analytically  !
 ! R5    R(1,9)                  1.0859         calculate D2E/DX2 analytically  !
 ! R6    R(2,3)                  1.5066         calculate D2E/DX2 analytically  !
 ! R7    R(2,11)                 1.0933         calculate D2E/DX2 analytically  !
 ! R8    R(2,12)                 1.0907         calculate D2E/DX2 analytically  !
 ! R9    R(3,6)                  1.1953         calculate D2E/DX2 analytically  !
 ! R10   R(3,10)                 1.1086         calculate D2E/DX2 analytically  !
 ! R11   R(4,5)                  1.9487         calculate D2E/DX2 analytically  !
 ! R12   R(4,8)                  1.4344         calculate D2E/DX2 analytically  !
 ! R13   R(5,7)                  0.9549         calculate D2E/DX2 analytically  !
 ! A1    A(2,1,4)              112.9775         calculate D2E/DX2 analytically  !
 ! A2    A(2,1,5)               96.8323         calculate D2E/DX2 analytically  !
 ! A3    A(2,1,8)              135.2264         calculate D2E/DX2 analytically  !
 ! A4    A(2,1,9)              116.7786         calculate D2E/DX2 analytically  !
 ! A5    A(4,1,9)              128.9129         calculate D2E/DX2 analytically  !
 ! A6    A(5,1,8)              117.8611         calculate D2E/DX2 analytically  !
 ! A7    A(5,1,9)               93.4669         calculate D2E/DX2 analytically  !
 ! A8    A(8,1,9)               89.9647         calculate D2E/DX2 analytically  !
 ! A9    A(1,2,3)              112.7975         calculate D2E/DX2 analytically  !
 ! A10   A(1,2,11)             107.2508         calculate D2E/DX2 analytically  !
 ! A11   A(1,2,12)             110.2835         calculate D2E/DX2 analytically  !
 ! A12   A(3,2,11)             107.3956         calculate D2E/DX2 analytically  !
 ! A13   A(3,2,12)             110.321          calculate D2E/DX2 analytically  !
 ! A14   A(11,2,12)            108.622          calculate D2E/DX2 analytically  !
 ! A15   A(2,3,6)              125.04           calculate D2E/DX2 analytically  !
 ! A16   A(2,3,10)             113.7034         calculate D2E/DX2 analytically  !
 ! A17   A(6,3,10)             121.2409         calculate D2E/DX2 analytically  !
 ! A18   A(5,4,8)              123.1718         calculate D2E/DX2 analytically  !
 ! A19   A(1,5,7)              129.9555         calculate D2E/DX2 analytically  !
 ! A20   A(4,5,7)               92.36           calculate D2E/DX2 analytically  !
 ! D1    D(4,1,2,3)           -135.8285         calculate D2E/DX2 analytically  !
 ! D2    D(4,1,2,11)           106.1311         calculate D2E/DX2 analytically  !
 ! D3    D(4,1,2,12)           -11.9833         calculate D2E/DX2 analytically  !
 ! D4    D(5,1,2,3)            153.5466         calculate D2E/DX2 analytically  !
 ! D5    D(5,1,2,11)            35.5062         calculate D2E/DX2 analytically  !
 ! D6    D(5,1,2,12)           -82.6082         calculate D2E/DX2 analytically  !
 ! D7    D(8,1,2,3)            -64.3572         calculate D2E/DX2 analytically  !
 ! D8    D(8,1,2,11)           177.6024         calculate D2E/DX2 analytically  !
 ! D9    D(8,1,2,12)            59.4879         calculate D2E/DX2 analytically  !
 ! D10   D(9,1,2,3)             56.1529         calculate D2E/DX2 analytically  !
 ! D11   D(9,1,2,11)           -61.8875         calculate D2E/DX2 analytically  !
 ! D12   D(9,1,2,12)           179.9981         calculate D2E/DX2 analytically  !
 ! D13   D(2,1,5,7)             95.119          calculate D2E/DX2 analytically  !
 ! D14   D(8,1,5,7)            -55.579          calculate D2E/DX2 analytically  !
 ! D15   D(9,1,5,7)           -147.3741         calculate D2E/DX2 analytically  !
 ! D16   D(1,2,3,6)            138.6117         calculate D2E/DX2 analytically  !
 ! D17   D(1,2,3,10)           -42.8204         calculate D2E/DX2 analytically  !
 ! D18   D(11,2,3,6)          -103.4329         calculate D2E/DX2 analytically  !
 ! D19   D(11,2,3,10)           75.135          calculate D2E/DX2 analytically  !
 ! D20   D(12,2,3,6)            14.7872         calculate D2E/DX2 analytically  !
 ! D21   D(12,2,3,10)         -166.6449         calculate D2E/DX2 analytically  !
 ! D22   D(1,4,5,8)            -43.6202         calculate D2E/DX2 analytically  !
 ! D23   D(8,4,5,7)           -149.2676         calculate D2E/DX2 analytically  !
 --------------------------------------------------------------------------------
 Trust Radius=3.00D-01 FncErr=1.00D-07 GrdErr=1.00D-06 EigMax=2.50D+02 EigMin=1.00D-04
 Number of steps in this run=    100 maximum allowed number of steps=    100.
 Search for a saddle point of order  1.
 GradGradGradGradGradGradGradGradGradGradGradGradGradGradGradGradGradGrad

                          Input orientation:                          
 ---------------------------------------------------------------------
 Center     Atomic      Atomic             Coordinates (Angstroms)
 Number     Number       Type             X           Y           Z
 ---------------------------------------------------------------------
      1          6           0        1.185302    1.499259   -2.203893
      2          6           0        0.951771    0.721980   -0.925118
      3          6           0        1.187404   -0.756922   -1.089608
      4          8           0        1.864243    2.595286   -2.016098
      5          8           0       -0.028326    3.001127   -1.790868
      6          8           0        1.744699   -1.455505   -0.295851
      7          1           0        0.160061    3.852658   -1.402078
      8          1           0        2.370173    1.776403   -3.079565
      9          1           0        0.614518    1.191204   -3.074864
     10          1           0        0.768338   -1.173363   -2.027716
     11          1           0       -0.097851    0.857192   -0.650597
     12          1           0        1.575428    1.117958   -0.122710
 ---------------------------------------------------------------------
                    Distance matrix (angstroms):
                    1          2          3          4          5
     1  C    0.000000
     2  C    1.514584   0.000000
     3  C    2.516344   1.506563   0.000000
     4  O    1.302883   2.352045   3.543133   0.000000
     5  O    1.974611   2.627665   4.011570   1.948654   0.000000
     6  O    3.561486   2.401281   1.195260   4.402550   5.023969
     7  H    2.689333   3.264267   4.733001   2.205049   0.954857
     8  H    1.499176   2.786631   3.431706   1.434398   2.985546
     9  H    1.085948   2.226054   2.839830   2.157370   2.310350
    10  H    2.710684   2.200385   1.108642   3.924775   4.256423
    11  H    2.114583   1.093321   2.109496   2.955567   2.429302
    12  H    2.151491   1.090690   2.144908   2.418849   2.983472
                    6          7          8          9         10
     6  O    0.000000
     7  H    5.649019   0.000000
     8  H    4.311092   3.465457   0.000000
     9  H    4.000661   3.176174   1.850623   0.000000
    10  H    2.008044   5.101207   3.517582   2.590629   0.000000
    11  H    2.978154   3.099042   3.582733   2.548746   2.601902
    12  H    2.584829   3.334461   3.131798   3.105467   3.087166
                   11         12
    11  H    0.000000
    12  H    1.773845   0.000000
 Stoichiometry    C3H6O3
 Framework group  C1[X(C3H6O3)]
 Deg. of freedom    30
 Full point group                 C1      NOp   1
 Largest Abelian subgroup         C1      NOp   1
 Largest concise Abelian subgroup C1      NOp   1
                         Standard orientation:                         
 ---------------------------------------------------------------------
 Center     Atomic      Atomic             Coordinates (Angstroms)
 Number     Number       Type             X           Y           Z
 ---------------------------------------------------------------------
      1          6           0        0.674615    0.421016    0.439734
      2          6           0       -0.420933   -0.389362   -0.221346
      3          6           0       -1.786344   -0.095086    0.343265
      4          8           0        1.522259    0.921802   -0.413621
      5          8           0        2.145734   -0.851554    0.099934
      6          8           0       -2.785599    0.020457   -0.302325
      7          1           0        2.783259   -0.876353   -0.610489
      8          1           0        1.015113    1.878387    0.527253
      9          1           0        0.762495    0.336372    1.518806
     10          1           0       -1.803414   -0.013720    1.448785
     11          1           0       -0.206910   -1.443668   -0.026451
     12          1           0       -0.413728   -0.226072   -1.299719
 ---------------------------------------------------------------------
 Rotational constants (GHZ):           9.8544058           1.6367552           1.5328562
 Standard basis: 6-31+G(d) (6D, 7F)
 There are   126 symmetry adapted cartesian basis functions of A   symmetry.
 There are   126 symmetry adapted basis functions of A   symmetry.
   126 basis functions,   216 primitive gaussians,   126 cartesian basis functions
    24 alpha electrons       24 beta electrons
       nuclear repulsion energy       233.2775323687 Hartrees.
 NAtoms=   12 NActive=   12 NUniq=   12 SFac= 1.00D+00 NAtFMM=   60 NAOKFM=F Big=F
 Integral buffers will be    131072 words long.
 Raffenetti 2 integral format.
 Two-electron integral symmetry is turned on.
 One-electron integrals computed using PRISM.
 NBasis=   126 RedAO= T EigKep=  9.54D-05  NBF=   126
 NBsUse=   126 1.00D-06 EigRej= -1.00D+00 NBFU=   126
 ExpMin= 4.38D-02 ExpMax= 5.48D+03 ExpMxC= 8.25D+02 IAcc=3 IRadAn=         5 AccDes= 0.00D+00
 Harris functional with IExCor=  402 and IRadAn=       5 diagonalized for initial guess.
 HarFok:  IExCor=  402 AccDes= 0.00D+00 IRadAn=         5 IDoV= 1 UseB2=F ITyADJ=14
 ICtDFT=  3500011 ScaDFX=  1.000000  1.000000  1.000000  1.000000
 FoFCou: FMM=F IPFlag=           0 FMFlag=      100000 FMFlg1=           0
         NFxFlg=           0 DoJE=T BraDBF=F KetDBF=T FulRan=T
         wScrn=  0.000000 ICntrl=       500 IOpCl=  0 I1Cent=   200000004 NGrid=           0
         NMat0=    1 NMatS0=      1 NMatT0=    0 NMatD0=    1 NMtDS0=    0 NMtDT0=    0
 Petite list used in FoFCou.
 Keep R1 ints in memory in canonical form, NReq=47237561.
 Requested convergence on RMS density matrix=1.00D-08 within 128 cycles.
 Requested convergence on MAX density matrix=1.00D-06.
 Requested convergence on             energy=1.00D-06.
 No special actions if energy rises.
 EnCoef did     2 forward-backward iterations
 EnCoef did     5 forward-backward iterations
 SCF Done:  E(RB3LYP) =  -343.333050590     A.U. after   18 cycles
            NFock= 18  Conv=0.26D-08     -V/T= 2.0084
 DoSCS=F DFT=T ScalE2(SS,OS)=  1.000000  1.000000
 Range of M.O.s used for correlation:     1   126
 NBasis=   126 NAE=    24 NBE=    24 NFC=     0 NFV=     0
 NROrb=    126 NOA=    24 NOB=    24 NVA=   102 NVB=   102

 **** Warning!!: The largest alpha MO coefficient is  0.32381115D+02


 **** Warning!!: The smallest alpha delta epsilon is  0.97461895D-01

 Symmetrizing basis deriv contribution to polar:
 IMax=3 JMax=2 DiffMx= 0.00D+00
 G2DrvN: will do    13 centers at a time, making    1 passes.
 Calling FoFCou, ICntrl=  3107 FMM=F I1Cent=   0 AccDes= 0.00D+00.
 End of G2Drv F.D. properties file   721 does not exist.
 End of G2Drv F.D. properties file   722 does not exist.
 End of G2Drv F.D. properties file   788 does not exist.
          IDoAtm=111111111111
          Differentiating once with respect to electric field.
                with respect to dipole field.
          Differentiating once with respect to nuclear coordinates.
 Keep R1 ints in memory in canonical form, NReq=47193583.
          There are    39 degrees of freedom in the 1st order CPHF.  IDoFFX=6 NUNeed=     3.
     36 vectors produced by pass  0 Test12= 6.28D-15 2.56D-09 XBig12= 1.44D+02 8.98D+00.
 AX will form    36 AO Fock derivatives at one time.
     36 vectors produced by pass  1 Test12= 6.28D-15 2.56D-09 XBig12= 5.58D+01 1.48D+00.
     36 vectors produced by pass  2 Test12= 6.28D-15 2.56D-09 XBig12= 7.23D-01 1.54D-01.
     36 vectors produced by pass  3 Test12= 6.28D-15 2.56D-09 XBig12= 4.04D-03 8.73D-03.
     36 vectors produced by pass  4 Test12= 6.28D-15 2.56D-09 XBig12= 7.87D-06 3.39D-04.
     31 vectors produced by pass  5 Test12= 6.28D-15 2.56D-09 XBig12= 8.33D-09 9.91D-06.
      4 vectors produced by pass  6 Test12= 6.28D-15 2.56D-09 XBig12= 6.79D-12 3.86D-07.
      2 vectors produced by pass  7 Test12= 6.28D-15 2.56D-09 XBig12= 6.26D-15 9.69D-09.
 InvSVY:  IOpt=1 It=  1 EMax= 5.33D-15
 Solved reduced A of dimension   217 with    39 vectors.
 Isotropic polarizability for W=    0.000000       66.24 Bohr**3.
 End of Minotr F.D. properties file   721 does not exist.
 End of Minotr F.D. properties file   722 does not exist.
 End of Minotr F.D. properties file   788 does not exist.

 **********************************************************************

            Population analysis using the SCF Density.

 **********************************************************************

 Orbital symmetries:
       Occupied  (A) (A) (A) (A) (A) (A) (A) (A) (A) (A) (A) (A)
                 (A) (A) (A) (A) (A) (A) (A) (A) (A) (A) (A) (A)
       Virtual   (A) (A) (A) (A) (A) (A) (A) (A) (A) (A) (A) (A)
                 (A) (A) (A) (A) (A) (A) (A) (A) (A) (A) (A) (A)
                 (A) (A) (A) (A) (A) (A) (A) (A) (A) (A) (A) (A)
                 (A) (A) (A) (A) (A) (A) (A) (A) (A) (A) (A) (A)
                 (A) (A) (A) (A) (A) (A) (A) (A) (A) (A) (A) (A)
                 (A) (A) (A) (A) (A) (A) (A) (A) (A) (A) (A) (A)
                 (A) (A) (A) (A) (A) (A) (A) (A) (A) (A) (A) (A)
                 (A) (A) (A) (A) (A) (A) (A) (A) (A) (A) (A) (A)
                 (A) (A) (A) (A) (A) (A)
 The electronic state is 1-A.
 Alpha  occ. eigenvalues --  -19.27535 -19.18914 -19.11880 -10.36858 -10.31291
 Alpha  occ. eigenvalues --  -10.23384  -1.13016  -1.09135  -0.92625  -0.82230
 Alpha  occ. eigenvalues --   -0.67681  -0.62640  -0.55232  -0.53797  -0.51536
 Alpha  occ. eigenvalues --   -0.48989  -0.46654  -0.44009  -0.41309  -0.40146
 Alpha  occ. eigenvalues --   -0.35664  -0.29098  -0.26694  -0.24091
 Alpha virt. eigenvalues --   -0.14345  -0.06649  -0.05404  -0.00168   0.01469
 Alpha virt. eigenvalues --    0.02759   0.05033   0.05417   0.06210   0.07218
 Alpha virt. eigenvalues --    0.07780   0.08648   0.11241   0.11607   0.14350
 Alpha virt. eigenvalues --    0.15848   0.17294   0.18533   0.18968   0.20014
 Alpha virt. eigenvalues --    0.21146   0.22669   0.23976   0.25445   0.26478
 Alpha virt. eigenvalues --    0.26760   0.28016   0.29298   0.30704   0.31709
 Alpha virt. eigenvalues --    0.31954   0.33304   0.34155   0.36228   0.40001
 Alpha virt. eigenvalues --    0.43318   0.58187   0.63176   0.65647   0.68407
 Alpha virt. eigenvalues --    0.69258   0.71449   0.76953   0.79538   0.82277
 Alpha virt. eigenvalues --    0.89396   0.91906   0.95825   0.99131   1.02058
 Alpha virt. eigenvalues --    1.05249   1.09288   1.10084   1.15694   1.17648
 Alpha virt. eigenvalues --    1.21323   1.23381   1.25296   1.26092   1.27958
 Alpha virt. eigenvalues --    1.29073   1.36841   1.38052   1.42813   1.49225
 Alpha virt. eigenvalues --    1.50404   1.54708   1.56640   1.61835   1.63272
 Alpha virt. eigenvalues --    1.71572   1.72951   1.76097   1.78343   1.79884
 Alpha virt. eigenvalues --    1.82960   1.85208   1.93635   1.99616   2.01929
 Alpha virt. eigenvalues --    2.05444   2.07143   2.10194   2.17869   2.24940
 Alpha virt. eigenvalues --    2.39233   2.44758   2.53091   2.56694   2.58414
 Alpha virt. eigenvalues --    2.59329   2.66955   2.75588   2.91639   2.94351
 Alpha virt. eigenvalues --    3.08638   4.04254   4.13080   4.17780   4.25782
 Alpha virt. eigenvalues --    4.30572   4.49965
          Condensed to atoms (all electrons):
               1          2          3          4          5          6
     1  C    5.469800  -0.182818  -0.044441   0.194123   0.075635  -0.004872
     2  C   -0.182818   6.527160  -0.033293  -0.201941  -0.061365  -0.101712
     3  C   -0.044441  -0.033293   5.024042   0.054092  -0.015691   0.470206
     4  O    0.194123  -0.201941   0.054092   8.508467  -0.307633  -0.001683
     5  O    0.075635  -0.061365  -0.015691  -0.307633   8.960599   0.000061
     6  O   -0.004872  -0.101712   0.470206  -0.001683   0.000061   8.053609
     7  H    0.005098  -0.005642   0.002551   0.026291   0.166363   0.000002
     8  H    0.237666   0.071031  -0.046359  -0.225050   0.082481   0.000102
     9  H    0.369521  -0.070344   0.011720  -0.003645  -0.044644  -0.000286
    10  H    0.029862  -0.128937   0.355919  -0.000945  -0.000499  -0.061942
    11  H   -0.064093   0.416210  -0.034202   0.000261  -0.014551  -0.003814
    12  H   -0.041002   0.395784  -0.037319   0.001478  -0.005010   0.001024
               7          8          9         10         11         12
     1  C    0.005098   0.237666   0.369521   0.029862  -0.064093  -0.041002
     2  C   -0.005642   0.071031  -0.070344  -0.128937   0.416210   0.395784
     3  C    0.002551  -0.046359   0.011720   0.355919  -0.034202  -0.037319
     4  O    0.026291  -0.225050  -0.003645  -0.000945   0.000261   0.001478
     5  O    0.166363   0.082481  -0.044644  -0.000499  -0.014551  -0.005010
     6  O    0.000002   0.000102  -0.000286  -0.061942  -0.003814   0.001024
     7  H    0.342560  -0.001254   0.001003   0.000003   0.000349   0.000074
     8  H   -0.001254   0.766861  -0.039051   0.000371   0.000425  -0.000481
     9  H    0.001003  -0.039051   0.503463   0.001073   0.001601   0.002555
    10  H    0.000003   0.000371   0.001073   0.644709   0.000979   0.003721
    11  H    0.000349   0.000425   0.001601   0.000979   0.407207  -0.015893
    12  H    0.000074  -0.000481   0.002555   0.003721  -0.015893   0.433075
 Mulliken charges:
               1
     1  C   -0.044479
     2  C   -0.624133
     3  C    0.292776
     4  O   -0.043815
     5  O   -0.835747
     6  O   -0.350694
     7  H    0.462604
     8  H    0.153258
     9  H    0.267034
    10  H    0.155684
    11  H    0.305519
    12  H    0.261993
 Sum of Mulliken charges =  -0.00000
 Mulliken charges with hydrogens summed into heavy atoms:
               1
     1  C    0.222556
     2  C   -0.056621
     3  C    0.448460
     4  O    0.109443
     5  O   -0.373143
     6  O   -0.350694
 APT charges:
               1
     1  C    0.323621
     2  C   -0.239918
     3  C    0.882147
     4  O    0.420306
     5  O   -0.799757
     6  O   -0.682770
     7  H    0.281055
     8  H   -0.290260
     9  H    0.075302
    10  H   -0.079241
    11  H    0.090394
    12  H    0.019123
 Sum of APT charges =  -0.00000
 APT charges with hydrogens summed into heavy atoms:
               1
     1  C    0.398922
     2  C   -0.130401
     3  C    0.802906
     4  O    0.130046
     5  O   -0.518702
     6  O   -0.682770
 Electronic spatial extent (au):  <R**2>=            752.6611
 Charge=              0.0000 electrons
 Dipole moment (field-independent basis, Debye):
    X=              0.0930    Y=              0.8516    Z=              1.2728  Tot=              1.5342
 Quadrupole moment (field-independent basis, Debye-Ang):
   XX=            -50.3031   YY=            -36.9934   ZZ=            -34.1863
   XY=              3.1302   XZ=             -5.1847   YZ=              2.4215
 Traceless Quadrupole moment (field-independent basis, Debye-Ang):
   XX=             -9.8088   YY=              3.5008   ZZ=              6.3080
   XY=              3.1302   XZ=             -5.1847   YZ=              2.4215
 Octapole moment (field-independent basis, Debye-Ang**2):
  XXX=             32.6294  YYY=              0.1729  ZZZ=             -1.0911  XYY=             -3.4846
  XXY=              0.5259  XXZ=             -4.6220  XZZ=              2.2786  YZZ=             -0.2099
  YYZ=             -0.9563  XYZ=              5.2974
 Hexadecapole moment (field-independent basis, Debye-Ang**3):
 XXXX=           -802.3274 YYYY=           -139.5438 ZZZZ=            -80.4543 XXXY=              0.4679
 XXXZ=            -52.6811 YYYX=              7.7620 YYYZ=             -0.6200 ZZZX=             -3.3241
 ZZZY=             -0.0146 XXYY=           -144.9510 XXZZ=           -128.5841 YYZZ=            -38.6715
 XXYZ=             11.2517 YYXZ=             -1.7396 ZZXY=             -0.2989
 N-N= 2.332775323687D+02 E-N=-1.270597748223D+03  KE= 3.404626178724D+02
  Exact polarizability:  77.379 -14.996  72.319  -1.755   5.860  49.014
 Approx polarizability: 117.227 -57.043 176.789  -7.824  15.789  74.812
 Calling FoFJK, ICntrl=    100127 FMM=F ISym2X=0 I1Cent= 0 IOpClX= 0 NMat=1 NMatS=1 NMatT=0.
 ***** Axes restored to original set *****
 -------------------------------------------------------------------
 Center     Atomic                   Forces (Hartrees/Bohr)
 Number     Number              X              Y              Z
 -------------------------------------------------------------------
      1        6           0.018435700    0.001403020    0.036385303
      2        6           0.009383489   -0.012497644   -0.005669154
      3        6          -0.012162598    0.009830389   -0.017214940
      4        8          -0.011626279   -0.020242083   -0.051519513
      5        8          -0.017516437    0.016909931    0.006368824
      6        8           0.012208190   -0.014678885    0.017121760
      7        1          -0.010813830    0.020361424    0.011795218
      8        1           0.017968227   -0.006303208    0.016718927
      9        1          -0.001949088    0.007721843   -0.009676843
     10        1          -0.000866451   -0.004927499   -0.002533969
     11        1          -0.003079780    0.000760581   -0.001768969
     12        1           0.000018858    0.001662130   -0.000006642
 -------------------------------------------------------------------
 Cartesian Forces:  Max     0.051519513 RMS     0.015357266
 FormGI is forming the generalized inverse of G from B-inverse, IUseBI=4.

 GradGradGradGradGradGradGradGradGradGradGradGradGradGradGradGradGradGrad
 Berny optimization.
 Internal  Forces:  Max     0.035351507 RMS     0.011281922
 Search for a saddle point.
 Step number   1 out of a maximum of  100
 All quantities printed in internal units (Hartrees-Bohrs-Radians)
 Swapping is turned off.
 Second derivative matrix not updated -- analytic derivatives used.
 ITU=  0
     Eigenvalues ---   -0.30092  -0.01955  -0.01188  -0.00015   0.00150
     Eigenvalues ---    0.00336   0.02206   0.02578   0.02741   0.03431
     Eigenvalues ---    0.04517   0.04928   0.06638   0.07194   0.08099
     Eigenvalues ---    0.09358   0.09761   0.10981   0.14699   0.16348
     Eigenvalues ---    0.21382   0.26299   0.29571   0.30988   0.34682
     Eigenvalues ---    0.35379   0.35722   0.42141   0.57084   0.96990
 Eigenvectors required to have negative eigenvalues:
                          R3        R4        R11       R12       D3
   1                    0.46481  -0.42038  -0.41998   0.37623  -0.23516
                          D2        D1        D22       A19       A2
   1                   -0.23338  -0.23255   0.13120   0.11363   0.09759
 RFO step:  Lambda0=2.324414107D-04 Lambda=-4.94531260D-02.
 Linear search not attempted -- option 19 set.
 Maximum step size (   0.300) exceeded in Quadratic search.
    -- Step size scaled by   0.352
 Iteration  1 RMS(Cart)=  0.04321833 RMS(Int)=  0.00350636
 Iteration  2 RMS(Cart)=  0.00226004 RMS(Int)=  0.00138253
 Iteration  3 RMS(Cart)=  0.00001105 RMS(Int)=  0.00138246
 Iteration  4 RMS(Cart)=  0.00000001 RMS(Int)=  0.00138246
 Variable       Old X    -DE/DX   Delta X   Delta X   Delta X     New X
                                 (Linear)    (Quad)   (Total)
    R1        2.86215   0.00084   0.00000  -0.01436  -0.01436   2.84779
    R2        2.46209  -0.01435   0.00000  -0.01522  -0.01325   2.44884
    R3        3.73147   0.03535   0.00000   0.10458   0.10291   3.83439
    R4        2.83303   0.00982   0.00000   0.03687   0.03491   2.86794
    R5        2.05214   0.00660   0.00000   0.00278   0.00278   2.05492
    R6        2.84699   0.00976   0.00000   0.01028   0.01028   2.85727
    R7        2.06608   0.00261   0.00000   0.00284   0.00284   2.06892
    R8        2.06111   0.00061   0.00000   0.00164   0.00164   2.06275
    R9        2.25871   0.02564   0.00000   0.00816   0.00816   2.26687
   R10        2.09503   0.00432   0.00000   0.00181   0.00181   2.09684
   R11        3.68242   0.01007   0.00000   0.01119   0.01213   3.69455
   R12        2.71062  -0.01564   0.00000  -0.14792  -0.14646   2.56416
   R13        1.80442   0.02083   0.00000   0.01043   0.01043   1.81484
    A1        1.97183   0.02312   0.00000   0.07414   0.07478   2.04661
    A2        1.69004   0.01524   0.00000   0.03088   0.03037   1.72041
    A3        2.36015  -0.01887   0.00000  -0.02815  -0.02732   2.33283
    A4        2.03817   0.00059   0.00000   0.01545   0.01511   2.05328
    A5        2.24995  -0.02300   0.00000  -0.08401  -0.08474   2.16521
    A6        2.05706   0.00470   0.00000  -0.03478  -0.03615   2.02091
    A7        1.63131  -0.00670   0.00000   0.01232   0.01181   1.64312
    A8        1.57018   0.00650   0.00000   0.01926   0.01933   1.58951
    A9        1.96869   0.00369   0.00000  -0.00109  -0.00110   1.96759
   A10        1.87188  -0.00253   0.00000   0.00072   0.00071   1.87259
   A11        1.92481  -0.00178   0.00000   0.00237   0.00237   1.92718
   A12        1.87441  -0.00055   0.00000  -0.00178  -0.00178   1.87263
   A13        1.92546  -0.00018   0.00000   0.00009   0.00009   1.92555
   A14        1.89581   0.00127   0.00000  -0.00040  -0.00040   1.89541
   A15        2.18236  -0.00297   0.00000  -0.00765  -0.00765   2.17471
   A16        1.98450   0.00519   0.00000   0.01053   0.01053   1.99503
   A17        2.11605  -0.00222   0.00000  -0.00293  -0.00293   2.11312
   A18        2.14975   0.03465   0.00000   0.12132   0.12560   2.27535
   A19        2.26815   0.00929   0.00000   0.08378   0.07973   2.34788
   A20        1.61199   0.02016   0.00000   0.12687   0.12955   1.74154
    D1       -2.37066  -0.00265   0.00000  -0.01132  -0.01073  -2.38138
    D2        1.85234  -0.00247   0.00000  -0.00896  -0.00837   1.84397
    D3       -0.20915  -0.00154   0.00000  -0.01021  -0.00962  -0.21877
    D4        2.67989  -0.00231   0.00000   0.00821   0.00803   2.68793
    D5        0.61970  -0.00213   0.00000   0.01056   0.01039   0.63009
    D6       -1.44179  -0.00120   0.00000   0.00932   0.00914  -1.43264
    D7       -1.12325   0.00659   0.00000  -0.04987  -0.05005  -1.17330
    D8        3.09975   0.00677   0.00000  -0.04751  -0.04770   3.05205
    D9        1.03826   0.00770   0.00000  -0.04876  -0.04894   0.98932
   D10        0.98005  -0.00281   0.00000  -0.02485  -0.02508   0.95497
   D11       -1.08014  -0.00263   0.00000  -0.02250  -0.02273  -1.10287
   D12        3.14156  -0.00169   0.00000  -0.02374  -0.02397   3.11759
   D13        1.66014   0.00009   0.00000  -0.13923  -0.14002   1.52012
   D14       -0.97004   0.00575   0.00000  -0.09177  -0.09334  -1.06338
   D15       -2.57216   0.00157   0.00000  -0.11745  -0.11788  -2.69004
   D16        2.41923   0.00036   0.00000   0.00716   0.00716   2.42639
   D17       -0.74736   0.00022   0.00000   0.00514   0.00514  -0.74222
   D18       -1.80525  -0.00097   0.00000   0.00627   0.00627  -1.79898
   D19        1.31135  -0.00111   0.00000   0.00424   0.00424   1.31560
   D20        0.25808   0.00013   0.00000   0.00479   0.00479   0.26287
   D21       -2.90850  -0.00001   0.00000   0.00277   0.00277  -2.90574
   D22       -0.76132   0.00182   0.00000  -0.01906  -0.01471  -0.77602
   D23       -2.60521  -0.01477   0.00000  -0.12275  -0.11787  -2.72308
         Item               Value     Threshold  Converged?
 Maximum Force            0.035352     0.000450     NO 
 RMS     Force            0.011282     0.000300     NO 
 Maximum Displacement     0.175671     0.001800     NO 
 RMS     Displacement     0.043290     0.001200     NO 
 Predicted change in Energy=-1.883975D-02
 GradGradGradGradGradGradGradGradGradGradGradGradGradGradGradGradGradGrad

                          Input orientation:                          
 ---------------------------------------------------------------------
 Center     Atomic      Atomic             Coordinates (Angstroms)
 Number     Number       Type             X           Y           Z
 ---------------------------------------------------------------------
      1          6           0        1.184568    1.483547   -2.196414
      2          6           0        0.958809    0.711518   -0.922048
      3          6           0        1.183757   -0.774061   -1.091182
      4          8           0        1.850814    2.591591   -2.109059
      5          8           0       -0.021029    3.068584   -1.807414
      6          8           0        1.741091   -1.473962   -0.292118
      7          1           0        0.095243    3.908358   -1.356218
      8          1           0        2.411621    1.778486   -3.039391
      9          1           0        0.627616    1.175740   -3.078193
     10          1           0        0.760994   -1.196500   -2.026077
     11          1           0       -0.089169    0.851733   -0.637934
     12          1           0        1.591444    1.102242   -0.122918
 ---------------------------------------------------------------------
                    Distance matrix (angstroms):
                    1          2          3          4          5
     1  C    0.000000
     2  C    1.506986   0.000000
     3  C    2.513629   1.512003   0.000000
     4  O    1.295869   2.395693   3.578917   0.000000
     5  O    2.029070   2.701799   4.090283   1.955072   0.000000
     6  O    3.561309   2.405223   1.199578   4.454440   5.102540
     7  H    2.787878   3.339766   4.814577   2.320059   0.960374
     8  H    1.517649   2.780688   3.437828   1.356894   3.016604
     9  H    1.087417   2.230282   2.838878   2.107147   2.370332
    10  H    2.718655   2.213266   1.109600   3.942617   4.341695
    11  H    2.109610   1.094824   2.113996   2.992465   2.507340
    12  H    2.147168   1.091559   2.150409   2.496035   3.050262
                    6          7          8          9         10
     6  O    0.000000
     7  H    5.728044   0.000000
     8  H    4.309935   3.568617   0.000000
     9  H    4.002870   3.273503   1.883476   0.000000
    10  H    2.011017   5.191485   3.549918   2.598512   0.000000
    11  H    2.979647   3.145297   3.588846   2.563908   2.616291
    12  H    2.586088   3.410855   3.104160   3.109344   3.097722
                   11         12
    11  H    0.000000
    12  H    1.775516   0.000000
 Stoichiometry    C3H6O3
 Framework group  C1[X(C3H6O3)]
 Deg. of freedom    30
 Full point group                 C1      NOp   1
 Largest Abelian subgroup         C1      NOp   1
 Largest concise Abelian subgroup C1      NOp   1
                         Standard orientation:                         
 ---------------------------------------------------------------------
 Center     Atomic      Atomic             Coordinates (Angstroms)
 Number     Number       Type             X           Y           Z
 ---------------------------------------------------------------------
      1          6           0        0.652510    0.432895    0.403270
      2          6           0       -0.440827   -0.402063   -0.211925
      3          6           0       -1.807492   -0.080741    0.349439
      4          8           0        1.545124    0.925006   -0.396945
      5          8           0        2.204512   -0.842376    0.116743
      6          8           0       -2.810783   -0.002013   -0.303398
      7          1           0        2.821478   -1.001551   -0.601822
      8          1           0        0.994804    1.910680    0.355886
      9          1           0        0.743824    0.425595    1.486822
     10          1           0       -1.828195    0.057299    1.450224
     11          1           0       -0.227050   -1.448056    0.030641
     12          1           0       -0.440829   -0.289446   -1.297659
 ---------------------------------------------------------------------
 Rotational constants (GHZ):           9.9017208           1.5966684           1.4920445
 Standard basis: 6-31+G(d) (6D, 7F)
 There are   126 symmetry adapted cartesian basis functions of A   symmetry.
 There are   126 symmetry adapted basis functions of A   symmetry.
   126 basis functions,   216 primitive gaussians,   126 cartesian basis functions
    24 alpha electrons       24 beta electrons
       nuclear repulsion energy       231.7475633908 Hartrees.
 NAtoms=   12 NActive=   12 NUniq=   12 SFac= 1.00D+00 NAtFMM=   60 NAOKFM=F Big=F
 Integral buffers will be    131072 words long.
 Raffenetti 2 integral format.
 Two-electron integral symmetry is turned on.
 One-electron integrals computed using PRISM.
 NBasis=   126 RedAO= T EigKep=  9.47D-05  NBF=   126
 NBsUse=   126 1.00D-06 EigRej= -1.00D+00 NBFU=   126
 Initial guess from the checkpoint file:  "/scratch/bell/zhao922/YARP/paper-example/KHP-network/pp_0/TS-folder/Gau-31819.chk"
 B after Tr=     0.000000   -0.000000    0.000000
         Rot=    0.999859    0.016692    0.000584   -0.001558 Ang=   1.92 deg.
 ExpMin= 4.38D-02 ExpMax= 5.48D+03 ExpMxC= 8.25D+02 IAcc=3 IRadAn=         5 AccDes= 0.00D+00
 Harris functional with IExCor=  402 and IRadAn=       5 diagonalized for initial guess.
 HarFok:  IExCor=  402 AccDes= 0.00D+00 IRadAn=         5 IDoV= 1 UseB2=F ITyADJ=14
 ICtDFT=  3500011 ScaDFX=  1.000000  1.000000  1.000000  1.000000
 FoFCou: FMM=F IPFlag=           0 FMFlag=      100000 FMFlg1=           0
         NFxFlg=           0 DoJE=T BraDBF=F KetDBF=T FulRan=T
         wScrn=  0.000000 ICntrl=       500 IOpCl=  0 I1Cent=   200000004 NGrid=           0
         NMat0=    1 NMatS0=      1 NMatT0=    0 NMatD0=    1 NMtDS0=    0 NMtDT0=    0
 Petite list used in FoFCou.
 Keep R1 ints in memory in canonical form, NReq=47237561.
 Requested convergence on RMS density matrix=1.00D-08 within 128 cycles.
 Requested convergence on MAX density matrix=1.00D-06.
 Requested convergence on             energy=1.00D-06.
 No special actions if energy rises.
 SCF Done:  E(RB3LYP) =  -343.351550934     A.U. after   14 cycles
            NFock= 14  Conv=0.69D-08     -V/T= 2.0086
 DoSCS=F DFT=T ScalE2(SS,OS)=  1.000000  1.000000
 Range of M.O.s used for correlation:     1   126
 NBasis=   126 NAE=    24 NBE=    24 NFC=     0 NFV=     0
 NROrb=    126 NOA=    24 NOB=    24 NVA=   102 NVB=   102

 **** Warning!!: The largest alpha MO coefficient is  0.34687046D+02

 Symmetrizing basis deriv contribution to polar:
 IMax=3 JMax=2 DiffMx= 0.00D+00
 G2DrvN: will do    13 centers at a time, making    1 passes.
 Calling FoFCou, ICntrl=  3107 FMM=F I1Cent=   0 AccDes= 0.00D+00.
 End of G2Drv F.D. properties file   721 does not exist.
 End of G2Drv F.D. properties file   722 does not exist.
 End of G2Drv F.D. properties file   788 does not exist.
          IDoAtm=111111111111
          Differentiating once with respect to electric field.
                with respect to dipole field.
          Differentiating once with respect to nuclear coordinates.
 Keep R1 ints in memory in canonical form, NReq=47193583.
          There are    39 degrees of freedom in the 1st order CPHF.  IDoFFX=6 NUNeed=     3.
     36 vectors produced by pass  0 Test12= 6.28D-15 2.56D-09 XBig12= 1.40D+02 9.15D+00.
 AX will form    36 AO Fock derivatives at one time.
     36 vectors produced by pass  1 Test12= 6.28D-15 2.56D-09 XBig12= 4.40D+01 1.37D+00.
     36 vectors produced by pass  2 Test12= 6.28D-15 2.56D-09 XBig12= 6.93D-01 1.51D-01.
     36 vectors produced by pass  3 Test12= 6.28D-15 2.56D-09 XBig12= 4.07D-03 8.86D-03.
     36 vectors produced by pass  4 Test12= 6.28D-15 2.56D-09 XBig12= 8.56D-06 3.90D-04.
     30 vectors produced by pass  5 Test12= 6.28D-15 2.56D-09 XBig12= 9.55D-09 1.35D-05.
      6 vectors produced by pass  6 Test12= 6.28D-15 2.56D-09 XBig12= 8.46D-12 3.32D-07.
      2 vectors produced by pass  7 Test12= 6.28D-15 2.56D-09 XBig12= 7.73D-15 1.11D-08.
 InvSVY:  IOpt=1 It=  1 EMax= 3.55D-15
 Solved reduced A of dimension   218 with    39 vectors.
 Isotropic polarizability for W=    0.000000       66.60 Bohr**3.
 End of Minotr F.D. properties file   721 does not exist.
 End of Minotr F.D. properties file   722 does not exist.
 End of Minotr F.D. properties file   788 does not exist.
 Calling FoFJK, ICntrl=    100127 FMM=F ISym2X=0 I1Cent= 0 IOpClX= 0 NMat=1 NMatS=1 NMatT=0.
 ***** Axes restored to original set *****
 -------------------------------------------------------------------
 Center     Atomic                   Forces (Hartrees/Bohr)
 Number     Number              X              Y              Z
 -------------------------------------------------------------------
      1        6           0.005063181   -0.004775973    0.026467757
      2        6           0.008921317   -0.007039362   -0.002916689
      3        6          -0.008217901    0.006363264   -0.012148880
      4        8          -0.001830114   -0.019309224   -0.044298551
      5        8          -0.008072131    0.019072120   -0.000126728
      6        8           0.008184736   -0.009691789    0.011563868
      7        1          -0.011881639    0.010878229    0.013432519
      8        1           0.011924726    0.002490805    0.017721703
      9        1          -0.000925263    0.004088422   -0.007046352
     10        1          -0.000645740   -0.003550673   -0.001553764
     11        1          -0.002278526    0.000283730   -0.001310836
     12        1          -0.000242647    0.001190451    0.000215953
 -------------------------------------------------------------------
 Cartesian Forces:  Max     0.044298551 RMS     0.012016144
 FormGI is forming the generalized inverse of G from B-inverse, IUseBI=4.

 GradGradGradGradGradGradGradGradGradGradGradGradGradGradGradGradGradGrad
 Berny optimization.
 Internal  Forces:  Max     0.027228595 RMS     0.008451918
 Search for a saddle point.
 Step number   2 out of a maximum of  100
 All quantities printed in internal units (Hartrees-Bohrs-Radians)
 Swapping is turned off.
 Second derivative matrix not updated -- analytic derivatives used.
 ITU=  0  0
     Eigenvalues ---   -0.24928  -0.02229  -0.00714  -0.00111   0.00001
     Eigenvalues ---    0.00133   0.02359   0.02560   0.02720   0.03413
     Eigenvalues ---    0.04161   0.04869   0.06518   0.07292   0.07778
     Eigenvalues ---    0.08048   0.09952   0.11062   0.14643   0.16290
     Eigenvalues ---    0.21227   0.26656   0.29479   0.30817   0.34385
     Eigenvalues ---    0.35221   0.35536   0.42244   0.54901   0.94204
 Eigenvectors required to have negative eigenvalues:
                          R3        R4        R11       R12       D2
   1                    0.43878  -0.42259  -0.42025   0.41559  -0.23297
                          D3        D1        D22       A1        A19
   1                   -0.23206  -0.23090   0.13489  -0.10436   0.10037
 RFO step:  Lambda0=1.358484147D-05 Lambda=-3.62955649D-02.
 Linear search not attempted -- option 19 set.
 Maximum step size (   0.300) exceeded in Quadratic search.
    -- Step size scaled by   0.351
 Iteration  1 RMS(Cart)=  0.04269361 RMS(Int)=  0.00239586
 Iteration  2 RMS(Cart)=  0.00180248 RMS(Int)=  0.00093101
 Iteration  3 RMS(Cart)=  0.00000517 RMS(Int)=  0.00093098
 Iteration  4 RMS(Cart)=  0.00000001 RMS(Int)=  0.00093098
 Variable       Old X    -DE/DX   Delta X   Delta X   Delta X     New X
                                 (Linear)    (Quad)   (Total)
    R1        2.84779   0.00032   0.00000  -0.01256  -0.01256   2.83523
    R2        2.44884  -0.00821   0.00000   0.00471   0.00686   2.45570
    R3        3.83439   0.02528   0.00000   0.14328   0.14197   3.97636
    R4        2.86794   0.00790   0.00000  -0.01072  -0.01210   2.85584
    R5        2.05492   0.00503   0.00000   0.00349   0.00349   2.05841
    R6        2.85727   0.00690   0.00000   0.00862   0.00862   2.86589
    R7        2.06892   0.00188   0.00000   0.00340   0.00340   2.07232
    R8        2.06275   0.00044   0.00000   0.00080   0.00080   2.06355
    R9        2.26687   0.01716   0.00000   0.00560   0.00560   2.27247
   R10        2.09684   0.00291   0.00000   0.00102   0.00102   2.09786
   R11        3.69455   0.00999   0.00000  -0.00308  -0.00217   3.69239
   R12        2.56416  -0.01587   0.00000  -0.16357  -0.16335   2.40081
   R13        1.81484   0.01438   0.00000   0.00849   0.00849   1.82333
    A1        2.04661   0.01840   0.00000   0.04996   0.05036   2.09697
    A2        1.72041   0.01104   0.00000   0.01663   0.01598   1.73640
    A3        2.33283  -0.01209   0.00000   0.01728   0.01603   2.34886
    A4        2.05328   0.00019   0.00000   0.00726   0.00683   2.06011
    A5        2.16521  -0.01764   0.00000  -0.05686  -0.05690   2.10831
    A6        2.02091   0.00071   0.00000  -0.07911  -0.07866   1.94225
    A7        1.64312  -0.00382   0.00000   0.02920   0.02927   1.67239
    A8        1.58951   0.00507   0.00000   0.01373   0.01371   1.60322
    A9        1.96759   0.00227   0.00000  -0.00451  -0.00451   1.96309
   A10        1.87259  -0.00165   0.00000   0.00502   0.00501   1.87761
   A11        1.92718  -0.00101   0.00000   0.00368   0.00367   1.93085
   A12        1.87263  -0.00041   0.00000  -0.00285  -0.00284   1.86978
   A13        1.92555  -0.00006   0.00000   0.00000   0.00001   1.92556
   A14        1.89541   0.00080   0.00000  -0.00133  -0.00135   1.89406
   A15        2.17471  -0.00237   0.00000  -0.00652  -0.00652   2.16819
   A16        1.99503   0.00391   0.00000   0.00855   0.00855   2.00358
   A17        2.11312  -0.00155   0.00000  -0.00206  -0.00206   2.11106
   A18        2.27535   0.02723   0.00000   0.10024   0.10317   2.37851
   A19        2.34788   0.00802   0.00000   0.06936   0.06710   2.41498
   A20        1.74154   0.01697   0.00000   0.11408   0.11497   1.85651
    D1       -2.38138   0.00032   0.00000   0.00222   0.00194  -2.37944
    D2        1.84397   0.00058   0.00000   0.00510   0.00483   1.84879
    D3       -0.21877   0.00114   0.00000   0.00170   0.00142  -0.21734
    D4        2.68793  -0.00087   0.00000   0.05167   0.05187   2.73979
    D5        0.63009  -0.00061   0.00000   0.05455   0.05476   0.68484
    D6       -1.43264  -0.00005   0.00000   0.05116   0.05135  -1.38129
    D7       -1.17330   0.00243   0.00000  -0.04970  -0.04968  -1.22298
    D8        3.05205   0.00269   0.00000  -0.04683  -0.04679   3.00526
    D9        0.98932   0.00325   0.00000  -0.05022  -0.05020   0.93912
   D10        0.95497  -0.00264   0.00000   0.00701   0.00706   0.96203
   D11       -1.10287  -0.00238   0.00000   0.00989   0.00995  -1.09292
   D12        3.11759  -0.00181   0.00000   0.00650   0.00654   3.12413
   D13        1.52012  -0.00252   0.00000  -0.11475  -0.11478   1.40534
   D14       -1.06338   0.00254   0.00000  -0.07669  -0.07909  -1.14247
   D15       -2.69004  -0.00131   0.00000  -0.09837  -0.09797  -2.78801
   D16        2.42639   0.00030   0.00000  -0.00061  -0.00061   2.42578
   D17       -0.74222   0.00013   0.00000  -0.00182  -0.00182  -0.74404
   D18       -1.79898  -0.00068   0.00000   0.00114   0.00115  -1.79783
   D19        1.31560  -0.00085   0.00000  -0.00007  -0.00006   1.31553
   D20        0.26287   0.00000   0.00000  -0.00213  -0.00213   0.26075
   D21       -2.90574  -0.00016   0.00000  -0.00334  -0.00334  -2.90907
   D22       -0.77602   0.00160   0.00000  -0.04312  -0.04120  -0.81723
   D23       -2.72308  -0.01212   0.00000  -0.04953  -0.04599  -2.76907
         Item               Value     Threshold  Converged?
 Maximum Force            0.027229     0.000450     NO 
 RMS     Force            0.008452     0.000300     NO 
 Maximum Displacement     0.164370     0.001800     NO 
 RMS     Displacement     0.043234     0.001200     NO 
 Predicted change in Energy=-1.341036D-02
 GradGradGradGradGradGradGradGradGradGradGradGradGradGradGradGradGradGrad

                          Input orientation:                          
 ---------------------------------------------------------------------
 Center     Atomic      Atomic             Coordinates (Angstroms)
 Number     Number       Type             X           Y           Z
 ---------------------------------------------------------------------
      1          6           0        1.183024    1.454575   -2.198415
      2          6           0        0.951861    0.694576   -0.925629
      3          6           0        1.191952   -0.794092   -1.087480
      4          8           0        1.837132    2.577273   -2.178571
      5          8           0        0.008529    3.155565   -1.804921
      6          8           0        1.750972   -1.481433   -0.274359
      7          1           0        0.079966    3.983645   -1.314875
      8          1           0        2.403872    1.808109   -3.015974
      9          1           0        0.634223    1.144484   -3.086758
     10          1           0        0.782837   -1.232838   -2.021573
     11          1           0       -0.101519    0.823725   -0.649412
     12          1           0        1.572911    1.093687   -0.120999
 ---------------------------------------------------------------------
                    Distance matrix (angstroms):
                    1          2          3          4          5
     1  C    0.000000
     2  C    1.500340   0.000000
     3  C    2.508138   1.516566   0.000000
     4  O    1.299501   2.428604   3.601782   0.000000
     5  O    2.104196   2.778398   4.185093   1.953926   0.000000
     6  O    3.555938   2.407851   1.202541   4.484031   5.184638
     7  H    2.897167   3.424863   4.910701   2.410702   0.964865
     8  H    1.511244   2.778099   3.458220   1.270453   3.003324
     9  H    1.089262   2.230199   2.840114   2.079586   2.465571
    10  H    2.722794   2.223643   1.110137   3.956404   4.461453
    11  H    2.108894   1.096624   2.117144   3.028470   2.604763
    12  H    2.144273   1.091981   2.154744   2.550381   3.087754
                    6          7          8          9         10
     6  O    0.000000
     7  H    5.808787   0.000000
     8  H    4.331721   3.609326   0.000000
     9  H    4.006514   3.392286   1.891314   0.000000
    10  H    2.012919   5.310851   3.586634   2.609284   0.000000
    11  H    2.980962   3.234328   3.584217   2.566098   2.625711
    12  H    2.585820   3.464979   3.095444   3.111180   3.106303
                   11         12
    11  H    0.000000
    12  H    1.776461   0.000000
 Stoichiometry    C3H6O3
 Framework group  C1[X(C3H6O3)]
 Deg. of freedom    30
 Full point group                 C1      NOp   1
 Largest Abelian subgroup         C1      NOp   1
 Largest concise Abelian subgroup C1      NOp   1
                         Standard orientation:                         
 ---------------------------------------------------------------------
 Center     Atomic      Atomic             Coordinates (Angstroms)
 Number     Number       Type             X           Y           Z
 ---------------------------------------------------------------------
      1          6           0        0.622479    0.454824    0.381214
      2          6           0       -0.458751   -0.425891   -0.172231
      3          6           0       -1.832941   -0.055868    0.351845
      4          8           0        1.552783    0.915678   -0.400355
      5          8           0        2.275138   -0.822162    0.124951
      6          8           0       -2.829392   -0.031298   -0.320902
      7          1           0        2.875946   -1.091388   -0.580395
      8          1           0        1.012936    1.902263    0.190631
      9          1           0        0.712547    0.536192    1.463692
     10          1           0       -1.871171    0.172766    1.437510
     11          1           0       -0.252355   -1.451032    0.158027
     12          1           0       -0.450852   -0.404942   -1.263983
 ---------------------------------------------------------------------
 Rotational constants (GHZ):           9.9792703           1.5570445           1.4556837
 Standard basis: 6-31+G(d) (6D, 7F)
 There are   126 symmetry adapted cartesian basis functions of A   symmetry.
 There are   126 symmetry adapted basis functions of A   symmetry.
   126 basis functions,   216 primitive gaussians,   126 cartesian basis functions
    24 alpha electrons       24 beta electrons
       nuclear repulsion energy       230.2793591419 Hartrees.
 NAtoms=   12 NActive=   12 NUniq=   12 SFac= 1.00D+00 NAtFMM=   60 NAOKFM=F Big=F
 Integral buffers will be    131072 words long.
 Raffenetti 2 integral format.
 Two-electron integral symmetry is turned on.
 One-electron integrals computed using PRISM.
 NBasis=   126 RedAO= T EigKep=  9.50D-05  NBF=   126
 NBsUse=   126 1.00D-06 EigRej= -1.00D+00 NBFU=   126
 Initial guess from the checkpoint file:  "/scratch/bell/zhao922/YARP/paper-example/KHP-network/pp_0/TS-folder/Gau-31819.chk"
 B after Tr=    -0.000000    0.000000   -0.000000
         Rot=    0.999701    0.024339    0.000812   -0.002415 Ang=   2.80 deg.
 ExpMin= 4.38D-02 ExpMax= 5.48D+03 ExpMxC= 8.25D+02 IAcc=3 IRadAn=         5 AccDes= 0.00D+00
 Harris functional with IExCor=  402 and IRadAn=       5 diagonalized for initial guess.
 HarFok:  IExCor=  402 AccDes= 0.00D+00 IRadAn=         5 IDoV= 1 UseB2=F ITyADJ=14
 ICtDFT=  3500011 ScaDFX=  1.000000  1.000000  1.000000  1.000000
 FoFCou: FMM=F IPFlag=           0 FMFlag=      100000 FMFlg1=           0
         NFxFlg=           0 DoJE=T BraDBF=F KetDBF=T FulRan=T
         wScrn=  0.000000 ICntrl=       500 IOpCl=  0 I1Cent=   200000004 NGrid=           0
         NMat0=    1 NMatS0=      1 NMatT0=    0 NMatD0=    1 NMtDS0=    0 NMtDT0=    0
 Petite list used in FoFCou.
 Keep R1 ints in memory in canonical form, NReq=47237561.
 Requested convergence on RMS density matrix=1.00D-08 within 128 cycles.
 Requested convergence on MAX density matrix=1.00D-06.
 Requested convergence on             energy=1.00D-06.
 No special actions if energy rises.
 SCF Done:  E(RB3LYP) =  -343.364777730     A.U. after   14 cycles
            NFock= 14  Conv=0.67D-08     -V/T= 2.0088
 DoSCS=F DFT=T ScalE2(SS,OS)=  1.000000  1.000000
 Range of M.O.s used for correlation:     1   126
 NBasis=   126 NAE=    24 NBE=    24 NFC=     0 NFV=     0
 NROrb=    126 NOA=    24 NOB=    24 NVA=   102 NVB=   102

 **** Warning!!: The largest alpha MO coefficient is  0.38910349D+02

 Symmetrizing basis deriv contribution to polar:
 IMax=3 JMax=2 DiffMx= 0.00D+00
 G2DrvN: will do    13 centers at a time, making    1 passes.
 Calling FoFCou, ICntrl=  3107 FMM=F I1Cent=   0 AccDes= 0.00D+00.
 End of G2Drv F.D. properties file   721 does not exist.
 End of G2Drv F.D. properties file   722 does not exist.
 End of G2Drv F.D. properties file   788 does not exist.
          IDoAtm=111111111111
          Differentiating once with respect to electric field.
                with respect to dipole field.
          Differentiating once with respect to nuclear coordinates.
 Keep R1 ints in memory in canonical form, NReq=47193583.
          There are    39 degrees of freedom in the 1st order CPHF.  IDoFFX=6 NUNeed=     3.
     36 vectors produced by pass  0 Test12= 6.28D-15 2.56D-09 XBig12= 1.63D+02 1.01D+01.
 AX will form    36 AO Fock derivatives at one time.
     36 vectors produced by pass  1 Test12= 6.28D-15 2.56D-09 XBig12= 5.24D+01 1.36D+00.
     36 vectors produced by pass  2 Test12= 6.28D-15 2.56D-09 XBig12= 7.20D-01 1.54D-01.
     36 vectors produced by pass  3 Test12= 6.28D-15 2.56D-09 XBig12= 4.40D-03 8.41D-03.
     36 vectors produced by pass  4 Test12= 6.28D-15 2.56D-09 XBig12= 8.65D-06 5.06D-04.
     28 vectors produced by pass  5 Test12= 6.28D-15 2.56D-09 XBig12= 9.52D-09 1.85D-05.
      6 vectors produced by pass  6 Test12= 6.28D-15 2.56D-09 XBig12= 9.18D-12 3.58D-07.
      2 vectors produced by pass  7 Test12= 6.28D-15 2.56D-09 XBig12= 8.69D-15 1.00D-08.
 InvSVY:  IOpt=1 It=  1 EMax= 1.78D-15
 Solved reduced A of dimension   216 with    39 vectors.
 Isotropic polarizability for W=    0.000000       67.01 Bohr**3.
 End of Minotr F.D. properties file   721 does not exist.
 End of Minotr F.D. properties file   722 does not exist.
 End of Minotr F.D. properties file   788 does not exist.
 Calling FoFJK, ICntrl=    100127 FMM=F ISym2X=0 I1Cent= 0 IOpClX= 0 NMat=1 NMatS=1 NMatT=0.
 ***** Axes restored to original set *****
 -------------------------------------------------------------------
 Center     Atomic                   Forces (Hartrees/Bohr)
 Number     Number              X              Y              Z
 -------------------------------------------------------------------
      1        6          -0.001497252   -0.011426493    0.018025557
      2        6           0.007491277   -0.002638571   -0.000917603
      3        6          -0.005531970    0.004025461   -0.008457708
      4        8           0.003393484   -0.020709598   -0.036759317
      5        8          -0.000779287    0.020597714   -0.001726347
      6        8           0.005543494   -0.006302035    0.007831855
      7        1          -0.012509781    0.005678975    0.011714743
      8        1           0.006853308    0.010608366    0.016578190
      9        1          -0.000481275    0.001930144   -0.004809295
     10        1          -0.000455194   -0.002528251   -0.000935022
     11        1          -0.001649902   -0.000012198   -0.000897252
     12        1          -0.000376901    0.000776486    0.000352199
 -------------------------------------------------------------------
 Cartesian Forces:  Max     0.036759317 RMS     0.010261250
 FormGI is forming the generalized inverse of G from B-inverse, IUseBI=4.

 GradGradGradGradGradGradGradGradGradGradGradGradGradGradGradGradGradGrad
 Berny optimization.
 Internal  Forces:  Max     0.021409314 RMS     0.006480010
 Search for a saddle point.
 Step number   3 out of a maximum of  100
 All quantities printed in internal units (Hartrees-Bohrs-Radians)
 Swapping is turned off.
 Second derivative matrix not updated -- analytic derivatives used.
 ITU=  0  0  0
     Eigenvalues ---   -0.18837  -0.02150  -0.00597   0.00005   0.00122
     Eigenvalues ---    0.00221   0.02261   0.02604   0.02717   0.03399
     Eigenvalues ---    0.04283   0.04834   0.05961   0.06757   0.07651
     Eigenvalues ---    0.07825   0.10043   0.10988   0.14520   0.16176
     Eigenvalues ---    0.21032   0.26644   0.29595   0.30726   0.34008
     Eigenvalues ---    0.35058   0.35154   0.40535   0.53180   0.92307
 Eigenvectors required to have negative eigenvalues:
                          R12       R11       R4        R3        D2
   1                   -0.45934   0.43429   0.41432  -0.38856   0.23020
                          D1        D3        D22       A1        A2
   1                    0.22649   0.22571  -0.15707   0.11768  -0.09186
 RFO step:  Lambda0=3.957205788D-04 Lambda=-3.08118959D-02.
 Linear search not attempted -- option 19 set.
 Maximum step size (   0.300) exceeded in Quadratic search.
    -- Step size scaled by   0.369
 Iteration  1 RMS(Cart)=  0.05617339 RMS(Int)=  0.00323442
 Iteration  2 RMS(Cart)=  0.00235737 RMS(Int)=  0.00113521
 Iteration  3 RMS(Cart)=  0.00000663 RMS(Int)=  0.00113518
 Iteration  4 RMS(Cart)=  0.00000001 RMS(Int)=  0.00113518
 Variable       Old X    -DE/DX   Delta X   Delta X   Delta X     New X
                                 (Linear)    (Quad)   (Total)
    R1        2.83523   0.00004   0.00000  -0.01122  -0.01122   2.82401
    R2        2.45570  -0.00446   0.00000   0.01158   0.01487   2.47057
    R3        3.97636   0.01910   0.00000   0.19848   0.19682   4.17318
    R4        2.85584   0.00619   0.00000  -0.01422  -0.01638   2.83946
    R5        2.05841   0.00362   0.00000   0.00267   0.00267   2.06108
    R6        2.86589   0.00481   0.00000   0.00631   0.00631   2.87221
    R7        2.07232   0.00136   0.00000   0.00440   0.00440   2.07671
    R8        2.06355   0.00033   0.00000   0.00053   0.00053   2.06407
    R9        2.27247   0.01147   0.00000   0.00411   0.00411   2.27658
   R10        2.09786   0.00195   0.00000   0.00067   0.00067   2.09853
   R11        3.69239   0.00950   0.00000  -0.02933  -0.02845   3.66393
   R12        2.40081  -0.01674   0.00000  -0.13209  -0.13133   2.26947
   R13        1.82333   0.00990   0.00000   0.00716   0.00716   1.83049
    A1        2.09697   0.01351   0.00000   0.03042   0.03113   2.12810
    A2        1.73640   0.00730   0.00000   0.00499   0.00448   1.74088
    A3        2.34886  -0.00668   0.00000   0.04747   0.04444   2.39330
    A4        2.06011   0.00018   0.00000   0.00253   0.00152   2.06163
    A5        2.10831  -0.01281   0.00000  -0.03727  -0.03722   2.07110
    A6        1.94225  -0.00231   0.00000  -0.10805  -0.10562   1.83663
    A7        1.67239  -0.00150   0.00000   0.05056   0.05102   1.72341
    A8        1.60322   0.00363   0.00000   0.00172   0.00229   1.60551
    A9        1.96309   0.00136   0.00000  -0.00489  -0.00488   1.95821
   A10        1.87761  -0.00099   0.00000   0.00555   0.00554   1.88314
   A11        1.93085  -0.00049   0.00000   0.00507   0.00506   1.93591
   A12        1.86978  -0.00034   0.00000  -0.00276  -0.00275   1.86703
   A13        1.92556  -0.00003   0.00000  -0.00038  -0.00038   1.92518
   A14        1.89406   0.00045   0.00000  -0.00268  -0.00270   1.89137
   A15        2.16819  -0.00172   0.00000  -0.00476  -0.00476   2.16343
   A16        2.00358   0.00281   0.00000   0.00644   0.00644   2.01003
   A17        2.11106  -0.00110   0.00000  -0.00168  -0.00168   2.10938
   A18        2.37851   0.02141   0.00000   0.10109   0.10222   2.48073
   A19        2.41498   0.00715   0.00000  -0.00882  -0.01091   2.40407
   A20        1.85651   0.01430   0.00000   0.04291   0.04533   1.90183
    D1       -2.37944   0.00137   0.00000  -0.01658  -0.01685  -2.39629
    D2        1.84879   0.00163   0.00000  -0.01390  -0.01417   1.83463
    D3       -0.21734   0.00195   0.00000  -0.01685  -0.01713  -0.23447
    D4        2.73979   0.00051   0.00000   0.07445   0.07496   2.81476
    D5        0.68484   0.00077   0.00000   0.07713   0.07765   0.76250
    D6       -1.38129   0.00109   0.00000   0.07418   0.07469  -1.30660
    D7       -1.22298  -0.00036   0.00000  -0.05947  -0.05989  -1.28287
    D8        3.00526  -0.00011   0.00000  -0.05679  -0.05720   2.94806
    D9        0.93912   0.00021   0.00000  -0.05973  -0.06016   0.87896
   D10        0.96203  -0.00201   0.00000   0.01180   0.01199   0.97402
   D11       -1.09292  -0.00176   0.00000   0.01448   0.01467  -1.07825
   D12        3.12413  -0.00143   0.00000   0.01154   0.01171   3.13584
   D13        1.40534  -0.00391   0.00000  -0.09676  -0.09517   1.31016
   D14       -1.14247   0.00048   0.00000  -0.07260  -0.07508  -1.21754
   D15       -2.78801  -0.00254   0.00000  -0.08039  -0.07868  -2.86669
   D16        2.42578   0.00019   0.00000  -0.00150  -0.00150   2.42428
   D17       -0.74404   0.00005   0.00000  -0.00139  -0.00139  -0.74543
   D18       -1.79783  -0.00046   0.00000   0.00076   0.00076  -1.79707
   D19        1.31553  -0.00059   0.00000   0.00087   0.00087   1.31640
   D20        0.26075  -0.00013   0.00000  -0.00427  -0.00427   0.25648
   D21       -2.90907  -0.00027   0.00000  -0.00416  -0.00416  -2.91323
   D22       -0.81723  -0.00065   0.00000  -0.08411  -0.08733  -0.90456
   D23       -2.76907  -0.00699   0.00000  -0.00674  -0.00688  -2.77595
         Item               Value     Threshold  Converged?
 Maximum Force            0.021409     0.000450     NO 
 RMS     Force            0.006480     0.000300     NO 
 Maximum Displacement     0.194966     0.001800     NO 
 RMS     Displacement     0.056961     0.001200     NO 
 Predicted change in Energy=-1.012576D-02
 GradGradGradGradGradGradGradGradGradGradGradGradGradGradGradGradGradGrad

                          Input orientation:                          
 ---------------------------------------------------------------------
 Center     Atomic      Atomic             Coordinates (Angstroms)
 Number     Number       Type             X           Y           Z
 ---------------------------------------------------------------------
      1          6           0        1.179093    1.415549   -2.209843
      2          6           0        0.933682    0.673348   -0.936209
      3          6           0        1.208157   -0.814938   -1.076870
      4          8           0        1.794571    2.568794   -2.230532
      5          8           0        0.035828    3.258737   -1.794616
      6          8           0        1.765312   -1.478485   -0.239840
      7          1           0        0.135667    4.058641   -1.257518
      8          1           0        2.368197    1.861112   -3.013111
      9          1           0        0.648538    1.089534   -3.105275
     10          1           0        0.830526   -1.278399   -2.012707
     11          1           0       -0.130133    0.780786   -0.682347
     12          1           0        1.526322    1.092598   -0.120098
 ---------------------------------------------------------------------
                    Distance matrix (angstroms):
                    1          2          3          4          5
     1  C    0.000000
     2  C    1.494401   0.000000
     3  C    2.501909   1.519907   0.000000
     4  O    1.307369   2.451350   3.622769   0.000000
     5  O    2.208350   2.868316   4.299342   1.938870   0.000000
     6  O    3.549648   2.409756   1.204714   4.510452   5.277283
     7  H    2.996931   3.492890   4.993460   2.432768   0.968653
     8  H    1.502576   2.789648   3.500852   1.200954   2.979602
     9  H    1.090675   2.226963   2.838066   2.065617   2.607428
    10  H    2.723549   2.231323   1.110492   3.972118   4.611367
    11  H    2.109560   1.098950   2.119670   3.049317   2.721200
    12  H    2.142873   1.092260   2.157622   2.589410   3.117329
                    6          7          8          9         10
     6  O    0.000000
     7  H    5.860988   0.000000
     8  H    4.382626   3.591021   0.000000
     9  H    4.006573   3.534521   1.887076   0.000000
    10  H    2.014179   5.434808   3.636175   2.614179   0.000000
    11  H    2.982084   3.338534   3.583465   2.563637   2.633052
    12  H    2.584941   3.467717   3.109484   3.111559   3.112511
                   11         12
    11  H    0.000000
    12  H    1.776850   0.000000
 Stoichiometry    C3H6O3
 Framework group  C1[X(C3H6O3)]
 Deg. of freedom    30
 Full point group                 C1      NOp   1
 Largest Abelian subgroup         C1      NOp   1
 Largest concise Abelian subgroup C1      NOp   1
                         Standard orientation:                         
 ---------------------------------------------------------------------
 Center     Atomic      Atomic             Coordinates (Angstroms)
 Number     Number       Type             X           Y           Z
 ---------------------------------------------------------------------
      1          6           0        0.583863    0.497328    0.359897
      2          6           0       -0.477791   -0.446452   -0.104219
      3          6           0       -1.864426   -0.017706    0.346931
      4          8           0        1.561020    0.877136   -0.421207
      5          8           0        2.358311   -0.798742    0.140024
      6          8           0       -2.846628   -0.077573   -0.348074
      7          1           0        2.912797   -1.139459   -0.577434
      8          1           0        1.058542    1.879245    0.009586
      9          1           0        0.658947    0.701317    1.428692
     10          1           0       -1.929987    0.340367    1.396063
     11          1           0       -0.280944   -1.426805    0.351687
     12          1           0       -0.450847   -0.560253   -1.190200
 ---------------------------------------------------------------------
 Rotational constants (GHZ):          10.1291120           1.5127964           1.4184506
 Standard basis: 6-31+G(d) (6D, 7F)
 There are   126 symmetry adapted cartesian basis functions of A   symmetry.
 There are   126 symmetry adapted basis functions of A   symmetry.
   126 basis functions,   216 primitive gaussians,   126 cartesian basis functions
    24 alpha electrons       24 beta electrons
       nuclear repulsion energy       228.8076924209 Hartrees.
 NAtoms=   12 NActive=   12 NUniq=   12 SFac= 1.00D+00 NAtFMM=   60 NAOKFM=F Big=F
 Integral buffers will be    131072 words long.
 Raffenetti 2 integral format.
 Two-electron integral symmetry is turned on.
 One-electron integrals computed using PRISM.
 NBasis=   126 RedAO= T EigKep=  9.63D-05  NBF=   126
 NBsUse=   126 1.00D-06 EigRej= -1.00D+00 NBFU=   126
 Initial guess from the checkpoint file:  "/scratch/bell/zhao922/YARP/paper-example/KHP-network/pp_0/TS-folder/Gau-31819.chk"
 B after Tr=     0.000000    0.000000    0.000000
         Rot=    0.999327    0.036580    0.001225   -0.002618 Ang=   4.21 deg.
 ExpMin= 4.38D-02 ExpMax= 5.48D+03 ExpMxC= 8.25D+02 IAcc=3 IRadAn=         5 AccDes= 0.00D+00
 Harris functional with IExCor=  402 and IRadAn=       5 diagonalized for initial guess.
 HarFok:  IExCor=  402 AccDes= 0.00D+00 IRadAn=         5 IDoV= 1 UseB2=F ITyADJ=14
 ICtDFT=  3500011 ScaDFX=  1.000000  1.000000  1.000000  1.000000
 FoFCou: FMM=F IPFlag=           0 FMFlag=      100000 FMFlg1=           0
         NFxFlg=           0 DoJE=T BraDBF=F KetDBF=T FulRan=T
         wScrn=  0.000000 ICntrl=       500 IOpCl=  0 I1Cent=   200000004 NGrid=           0
         NMat0=    1 NMatS0=      1 NMatT0=    0 NMatD0=    1 NMtDS0=    0 NMtDT0=    0
 Petite list used in FoFCou.
 Keep R1 ints in memory in canonical form, NReq=47237561.
 Requested convergence on RMS density matrix=1.00D-08 within 128 cycles.
 Requested convergence on MAX density matrix=1.00D-06.
 Requested convergence on             energy=1.00D-06.
 No special actions if energy rises.
 SCF Done:  E(RB3LYP) =  -343.374503630     A.U. after   14 cycles
            NFock= 14  Conv=0.63D-08     -V/T= 2.0089
 DoSCS=F DFT=T ScalE2(SS,OS)=  1.000000  1.000000
 Range of M.O.s used for correlation:     1   126
 NBasis=   126 NAE=    24 NBE=    24 NFC=     0 NFV=     0
 NROrb=    126 NOA=    24 NOB=    24 NVA=   102 NVB=   102

 **** Warning!!: The largest alpha MO coefficient is  0.37667292D+02

 Symmetrizing basis deriv contribution to polar:
 IMax=3 JMax=2 DiffMx= 0.00D+00
 G2DrvN: will do    13 centers at a time, making    1 passes.
 Calling FoFCou, ICntrl=  3107 FMM=F I1Cent=   0 AccDes= 0.00D+00.
 End of G2Drv F.D. properties file   721 does not exist.
 End of G2Drv F.D. properties file   722 does not exist.
 End of G2Drv F.D. properties file   788 does not exist.
          IDoAtm=111111111111
          Differentiating once with respect to electric field.
                with respect to dipole field.
          Differentiating once with respect to nuclear coordinates.
 Keep R1 ints in memory in canonical form, NReq=47193583.
          There are    39 degrees of freedom in the 1st order CPHF.  IDoFFX=6 NUNeed=     3.
     36 vectors produced by pass  0 Test12= 6.28D-15 2.56D-09 XBig12= 1.98D+02 1.14D+01.
 AX will form    36 AO Fock derivatives at one time.
     36 vectors produced by pass  1 Test12= 6.28D-15 2.56D-09 XBig12= 7.36D+01 1.51D+00.
     36 vectors produced by pass  2 Test12= 6.28D-15 2.56D-09 XBig12= 9.24D-01 1.82D-01.
     36 vectors produced by pass  3 Test12= 6.28D-15 2.56D-09 XBig12= 5.31D-03 1.10D-02.
     36 vectors produced by pass  4 Test12= 6.28D-15 2.56D-09 XBig12= 9.99D-06 5.09D-04.
     29 vectors produced by pass  5 Test12= 6.28D-15 2.56D-09 XBig12= 1.14D-08 2.14D-05.
      4 vectors produced by pass  6 Test12= 6.28D-15 2.56D-09 XBig12= 1.14D-11 5.27D-07.
      2 vectors produced by pass  7 Test12= 6.28D-15 2.56D-09 XBig12= 1.13D-14 1.44D-08.
 InvSVY:  IOpt=1 It=  1 EMax= 5.33D-15
 Solved reduced A of dimension   215 with    39 vectors.
 Isotropic polarizability for W=    0.000000       67.44 Bohr**3.
 End of Minotr F.D. properties file   721 does not exist.
 End of Minotr F.D. properties file   722 does not exist.
 End of Minotr F.D. properties file   788 does not exist.
 Calling FoFJK, ICntrl=    100127 FMM=F ISym2X=0 I1Cent= 0 IOpClX= 0 NMat=1 NMatS=1 NMatT=0.
 ***** Axes restored to original set *****
 -------------------------------------------------------------------
 Center     Atomic                   Forces (Hartrees/Bohr)
 Number     Number              X              Y              Z
 -------------------------------------------------------------------
      1        6          -0.003382882   -0.015226710    0.010616341
      2        6           0.005731874    0.000629116    0.000638067
      3        6          -0.003666564    0.002414244   -0.005667439
      4        8           0.004666835   -0.022032974   -0.027509526
      5        8           0.001741488    0.019044212   -0.000167614
      6        8           0.003681204   -0.003927193    0.005180580
      7        1          -0.010471784    0.003801378    0.008007913
      8        1           0.003768269    0.015879383    0.012823288
      9        1          -0.000249939    0.000807003   -0.003212527
     10        1          -0.000296364   -0.001754193   -0.000532288
     11        1          -0.001123556   -0.000044314   -0.000576578
     12        1          -0.000398581    0.000410047    0.000399784
 -------------------------------------------------------------------
 Cartesian Forces:  Max     0.027509526 RMS     0.008759449
 FormGI is forming the generalized inverse of G from B-inverse, IUseBI=4.

 GradGradGradGradGradGradGradGradGradGradGradGradGradGradGradGradGradGrad
 Berny optimization.
 Internal  Forces:  Max     0.016378073 RMS     0.004935048
 Search for a saddle point.
 Step number   4 out of a maximum of  100
 All quantities printed in internal units (Hartrees-Bohrs-Radians)
 Swapping is turned off.
 Second derivative matrix not updated -- analytic derivatives used.
 ITU=  0  0  0  0
     Eigenvalues ---   -0.13544  -0.01246  -0.00246   0.00016   0.00116
     Eigenvalues ---    0.00843   0.02296   0.02542   0.02685   0.03394
     Eigenvalues ---    0.04684   0.04830   0.05123   0.06722   0.07505
     Eigenvalues ---    0.08139   0.10099   0.10804   0.14389   0.16063
     Eigenvalues ---    0.20884   0.26546   0.29806   0.30671   0.33535
     Eigenvalues ---    0.34345   0.35095   0.37912   0.51823   0.90940
 Eigenvectors required to have negative eigenvalues:
                          R12       R11       R4        R3        D2
   1                   -0.48054   0.45823   0.40769  -0.31274   0.21966
                          D1        D3        D22       A1        A3
   1                    0.21460   0.21162  -0.19598   0.12713   0.11888
 RFO step:  Lambda0=1.094925503D-03 Lambda=-1.95135393D-02.
 Linear search not attempted -- option 19 set.
 Maximum step size (   0.300) exceeded in Quadratic search.
    -- Step size scaled by   0.384
 Iteration  1 RMS(Cart)=  0.05962353 RMS(Int)=  0.00557240
 Iteration  2 RMS(Cart)=  0.00561785 RMS(Int)=  0.00152213
 Iteration  3 RMS(Cart)=  0.00002440 RMS(Int)=  0.00152182
 Iteration  4 RMS(Cart)=  0.00000010 RMS(Int)=  0.00152182
 Variable       Old X    -DE/DX   Delta X   Delta X   Delta X     New X
                                 (Linear)    (Quad)   (Total)
    R1        2.82401   0.00001   0.00000  -0.00741  -0.00741   2.81660
    R2        2.47057  -0.00257   0.00000   0.01391   0.01861   2.48918
    R3        4.17318   0.01451   0.00000   0.22606   0.22410   4.39728
    R4        2.83946   0.00488   0.00000  -0.02117  -0.02454   2.81491
    R5        2.06108   0.00252   0.00000   0.00191   0.00191   2.06299
    R6        2.87221   0.00324   0.00000   0.00310   0.00310   2.87531
    R7        2.07671   0.00095   0.00000   0.00497   0.00497   2.08168
    R8        2.06407   0.00024   0.00000   0.00024   0.00024   2.06431
    R9        2.27658   0.00746   0.00000   0.00311   0.00311   2.27969
   R10        2.09853   0.00128   0.00000   0.00045   0.00045   2.09898
   R11        3.66393   0.00873   0.00000  -0.05093  -0.05001   3.61392
   R12        2.26947  -0.01524   0.00000  -0.08006  -0.07865   2.19082
   R13        1.83049   0.00650   0.00000   0.00519   0.00519   1.83568
    A1        2.12810   0.00899   0.00000   0.00456   0.00608   2.13418
    A2        1.74088   0.00403   0.00000   0.00066  -0.00029   1.74059
    A3        2.39330  -0.00343   0.00000   0.05320   0.04930   2.44261
    A4        2.06163   0.00042   0.00000   0.00270   0.00120   2.06283
    A5        2.07110  -0.00866   0.00000  -0.01768  -0.01882   2.05228
    A6        1.83663  -0.00333   0.00000  -0.11303  -0.10890   1.72773
    A7        1.72341   0.00016   0.00000   0.04918   0.05001   1.77341
    A8        1.60551   0.00244   0.00000  -0.00066   0.00011   1.60561
    A9        1.95821   0.00084   0.00000  -0.00166  -0.00166   1.95655
[...]
   D21       -3.02997  -0.00000   0.00000   0.00000   0.00000  -3.02997
   D22       -1.45756   0.00000   0.00000   0.00000   0.00000  -1.45756
   D23       -2.22281  -0.00000   0.00000   0.00001   0.00001  -2.22280
         Item               Value     Threshold  Converged?
 Maximum Force            0.000000     0.000450     YES
 RMS     Force            0.000000     0.000300     YES
 Maximum Displacement     0.000052     0.001800     YES
 RMS     Displacement     0.000021     0.001200     YES
 Predicted change in Energy=-6.357710D-12
 Optimization completed.
    -- Stationary point found.
                           ----------------------------
                           !   Optimized Parameters   !
                           ! (Angstroms and Degrees)  !
 --------------------------                            --------------------------
 ! Name  Definition              Value          Derivative Info.                !
 --------------------------------------------------------------------------------
 ! R1    R(1,2)                  1.4907         -DE/DX =    0.0                 !
 ! R2    R(1,4)                  1.3422         -DE/DX =    0.0                 !
 ! R3    R(1,5)                  2.631          -DE/DX =    0.0                 !
 ! R4    R(1,8)                  1.442          -DE/DX =    0.0                 !
 ! R5    R(1,9)                  1.0948         -DE/DX =    0.0                 !
 ! R6    R(2,3)                  1.5135         -DE/DX =    0.0                 !
 ! R7    R(2,11)                 1.1082         -DE/DX =    0.0                 !
 ! R8    R(2,12)                 1.0957         -DE/DX =    0.0                 !
 ! R9    R(3,6)                  1.211          -DE/DX =    0.0                 !
 ! R10   R(3,10)                 1.1119         -DE/DX =    0.0                 !
 ! R11   R(4,5)                  1.8753         -DE/DX =    0.0                 !
 ! R12   R(4,8)                  1.1443         -DE/DX =    0.0                 !
 ! R13   R(5,7)                  0.9749         -DE/DX =    0.0                 !
 ! A1    A(2,1,4)              118.2798         -DE/DX =    0.0                 !
 ! A2    A(2,1,5)              100.4453         -DE/DX =    0.0                 !
 ! A3    A(2,1,8)              136.4473         -DE/DX =    0.0                 !
 ! A4    A(2,1,9)              119.9488         -DE/DX =    0.0                 !
 ! A5    A(4,1,9)              116.3759         -DE/DX =    0.0                 !
 ! A6    A(5,1,8)               88.7436         -DE/DX =    0.0                 !
 ! A7    A(5,1,9)              103.1558         -DE/DX =    0.0                 !
 ! A8    A(8,1,9)               98.5554         -DE/DX =    0.0                 !
 ! A9    A(1,2,3)              114.1178         -DE/DX =    0.0                 !
 ! A10   A(1,2,11)             103.7508         -DE/DX =    0.0                 !
 ! A11   A(1,2,12)             112.4079         -DE/DX =    0.0                 !
 ! A12   A(3,2,11)             108.4676         -DE/DX =    0.0                 !
 ! A13   A(3,2,12)             110.5281         -DE/DX =    0.0                 !
 ! A14   A(11,2,12)            107.0354         -DE/DX =    0.0                 !
 ! A15   A(2,3,6)              123.8756         -DE/DX =    0.0                 !
 ! A16   A(2,3,10)             115.6041         -DE/DX =    0.0                 !
 ! A17   A(6,3,10)             120.5138         -DE/DX =    0.0                 !
 ! A18   A(5,4,8)              159.0805         -DE/DX =    0.0                 !
 ! A19   A(1,5,7)              124.9384         -DE/DX =    0.0                 !
 ! A20   A(4,5,7)              100.8715         -DE/DX =    0.0                 !
 ! D1    D(4,1,2,3)            173.221          -DE/DX =    0.0                 !
 ! D2    D(4,1,2,11)            55.3903         -DE/DX =    0.0                 !
 ! D3    D(4,1,2,12)           -59.8961         -DE/DX =    0.0                 !
 ! D4    D(5,1,2,3)            131.9929         -DE/DX =    0.0                 !
 ! D5    D(5,1,2,11)            14.1622         -DE/DX =    0.0                 !
 ! D6    D(5,1,2,12)          -101.1242         -DE/DX =    0.0                 !
 ! D7    D(8,1,2,3)           -128.7103         -DE/DX =    0.0                 !
 ! D8    D(8,1,2,11)           113.459          -DE/DX =    0.0                 !
 ! D9    D(8,1,2,12)            -1.8274         -DE/DX =    0.0                 !
 ! D10   D(9,1,2,3)             20.0726         -DE/DX =    0.0                 !
 ! D11   D(9,1,2,11)           -97.7581         -DE/DX =    0.0                 !
 ! D12   D(9,1,2,12)           146.9555         -DE/DX =    0.0                 !
 ! D13   D(2,1,5,7)             82.8628         -DE/DX =    0.0                 !
 ! D14   D(8,1,5,7)            -54.283          -DE/DX =    0.0                 !
 ! D15   D(9,1,5,7)           -152.7758         -DE/DX =    0.0                 !
 ! D16   D(1,2,3,6)            135.1724         -DE/DX =    0.0                 !
 ! D17   D(1,2,3,10)           -45.7532         -DE/DX =    0.0                 !
 ! D18   D(11,2,3,6)          -109.7347         -DE/DX =    0.0                 !
 ! D19   D(11,2,3,10)           69.3396         -DE/DX =    0.0                 !
 ! D20   D(12,2,3,6)             7.3213         -DE/DX =    0.0                 !
 ! D21   D(12,2,3,10)         -173.6044         -DE/DX =    0.0                 !
 ! D22   D(1,4,5,8)            -83.5122         -DE/DX =    0.0                 !
 ! D23   D(8,4,5,7)           -127.3576         -DE/DX =    0.0                 !
 --------------------------------------------------------------------------------
 GradGradGradGradGradGradGradGradGradGradGradGradGradGradGradGradGradGrad


 ----------------------------------------------------------------------

 Electric dipole moment (input orientation):
 (Debye = 10**-18 statcoulomb cm , SI units = C m)
                  (au)            (Debye)         (10**-30 SI)
   Tot        0.883751D+00      0.224627D+01      0.749276D+01
   x          0.788671D+00      0.200460D+01      0.668663D+01
   y         -0.140894D-01     -0.358117D-01     -0.119455D+00
   z         -0.398517D+00     -0.101293D+01     -0.337877D+01

 Dipole polarizability, Alpha (input orientation).
 (esu units = cm**3 , SI units = C**2 m**2 J**-1)
 Alpha(0;0):
               (au)            (10**-24 esu)      (10**-40 SI)
   iso        0.669705D+02      0.992400D+01      0.110419D+02
   aniso      0.525767D+02      0.779107D+01      0.866873D+01
   xx         0.650191D+02      0.963483D+01      0.107202D+02
   yx        -0.227766D+02     -0.337514D+01     -0.375535D+01
   yy         0.870080D+02      0.128933D+02      0.143457D+02
   zx        -0.757112D+00     -0.112192D+00     -0.124831D+00
   zy        -0.599014D+01     -0.887648D+00     -0.987641D+00
   zz         0.488843D+02      0.724390D+01      0.805993D+01

 ----------------------------------------------------------------------

 Dipole orientation:
     6         -2.49696044         -2.59562248          4.23847127
     6         -0.52617325         -1.19459177          2.79316785
     6         -0.96935872          1.62707216          2.64625866
     8         -2.40521941         -5.13034626          4.24871686
     8         -3.46126236         -6.31126379          1.07866230
     8          0.66474462          3.19407306          2.98026967
     1         -2.47321379         -7.85985404          0.93794632
     1         -2.53995594         -4.40027723          6.27968584
     1         -4.35669308         -1.74199230          4.54313896
     1         -2.93001543          2.21478415          2.17133280
     1         -0.66653463         -1.98966816          0.86077018
     1          1.38714358         -1.59445543          3.47611591

 Electric dipole moment (dipole orientation):
 (Debye = 10**-18 statcoulomb cm , SI units = C m)
                  (au)            (Debye)         (10**-30 SI)
   Tot        0.883751D+00      0.224627D+01      0.749276D+01
   x          0.000000D+00      0.000000D+00      0.000000D+00
   y          0.000000D+00      0.000000D+00      0.000000D+00
   z          0.883751D+00      0.224627D+01      0.749276D+01

 Dipole polarizability, Alpha (dipole orientation).
 (esu units = cm**3 , SI units = C**2 m**2 J**-1)
 Alpha(0;0):
               (au)            (10**-24 esu)      (10**-40 SI)
   iso        0.669705D+02      0.992400D+01      0.110419D+02
   aniso      0.525767D+02      0.779107D+01      0.866873D+01
   xx         0.512555D+02      0.759528D+01      0.845089D+01
   yx         0.151751D+02      0.224871D+01      0.250203D+01
   yy         0.867408D+02      0.128537D+02      0.143016D+02
   zx         0.611683D+01      0.906421D+00      0.100853D+01
   zy         0.180722D+02      0.267802D+01      0.297970D+01
   zz         0.629151D+02      0.932305D+01      0.103733D+02

 ----------------------------------------------------------------------
 1\1\GINC-BELL-A113\Freq\RB3LYP\6-31+G(d)\C3H6O3\ZHAO922\23-Dec-2020\0\
 \#N Geom=AllCheck Guess=TCheck SCRF=Check GenChk RB3LYP/6-31+G(d) Freq
 \\pp_15_0 TS\\0,1\C,1.4189915316,1.3245890654,-2.212484331\C,1.1996492
 981,0.6057450911,-0.9250837775\C,1.0098339751,-0.8882138627,-1.0755142
 576\O,1.4588828543,2.6660617619,-2.1929892526\O,-0.2841276763,3.312131
 4089,-1.9452043402\O,1.5495291566,-1.7116283607,-0.3703017083\H,-0.106
 6785354,4.1377806233,-1.4580900318\H,2.3820443085,2.2619600898,-2.7351
 010969\H,1.1144863017,0.8607261467,-3.15623286\H,0.3144573372,-1.20533
 02183,-1.8831355682\H,0.2577038413,1.0419820768,-0.5369555436\H,1.9809
 876074,0.8214731777,-0.1878732322\\Version=ES64L-G16RevB.01\State=1-A\
 HF=-343.3877185\RMSD=5.662e-09\RMSF=3.217e-07\ZeroPoint=0.0838084\Ther
 mal=0.0915778\Dipole=0.7886709,-0.0140894,-0.3985172\DipoleDeriv=-0.45
 28208,0.7182175,0.0410319,0.7705304,0.1572749,-0.244154,0.3231126,-0.6
 659456,0.5575256,0.1044769,-0.2265287,0.0801584,-0.0153225,-0.3904559,
 0.0553321,0.0038257,0.1660868,-0.2000077,0.4902405,-0.1104968,0.373505
 8,-0.1684826,1.4888715,-0.2906186,0.3583263,-0.097974,0.5700935,0.8011
 081,-0.8764782,-0.2335427,-1.4062586,0.2273994,0.3830201,-0.3734522,0.
 404404,-0.2669674,-0.9427913,0.7081392,0.0808082,0.373774,-0.7404512,0
 .0893728,0.1877307,-0.0853018,-0.5052492,-0.4820513,0.2410376,-0.20424
 3,0.1679717,-0.9903521,0.2756211,-0.1872577,0.3137318,-0.577333,0.1423
 342,0.006897,-0.037306,-0.086554,0.2102129,-0.114433,-0.0637385,-0.088
 0441,0.2545922,0.034613,-0.1490762,0.1617993,0.4074299,0.1061314,-0.15
 96985,0.0645658,0.0015159,0.180575,0.2345055,-0.1941539,-0.0734143,-0.
 0398989,0.0071835,-0.0266956,-0.0886784,0.0416763,-0.0421047,-0.053995
 7,-0.0385509,-0.1432388,-0.038582,-0.0413518,-0.0299135,-0.1482993,-0.
 0648204,-0.1058613,0.0788583,-0.0406688,0.0215858,0.0423993,0.0002321,
 0.0281929,-0.0301644,0.0788494,0.1047063,0.0455224,-0.0383376,-0.06714
 46,-0.0070068,-0.0346946,0.0339743,-0.0459706,-0.0041783,0.0300307\Pol
 ar=65.0190754,-22.7765691,87.0080107,-0.7571115,-5.9901435,48.8842851\
 Quadrupole=1.1463006,-4.3611146,3.214814,6.403286,-3.6331129,5.9122357
 \PG=C01 [X(C3H6O3)]\NImag=1\\0.18016008,0.07121347,0.58253868,0.057769
 84,0.03106023,0.56638457,-0.06923924,-0.01841937,0.01294136,0.51395489
 ,-0.00976047,-0.09746470,0.04094748,0.00407145,0.48967063,-0.00091114,
 0.04602442,-0.19456862,0.07659272,0.01113723,0.51199826,-0.00574583,-0
 .00558353,0.00138579,-0.09244864,-0.03175357,-0.01320360,0.44598805,-0
 .00297558,-0.02274880,0.02004794,-0.02718721,-0.16767520,-0.03273713,-
 0.11865469,0.69957011,0.00209956,0.03284744,0.01074875,-0.01197818,-0.
 03132335,-0.10043306,0.30244232,-0.18133091,0.58161694,0.03728060,0.03
 164972,-0.07145042,0.00806313,-0.01235119,0.01271632,0.00113891,0.0026
 4782,0.00283321,0.01636903,-0.09424188,-0.40695433,0.03041637,-0.01280
 764,-0.03665675,0.00064412,-0.00083137,0.00456640,0.00513413,0.1395836
 5,0.42504224,-0.03586760,-0.02404167,-0.05573875,0.00503334,0.03751068
 ,0.00396997,0.00101390,-0.00460892,-0.00785890,0.00605421,-0.00951668,
 0.10839801,-0.01714814,0.00034272,0.02132272,0.00352806,-0.00067203,-0
 .00708529,0.00022519,-0.00403892,-0.00030393,-0.02964608,-0.03264480,-
 0.02151225,0.09718403,0.03116283,-0.00044267,-0.00918396,-0.00113767,-
 0.00027076,0.00261792,0.00068860,0.00292217,-0.00039586,-0.03030107,-0
 .01312715,0.00716546,0.07292573,0.38636181,0.01045612,-0.00800109,-0.0
 0106745,-0.00528333,0.00274384,0.00137156,-0.00099450,0.00031191,0.000
 56250,-0.00444741,0.00049704,-0.01325318,0.04983941,0.21550845,0.13247
 087,0.00108066,-0.00042508,0.00346322,0.01738407,0.01306131,-0.0057561
 1,-0.21543237,0.20065698,-0.20112047,0.00069142,0.00159438,-0.00107604
 ,-0.00048631,0.00017617,0.00025522,0.20122837,0.00426920,-0.00176918,-
 0.01276281,0.02377666,-0.04725651,0.03821520,0.19939283,-0.40536541,0.
 26615520,-0.00344001,-0.00348096,0.00468536,0.00209185,-0.00151647,-0.
 00007299,-0.23558023,0.44489818,-0.00067234,-0.00441597,0.00210393,-0.
 00602239,0.01921432,0.01544284,-0.20079787,0.26649796,-0.32120678,0.00
 048902,0.00038206,0.00016171,-0.00065329,0.00072278,-0.00006715,0.2337
 6348,-0.31324455,0.32307258,-0.01525298,0.00553017,0.00171951,0.000826
 27,-0.00096217,0.00107464,-0.00003530,0.00000513,-0.00011794,0.0218701
 6,0.00636335,0.00366625,-0.04144629,-0.09066773,-0.05209031,0.00004881
 ,-0.00012234,0.00011503,0.03660653,0.00084223,0.00153836,0.00055103,0.
 00061771,0.00022366,-0.00053236,-0.00002533,-0.00072912,-0.00007211,-0
 .00419954,-0.00373154,-0.00025344,-0.07475981,-0.35511627,-0.20763247,
 -0.00008685,0.00036201,-0.00006893,0.07506221,0.35741040,0.00097077,0.
 00065981,0.00083010,-0.00022071,0.00022027,-0.00041450,-0.00000132,-0.
 00009367,-0.00009246,0.00026044,-0.00070123,-0.00127548,-0.04600014,-0
 .20910446,-0.12398262,-0.00001288,0.00009540,-0.00006022,0.04517895,0.
 20895593,0.12468963,-0.05763053,-0.04764829,0.03792786,-0.00126811,0.0
 0230339,-0.00005199,0.00066770,0.00174808,-0.00004638,-0.04939570,-0.0
 2186949,0.03793672,-0.01659258,0.01652053,0.00035373,-0.00004686,-0.00
 075420,0.00020143,-0.00363053,0.00232001,-0.00008148,0.12892490,0.0256
 6521,0.02223258,-0.02788684,0.00690366,-0.00522184,0.00886607,0.000888
 78,-0.00052416,0.00041543,-0.10354845,0.06216902,0.01661436,0.03180954
 ,-0.01911530,-0.00101135,-0.00029343,-0.00041230,-0.00008613,0.0053385
 8,-0.00056604,-0.00076797,0.04724662,-0.05504462,0.01841433,0.02031709
 ,-0.01667951,0.00239840,0.00003320,0.00000973,-0.00049909,-0.00049132,
 0.00010705,0.05271609,-0.01641789,-0.04933576,0.00721961,-0.00729470,0
 .00295452,-0.00014570,0.00039094,-0.00020453,0.00143178,-0.00051382,0.
 00006775,-0.07693062,0.00618394,0.06119152,-0.05301037,-0.03814254,-0.
 07962964,0.01035403,-0.00008626,0.00679658,0.00062317,-0.00012492,0.00
 049819,-0.00799947,0.01338626,0.00438137,0.00706162,-0.00090779,0.0023
 4879,-0.00040563,-0.00003794,-0.00032054,0.00002606,0.00045414,0.00019
 418,-0.00141716,-0.01482533,-0.00486925,0.04619010,-0.02834758,-0.0873
 3629,-0.08184036,0.00292504,0.00891840,0.01017543,0.00153975,0.0016097
 0,0.00134152,-0.01536667,-0.03357312,-0.02942161,-0.00121614,0.0022756
 4,0.00133451,-0.00049688,-0.00026494,-0.00036245,-0.00073267,0.0003430
 0,0.00018812,0.00226071,-0.00268773,-0.00240652,0.04065507,0.11198524,
 -0.06378590,-0.08434040,-0.26604275,-0.01073511,-0.00826420,-0.0138222
 6,-0.00146247,-0.00355814,-0.00083932,0.00442080,-0.00815940,0.0080752
 7,-0.00212881,0.00091525,0.00006085,0.00038533,0.00104642,0.00039603,-
 0.00057317,0.00014174,-0.00004765,-0.00118294,0.00163012,0.00326069,0.
 07191202,0.09766730,0.27211216,0.00032130,0.00125228,-0.00137432,0.008
 95451,-0.00075199,-0.00911207,-0.13736728,-0.05419666,-0.08796540,0.00
 002127,0.00018718,0.00027334,0.00006316,-0.00011958,0.00016799,-0.0049
 7073,0.01138526,-0.03006603,-0.00000638,0.00005183,-0.00002765,-0.0001
 3388,-0.00001224,0.00003343,0.00002509,-0.00027028,0.00069775,0.132343
 01,0.00013492,0.00121953,-0.00346681,-0.02073499,-0.00613914,-0.019127
 18,-0.04912523,-0.09278904,-0.05733556,0.00006785,-0.00001708,0.001122
 83,0.00018062,-0.00012237,0.00013494,0.02295320,0.01332990,0.02810233,
 -0.00000109,0.00009629,-0.00003273,-0.00011638,-0.00018775,0.00000410,
 -0.00003087,-0.00022822,0.00118187,0.04619463,0.08999834,0.00006785,-0
 .00132970,-0.00138566,-0.01008449,-0.00044363,0.00528513,-0.08673674,-
 0.06140792,-0.15903652,-0.00029639,-0.00038404,0.00122821,0.00017862,-
 0.00005543,-0.00004638,-0.03175851,0.01329295,-0.01906157,0.00002656,0
 .00005365,-0.00000731,-0.00000728,-0.00002225,-0.00010738,-0.00000898,
 -0.00055504,0.00071079,0.12876519,0.04987928,0.17161882,-0.00822209,-0
 .00196049,0.00858659,-0.21656284,0.07782904,0.06894397,0.00585413,0.00
 156383,-0.00386445,0.00240013,-0.00017105,0.00023254,-0.00237808,0.001
 32135,-0.00098709,0.00010605,-0.00123723,0.00195144,0.00085667,-0.0003
 5888,-0.00004913,-0.00016535,0.00147687,0.00014234,-0.00083929,-0.0002
 0553,0.00045969,-0.00074281,0.00081418,0.00033083,0.23904326,-0.011882
 01,0.00555277,0.00437767,0.08048150,-0.07814754,-0.03552117,0.03102250
 ,-0.01256054,-0.01002855,-0.00242064,0.00312271,0.00016283,0.00446856,
 -0.00097651,-0.00308715,-0.00453367,-0.00284956,0.00124391,0.00013349,
 0.00016731,0.00036709,-0.00100319,0.00026756,0.00040145,0.00064691,-0.
 00039325,0.00017333,-0.00368377,0.00078709,0.00147459,-0.08764497,0.08
 228586,0.02879676,-0.00415194,-0.02091692,0.07794020,-0.03839095,-0.06
 733643,0.00112691,-0.00073424,-0.00110891,-0.00358224,-0.00123866,0.00
 232121,-0.00137884,-0.00059192,0.00155571,0.00053605,0.00130390,-0.000
 75958,-0.00036780,-0.00064172,0.00024452,0.00144906,-0.00326426,-0.000
 77907,-0.00158592,0.00130565,-0.00061106,-0.00056245,-0.00017472,0.000
 09750,-0.08389112,0.03821710,0.07898474,0.00740656,0.00219096,0.007337
 49,-0.18354612,-0.04092751,-0.13000404,-0.00346772,0.00055615,-0.00247
 655,-0.00079339,0.00145140,-0.00013578,-0.00036459,0.00033862,0.000381
 38,0.00080251,0.00025616,0.00201206,0.00013699,0.00008228,-0.00021103,
 0.00068811,-0.00064982,0.00008869,-0.00060814,-0.00074482,0.00199282,0
 .00149275,-0.00033685,-0.00047667,-0.01934979,-0.00558472,-0.01848061,
 0.19760285,0.01391966,0.00363404,0.00774005,-0.03848916,-0.05998025,-0
 .02976255,-0.02755873,-0.00627612,-0.02540738,-0.00232148,0.00264056,0
 .00058080,0.00151268,-0.00087212,-0.00072565,0.00297409,0.00432522,0.0
 0201466,0.00005307,0.00000193,0.00021344,-0.00100779,-0.00090942,-0.00
 020648,-0.00098674,-0.00064842,0.00156610,-0.00003665,-0.00594754,-0.0
 0050246,0.00857288,0.00274409,0.00836177,0.04336816,0.06128801,-0.0173
 3825,-0.00462824,-0.02366770,-0.13058182,-0.03338489,-0.16150262,-0.00
 227333,-0.00189556,-0.00245930,0.00028638,-0.00065582,0.00330768,0.000
 50221,-0.00030352,-0.00055923,0.00146641,0.00089498,0.00018275,-0.0000
 6350,0.00001250,0.00004823,0.00043188,-0.00067113,-0.00048500,0.000283
 19,0.00257344,-0.00325276,-0.00082979,-0.00028836,0.00070435,0.0081443
 9,0.00221890,0.00830829,0.13997223,0.03612771,0.17937530\\0.00000001,0
 .00000011,0.,0.00000008,0.00000012,0.00000004,0.00000053,-0.00000004,0
 .00000030,-0.00000023,-0.00000006,-0.00000009,-0.00000048,-0.00000033,
 -0.00000041,0.00000056,0.00000030,0.00000037,-0.00000091,-0.00000031,-
 0.00000051,-0.00000011,0.00000022,0.00000008,0.00000028,-0.00000014,0.
 00000004,0.00000065,-0.00000024,0.00000012,-0.00000023,-0.00000010,-0.
 00000013,-0.00000016,0.00000046,0.00000018\\\@


 IT CANNOT BE MY BEAUTY, FOR I HAVE NONE; AND IT CANNOT BE MY WIT,
 FOR HE HAS NOT ENOUGH TO KNOW THAT I HAVE ANY.
 -- CATHARINE SEDLEY, PUZZLED ABOUT WHY SHE WAS MISTRESS TO JAMES II
 Job cpu time:       0 days  0 hours  3 minutes 57.6 seconds.
 Elapsed time:       0 days  0 hours  0 minutes 19.7 seconds.
 File lengths (MBytes):  RWF=     28 Int=      0 D2E=      0 Chk=      3 Scr=      1
 Normal termination of Gaussian 16 at Wed Dec 23 22:06:23 2020.
