 Entering Gaussian System, Link 0=g16
 Initial command:
 /apps/cent7/gaussian/g16-B.01/g16-haswell/g16/l1.exe "/scratch/bell/zhao922/YARP/paper-example/KHP-network/pp_0/TS-folder/Gau-65042.inp" -scrdir="/scratch/bell/zhao922/YARP/paper-example/KHP-network/pp_0/TS-folder/"
 Entering Link 1 = /apps/cent7/gaussian/g16-B.01/g16-haswell/g16/l1.exe PID=     65044.
  
 Copyright (c) 1988-2017, Gaussian, Inc.  All Rights Reserved.
  
 This is part of the Gaussian(R) 16 program.  It is based on
 the Gaussian(R) 09 system (copyright 2009, Gaussian, Inc.),
 the Gaussian(R) 03 system (copyright 2003, Gaussian, Inc.),
 the Gaussian(R) 98 system (copyright 1998, Gaussian, Inc.),
 the Gaussian(R) 94 system (copyright 1995, Gaussian, Inc.),
 the Gaussian 92(TM) system (copyright 1992, Gaussian, Inc.),
 the Gaussian 90(TM) system (copyright 1990, Gaussian, Inc.),
 the Gaussian 88(TM) system (copyright 1988, Gaussian, Inc.),
 the Gaussian 86(TM) system (copyright 1986, Carnegie Mellon
 University), and the Gaussian 82(TM) system (copyright 1983,
 Carnegie Mellon University). Gaussian is a federally registered
 trademark of Gaussian, Inc.
  
 This software contains proprietary and confidential information,
 including trade secrets, belonging to Gaussian, Inc.
  
 This software is provided under written license and may be
 used, copied, transmitted, or stored only in accord with that
 written license.
  
 The following legend is applicable only to US Government
 contracts under FAR:
  
                    RESTRICTED RIGHTS LEGEND
  
 Use, reproduction and disclosure by the US Government is
 subject to restrictions as set forth in subparagraphs (a)
 and (c) of the Commercial Computer Software - Restricted
 Rights clause in FAR 52.227-19.
  
 Gaussian, Inc.
 340 Quinnipiac St., Bldg. 40, Wallingford CT 06492
  
  
 ---------------------------------------------------------------
 Warning -- This program may not be used in any manner that
 competes with the business of Gaussian, Inc. or will provide
 assistance to any competitor of Gaussian, Inc.  The licensee
 of this program is prohibited from giving any competitor of
 Gaussian, Inc. access to this program.  By using this program,
 the user acknowledges that Gaussian, Inc. is engaged in the
 business of creating and licensing software in the field of
 computational chemistry and represents and warrants to the
 licensee that it is not a competitor of Gaussian, Inc. and that
 it will not use this program in any manner prohibited above.
 ---------------------------------------------------------------
  

 Cite this work as:
 Gaussian 16, Revision B.01,
 M. J. Frisch, G. W. Trucks, H. B. Schlegel, G. E. Scuseria, 
 M. A. Robb, J. R. Cheeseman, G. Scalmani, V. Barone, 
 G. A. Petersson, H. Nakatsuji, X. Li, M. Caricato, A. V. Marenich, 
 J. Bloino, B. G. Janesko, R. Gomperts, B. Mennucci, H. P. Hratchian, 
 J. V. Ortiz, A. F. Izmaylov, J. L. Sonnenberg, D. Williams-Young, 
 F. Ding, F. Lipparini, F. Egidi, J. Goings, B. Peng, A. Petrone, 
 T. Henderson, D. Ranasinghe, V. G. Zakrzewski, J. Gao, N. Rega, 
 G. Zheng, W. Liang, M. Hada, M. Ehara, K. Toyota, R. Fukuda, 
 J. Hasegawa, M. Ishida, T. Nakajima, Y. Honda, O. Kitao, H. Nakai, 
 T. Vreven, K. Throssell, J. A. Montgomery, Jr., J. E. Peralta, 
 F. Ogliaro, M. J. Bearpark, J. J. Heyd, E. N. Brothers, K. N. Kudin, 
 V. N. Staroverov, T. A. Keith, R. Kobayashi, J. Normand, 
 K. Raghavachari, A. P. Rendell, J. C. Burant, S. S. Iyengar, 
 J. Tomasi, M. Cossi, J. M. Millam, M. Klene, C. Adamo, R. Cammi, 
 J. W. Ochterski, R. L. Martin, K. Morokuma, O. Farkas, 
 J. B. Foresman, and D. J. Fox, Gaussian, Inc., Wallingford CT, 2016.
 
 ******************************************
 Gaussian 16:  ES64L-G16RevB.01 20-Dec-2017
                23-Dec-2020 
 ******************************************
 %NProcShared=16
 Will use up to   16 processors via shared memory.
 %Mem=6GB
 --------------------------------------------------------------
 # B3LYP/6-31+G* OPT=(TS, CALCALL, NOEIGEN, maxcycles=100) Freq
 --------------------------------------------------------------
 1/5=1,6=100,10=4,11=1,18=20,26=3,38=1/1,3;
 2/9=110,12=2,17=6,18=5,40=1/2;
 3/5=1,6=6,7=11,11=2,25=1,30=1,71=2,74=-5,140=1/1,2,3;
 4//1;
 5/5=2,38=5/2;
 8/6=4,10=90,11=11/1;
 11/6=1,8=1,9=11,15=111,16=1/1,2,10;
 10/6=1/2;
 6/7=2,8=2,9=2,10=2,18=1,28=1/1;
 7/10=1,25=1/1,2,3,16;
 1/5=1,6=100,10=4,11=1,18=20,26=3/3(3);
 2/9=110/2;
 7/8=1,9=1,25=1,44=-1/16;
 99//99;
 2/9=110/2;
 3/5=1,6=6,7=11,11=2,25=1,30=1,71=2,74=-5,140=1/1,2,3;
 4/5=5,16=3,69=1/1;
 5/5=2,38=5/2;
 8/6=4,10=90,11=11/1;
 11/6=1,8=1,9=11,15=111,16=1/1,2,10;
 10/6=1/2;
 7/10=1,25=1/1,2,3,16;
 1/5=1,6=100,10=4,11=1,18=20,26=3/3(-8);
 2/9=110/2;
 6/7=2,8=2,9=2,10=2,18=1,19=2,28=1/1;
 7/8=1,9=1,25=1,44=-1/16;
 99//99;
 ----------
 pp_15_1 TS
 ----------
 Symbolic Z-matrix:
 Charge =  0 Multiplicity = 1
 C                     1.45971   1.6571   -1.82811 
 C                     0.56214   0.69099  -1.09703 
 C                     1.18455  -0.66877  -0.95712 
 O                     1.09352   2.26074  -2.88385 
 O                     0.6231    3.28048  -1.34665 
 O                     2.21848  -1.01194  -1.45609 
 H                     0.54441   4.00787  -1.96127 
 H                     2.42026   1.86918  -1.35062 
 H                     1.8232    0.9978   -3.18752 
 H                     0.58643  -1.36556  -0.34083 
 H                    -0.38507   0.58935  -1.6343 
 H                     0.33087   1.09408  -0.10978 
 
 Add virtual bond connecting atoms H9         and C1         Dist= 2.94D+00.
 Add virtual bond connecting atoms H9         and O4         Dist= 2.82D+00.
 Add virtual bond connecting atoms O5         and C1         Dist= 3.57D+00.
 Add virtual bond connecting atoms O5         and O4         Dist= 3.60D+00.

 GradGradGradGradGradGradGradGradGradGradGradGradGradGradGradGradGradGrad
 Berny optimization.
 Initialization pass.
                           ----------------------------
                           !    Initial Parameters    !
                           ! (Angstroms and Degrees)  !
 --------------------------                            --------------------------
 ! Name  Definition              Value          Derivative Info.                !
 --------------------------------------------------------------------------------
 ! R1    R(1,2)                  1.5078         calculate D2E/DX2 analytically  !
 ! R2    R(1,4)                  1.2701         calculate D2E/DX2 analytically  !
 ! R3    R(1,5)                  1.8887         calculate D2E/DX2 analytically  !
 ! R4    R(1,8)                  1.0934         calculate D2E/DX2 analytically  !
 ! R5    R(1,9)                  1.554          calculate D2E/DX2 analytically  !
 ! R6    R(2,3)                  1.502          calculate D2E/DX2 analytically  !
 ! R7    R(2,11)                 1.0937         calculate D2E/DX2 analytically  !
 ! R8    R(2,12)                 1.0912         calculate D2E/DX2 analytically  !
 ! R9    R(3,6)                  1.1982         calculate D2E/DX2 analytically  !
 ! R10   R(3,10)                 1.1059         calculate D2E/DX2 analytically  !
 ! R11   R(4,5)                  1.9037         calculate D2E/DX2 analytically  !
 ! R12   R(4,9)                  1.4899         calculate D2E/DX2 analytically  !
 ! R13   R(5,7)                  0.9555         calculate D2E/DX2 analytically  !
 ! A1    A(2,1,4)              122.4076         calculate D2E/DX2 analytically  !
 ! A2    A(2,1,5)               99.407          calculate D2E/DX2 analytically  !
 ! A3    A(2,1,8)              115.8159         calculate D2E/DX2 analytically  !
 ! A4    A(2,1,9)              106.9509         calculate D2E/DX2 analytically  !
 ! A5    A(4,1,8)              121.6067         calculate D2E/DX2 analytically  !
 ! A6    A(5,1,8)               96.3788         calculate D2E/DX2 analytically  !
 ! A7    A(5,1,9)              133.7328         calculate D2E/DX2 analytically  !
 ! A8    A(8,1,9)              104.9995         calculate D2E/DX2 analytically  !
 ! A9    A(1,2,3)              112.2441         calculate D2E/DX2 analytically  !
 ! A10   A(1,2,11)             109.6889         calculate D2E/DX2 analytically  !
 ! A11   A(1,2,12)             109.1572         calculate D2E/DX2 analytically  !
 ! A12   A(3,2,11)             108.6937         calculate D2E/DX2 analytically  !
 ! A13   A(3,2,12)             109.7544         calculate D2E/DX2 analytically  !
 ! A14   A(11,2,12)            107.1715         calculate D2E/DX2 analytically  !
 ! A15   A(2,3,6)              125.3146         calculate D2E/DX2 analytically  !
 ! A16   A(2,3,10)             113.4644         calculate D2E/DX2 analytically  !
 ! A17   A(6,3,10)             121.2177         calculate D2E/DX2 analytically  !
 ! A18   A(5,4,9)              137.7037         calculate D2E/DX2 analytically  !
 ! A19   A(1,5,7)              121.7907         calculate D2E/DX2 analytically  !
 ! A20   A(4,5,7)               84.763          calculate D2E/DX2 analytically  !
 ! D1    D(4,1,2,3)            122.8872         calculate D2E/DX2 analytically  !
 ! D2    D(4,1,2,11)             1.9478         calculate D2E/DX2 analytically  !
 ! D3    D(4,1,2,12)          -115.1981         calculate D2E/DX2 analytically  !
 ! D4    D(5,1,2,3)           -163.6254         calculate D2E/DX2 analytically  !
 ! D5    D(5,1,2,11)            75.4351         calculate D2E/DX2 analytically  !
 ! D6    D(5,1,2,12)           -41.7108         calculate D2E/DX2 analytically  !
 ! D7    D(8,1,2,3)            -61.7814         calculate D2E/DX2 analytically  !
 ! D8    D(8,1,2,11)           177.2792         calculate D2E/DX2 analytically  !
 ! D9    D(8,1,2,12)            60.1333         calculate D2E/DX2 analytically  !
 ! D10   D(9,1,2,3)             54.8347         calculate D2E/DX2 analytically  !
 ! D11   D(9,1,2,11)           -66.1048         calculate D2E/DX2 analytically  !
 ! D12   D(9,1,2,12)           176.7493         calculate D2E/DX2 analytically  !
 ! D13   D(2,1,5,7)           -142.4144         calculate D2E/DX2 analytically  !
 ! D14   D(8,1,5,7)            100.0249         calculate D2E/DX2 analytically  !
 ! D15   D(9,1,5,7)            -17.8386         calculate D2E/DX2 analytically  !
 ! D16   D(1,2,3,6)             -6.1676         calculate D2E/DX2 analytically  !
 ! D17   D(1,2,3,10)           174.4826         calculate D2E/DX2 analytically  !
 ! D18   D(11,2,3,6)           115.3432         calculate D2E/DX2 analytically  !
 ! D19   D(11,2,3,10)          -64.0065         calculate D2E/DX2 analytically  !
 ! D20   D(12,2,3,6)          -127.7413         calculate D2E/DX2 analytically  !
 ! D21   D(12,2,3,10)           52.909          calculate D2E/DX2 analytically  !
 ! D22   D(1,4,5,9)              3.8219         calculate D2E/DX2 analytically  !
 ! D23   D(9,4,5,7)            158.1571         calculate D2E/DX2 analytically  !
 --------------------------------------------------------------------------------
 Trust Radius=3.00D-01 FncErr=1.00D-07 GrdErr=1.00D-06 EigMax=2.50D+02 EigMin=1.00D-04
 Number of steps in this run=    100 maximum allowed number of steps=    100.
 Search for a saddle point of order  1.
 GradGradGradGradGradGradGradGradGradGradGradGradGradGradGradGradGradGrad

                          Input orientation:                          
 ---------------------------------------------------------------------
 Center     Atomic      Atomic             Coordinates (Angstroms)
 Number     Number       Type             X           Y           Z
 ---------------------------------------------------------------------
      1          6           0        1.459711    1.657104   -1.828105
      2          6           0        0.562140    0.690993   -1.097028
      3          6           0        1.184554   -0.668773   -0.957123
      4          8           0        1.093521    2.260740   -2.883853
      5          8           0        0.623097    3.280475   -1.346645
      6          8           0        2.218478   -1.011936   -1.456087
      7          1           0        0.544407    4.007870   -1.961269
      8          1           0        2.420264    1.869182   -1.350624
      9          1           0        1.823201    0.997798   -3.187515
     10          1           0        0.586428   -1.365562   -0.340830
     11          1           0       -0.385071    0.589347   -1.634300
     12          1           0        0.330871    1.094080   -0.109779
 ---------------------------------------------------------------------
                    Distance matrix (angstroms):
                    1          2          3          4          5
     1  C    0.000000
     2  C    1.507806   0.000000
     3  C    2.498805   1.501977   0.000000
     4  O    1.270069   2.437050   3.507509   0.000000
     5  O    1.888666   2.602199   4.007932   1.903724   0.000000
     6  O    2.799625   2.402571   1.198217   3.743588   4.580612
     7  H    2.526186   3.427667   4.825877   2.050646   0.955541
     8  H    1.093447   2.214738   2.850094   2.065032   2.285076
     9  H    1.553964   2.460597   2.856567   1.489854   3.168543
    10  H    3.480103   2.191311   1.105932   4.458046   4.753806
    11  H    2.140300   1.093710   2.122536   2.557571   2.888134
    12  H    2.131647   1.091158   2.134108   3.104548   2.528944
                    6          7          8          9         10
     6  O    0.000000
     7  H    5.315654   0.000000
     8  H    2.890101   2.909590   0.000000
     9  H    2.681999   3.492782   2.118953   0.000000
    10  H    2.008093   5.612607   3.853078   3.901114   0.000000
    11  H    3.061754   3.557687   3.096507   2.730526   2.537429
    12  H    3.132237   3.458870   2.550695   3.421809   2.483653
                   11         12
    11  H    0.000000
    12  H    1.758264   0.000000
 Stoichiometry    C3H6O3
 Framework group  C1[X(C3H6O3)]
 Deg. of freedom    30
 Full point group                 C1      NOp   1
 Largest Abelian subgroup         C1      NOp   1
 Largest concise Abelian subgroup C1      NOp   1
                         Standard orientation:                         
 ---------------------------------------------------------------------
 Center     Atomic      Atomic             Coordinates (Angstroms)
 Number     Number       Type             X           Y           Z
 ---------------------------------------------------------------------
      1          6           0        0.503457    0.326827   -0.257148
      2          6           0       -0.384379   -0.757390    0.299358
      3          6           0       -1.842683   -0.447815    0.116463
      4          8           0        1.363616    0.933767    0.453363
      5          8           0        2.136493   -0.619100   -0.331133
      6          8           0       -2.284098    0.580889   -0.310907
      7          1           0        2.970668   -0.200042   -0.127168
      8          1           0        0.418469    0.506760   -1.332336
      9          1           0        0.063276    1.659627    0.409703
     10          1           0       -2.510438   -1.271977    0.429426
     11          1           0       -0.184444   -0.885574    1.366971
     12          1           0       -0.143994   -1.702979   -0.189212
 ---------------------------------------------------------------------
 Rotational constants (GHZ):           8.8587979           1.9443635           1.7322475
 Standard basis: 6-31+G(d) (6D, 7F)
 There are   126 symmetry adapted cartesian basis functions of A   symmetry.
 There are   126 symmetry adapted basis functions of A   symmetry.
   126 basis functions,   216 primitive gaussians,   126 cartesian basis functions
    24 alpha electrons       24 beta electrons
       nuclear repulsion energy       238.9238519030 Hartrees.
 NAtoms=   12 NActive=   12 NUniq=   12 SFac= 1.00D+00 NAtFMM=   60 NAOKFM=F Big=F
 Integral buffers will be    131072 words long.
 Raffenetti 2 integral format.
 Two-electron integral symmetry is turned on.
 One-electron integrals computed using PRISM.
 NBasis=   126 RedAO= T EigKep=  7.71D-05  NBF=   126
 NBsUse=   126 1.00D-06 EigRej= -1.00D+00 NBFU=   126
 ExpMin= 4.38D-02 ExpMax= 5.48D+03 ExpMxC= 8.25D+02 IAcc=3 IRadAn=         5 AccDes= 0.00D+00
 Harris functional with IExCor=  402 and IRadAn=       5 diagonalized for initial guess.
 HarFok:  IExCor=  402 AccDes= 0.00D+00 IRadAn=         5 IDoV= 1 UseB2=F ITyADJ=14
 ICtDFT=  3500011 ScaDFX=  1.000000  1.000000  1.000000  1.000000
 FoFCou: FMM=F IPFlag=           0 FMFlag=      100000 FMFlg1=           0
         NFxFlg=           0 DoJE=T BraDBF=F KetDBF=T FulRan=T
         wScrn=  0.000000 ICntrl=       500 IOpCl=  0 I1Cent=   200000004 NGrid=           0
         NMat0=    1 NMatS0=      1 NMatT0=    0 NMatD0=    1 NMtDS0=    0 NMtDT0=    0
 Petite list used in FoFCou.
 Keep R1 ints in memory in canonical form, NReq=47237561.
 Requested convergence on RMS density matrix=1.00D-08 within 128 cycles.
 Requested convergence on MAX density matrix=1.00D-06.
 Requested convergence on             energy=1.00D-06.
 No special actions if energy rises.
 EnCoef did     2 forward-backward iterations
 EnCoef did     3 forward-backward iterations
 SCF Done:  E(RB3LYP) =  -343.360503929     A.U. after   16 cycles
            NFock= 16  Conv=0.75D-08     -V/T= 2.0083
 DoSCS=F DFT=T ScalE2(SS,OS)=  1.000000  1.000000
 Range of M.O.s used for correlation:     1   126
 NBasis=   126 NAE=    24 NBE=    24 NFC=     0 NFV=     0
 NROrb=    126 NOA=    24 NOB=    24 NVA=   102 NVB=   102

 **** Warning!!: The largest alpha MO coefficient is  0.42179468D+02

 Symmetrizing basis deriv contribution to polar:
 IMax=3 JMax=2 DiffMx= 0.00D+00
 G2DrvN: will do    13 centers at a time, making    1 passes.
 Calling FoFCou, ICntrl=  3107 FMM=F I1Cent=   0 AccDes= 0.00D+00.
 End of G2Drv F.D. properties file   721 does not exist.
 End of G2Drv F.D. properties file   722 does not exist.
 End of G2Drv F.D. properties file   788 does not exist.
          IDoAtm=111111111111
          Differentiating once with respect to electric field.
                with respect to dipole field.
          Differentiating once with respect to nuclear coordinates.
 Keep R1 ints in memory in canonical form, NReq=47193583.
          There are    39 degrees of freedom in the 1st order CPHF.  IDoFFX=6 NUNeed=     3.
     36 vectors produced by pass  0 Test12= 6.28D-15 2.56D-09 XBig12= 1.59D+02 9.37D+00.
 AX will form    36 AO Fock derivatives at one time.
     36 vectors produced by pass  1 Test12= 6.28D-15 2.56D-09 XBig12= 6.76D+01 1.52D+00.
     36 vectors produced by pass  2 Test12= 6.28D-15 2.56D-09 XBig12= 9.02D-01 1.99D-01.
     36 vectors produced by pass  3 Test12= 6.28D-15 2.56D-09 XBig12= 3.41D-03 9.56D-03.
     36 vectors produced by pass  4 Test12= 6.28D-15 2.56D-09 XBig12= 4.79D-06 2.46D-04.
     30 vectors produced by pass  5 Test12= 6.28D-15 2.56D-09 XBig12= 4.63D-09 8.73D-06.
      5 vectors produced by pass  6 Test12= 6.28D-15 2.56D-09 XBig12= 4.23D-12 3.47D-07.
      3 vectors produced by pass  7 Test12= 6.28D-15 2.56D-09 XBig12= 4.54D-15 8.82D-09.
 InvSVY:  IOpt=1 It=  1 EMax= 4.44D-15
 Solved reduced A of dimension   218 with    39 vectors.
 Isotropic polarizability for W=    0.000000       61.78 Bohr**3.
 End of Minotr F.D. properties file   721 does not exist.
 End of Minotr F.D. properties file   722 does not exist.
 End of Minotr F.D. properties file   788 does not exist.

 **********************************************************************

            Population analysis using the SCF Density.

 **********************************************************************

 Orbital symmetries:
       Occupied  (A) (A) (A) (A) (A) (A) (A) (A) (A) (A) (A) (A)
                 (A) (A) (A) (A) (A) (A) (A) (A) (A) (A) (A) (A)
       Virtual   (A) (A) (A) (A) (A) (A) (A) (A) (A) (A) (A) (A)
                 (A) (A) (A) (A) (A) (A) (A) (A) (A) (A) (A) (A)
                 (A) (A) (A) (A) (A) (A) (A) (A) (A) (A) (A) (A)
                 (A) (A) (A) (A) (A) (A) (A) (A) (A) (A) (A) (A)
                 (A) (A) (A) (A) (A) (A) (A) (A) (A) (A) (A) (A)
                 (A) (A) (A) (A) (A) (A) (A) (A) (A) (A) (A) (A)
                 (A) (A) (A) (A) (A) (A) (A) (A) (A) (A) (A) (A)
                 (A) (A) (A) (A) (A) (A) (A) (A) (A) (A) (A) (A)
                 (A) (A) (A) (A) (A) (A)
 The electronic state is 1-A.
 Alpha  occ. eigenvalues --  -19.26253 -19.19521 -19.11779 -10.35931 -10.31801
 Alpha  occ. eigenvalues --  -10.23756  -1.13371  -1.09768  -0.92785  -0.82310
 Alpha  occ. eigenvalues --   -0.67860  -0.60430  -0.55196  -0.53943  -0.50827
 Alpha  occ. eigenvalues --   -0.49174  -0.46966  -0.45836  -0.41804  -0.40213
 Alpha  occ. eigenvalues --   -0.33944  -0.29697  -0.26980  -0.24440
 Alpha virt. eigenvalues --   -0.12321  -0.06113  -0.03759   0.00113   0.01809
 Alpha virt. eigenvalues --    0.03150   0.04458   0.05167   0.05789   0.07745
 Alpha virt. eigenvalues --    0.08660   0.08769   0.10865   0.12435   0.14429
 Alpha virt. eigenvalues --    0.16986   0.18257   0.19059   0.20296   0.21358
 Alpha virt. eigenvalues --    0.21792   0.22797   0.24407   0.25425   0.26784
 Alpha virt. eigenvalues --    0.27344   0.27902   0.29414   0.29928   0.30575
 Alpha virt. eigenvalues --    0.32078   0.33283   0.36111   0.37933   0.39454
 Alpha virt. eigenvalues --    0.45232   0.61524   0.62518   0.63547   0.66859
 Alpha virt. eigenvalues --    0.69098   0.72532   0.75762   0.79452   0.84447
 Alpha virt. eigenvalues --    0.88848   0.93308   0.96209   0.98833   1.04592
 Alpha virt. eigenvalues --    1.07794   1.09432   1.13737   1.18957   1.20055
 Alpha virt. eigenvalues --    1.21282   1.21885   1.24220   1.24772   1.28366
 Alpha virt. eigenvalues --    1.29824   1.36611   1.39535   1.43702   1.48897
 Alpha virt. eigenvalues --    1.50909   1.55209   1.58591   1.60534   1.62906
 Alpha virt. eigenvalues --    1.68771   1.72517   1.75887   1.77146   1.78754
 Alpha virt. eigenvalues --    1.82421   1.87954   1.96796   1.99439   2.01991
 Alpha virt. eigenvalues --    2.03153   2.09099   2.19394   2.22607   2.36221
 Alpha virt. eigenvalues --    2.39927   2.45813   2.51528   2.56878   2.58547
 Alpha virt. eigenvalues --    2.65407   2.68473   2.79499   2.92615   2.99259
 Alpha virt. eigenvalues --    3.07310   4.06613   4.10856   4.16692   4.23499
 Alpha virt. eigenvalues --    4.34952   4.54420
          Condensed to atoms (all electrons):
               1          2          3          4          5          6
     1  C    5.529024  -0.533437   0.101013   0.155334   0.100569   0.073887
     2  C   -0.533437   6.930552  -0.067529  -0.076033  -0.045079  -0.222232
     3  C    0.101013  -0.067529   4.962565   0.018577  -0.008946   0.466633
     4  O    0.155334  -0.076033   0.018577   8.408439  -0.263714   0.004252
     5  O    0.100569  -0.045079  -0.008946  -0.263714   8.860916  -0.004589
     6  O    0.073887  -0.222232   0.466633   0.004252  -0.004589   8.089412
     7  H   -0.013937   0.007763  -0.000539   0.018732   0.181572   0.000033
     8  H    0.402604  -0.097245   0.009649  -0.025709  -0.036716  -0.000772
     9  H    0.249082  -0.014484  -0.021577  -0.150933   0.058642  -0.016133
    10  H    0.040191  -0.182718   0.414340  -0.000428  -0.000451  -0.058331
    11  H   -0.022835   0.354254  -0.025697   0.003481  -0.002169   0.000948
    12  H   -0.011157   0.347224  -0.022252   0.001294  -0.007704   0.001190
               7          8          9         10         11         12
     1  C   -0.013937   0.402604   0.249082   0.040191  -0.022835  -0.011157
     2  C    0.007763  -0.097245  -0.014484  -0.182718   0.354254   0.347224
     3  C   -0.000539   0.009649  -0.021577   0.414340  -0.025697  -0.022252
     4  O    0.018732  -0.025709  -0.150933  -0.000428   0.003481   0.001294
     5  O    0.181572  -0.036716   0.058642  -0.000451  -0.002169  -0.007704
     6  O    0.000033  -0.000772  -0.016133  -0.058331   0.000948   0.001190
     7  H    0.338124   0.000824  -0.000560   0.000001   0.000009   0.000233
     8  H    0.000824   0.509913  -0.016853  -0.000321   0.002737   0.000510
     9  H   -0.000560  -0.016853   0.799107   0.000083  -0.000970   0.000889
    10  H    0.000001  -0.000321   0.000083   0.615359   0.000808   0.000856
    11  H    0.000009   0.002737  -0.000970   0.000808   0.439292  -0.017343
    12  H    0.000233   0.000510   0.000889   0.000856  -0.017343   0.419659
 Mulliken charges:
               1
     1  C   -0.070337
     2  C   -0.401035
     3  C    0.173764
     4  O   -0.093292
     5  O   -0.832329
     6  O   -0.334299
     7  H    0.467744
     8  H    0.251378
     9  H    0.113708
    10  H    0.170611
    11  H    0.267486
    12  H    0.286601
 Sum of Mulliken charges =  -0.00000
 Mulliken charges with hydrogens summed into heavy atoms:
               1
     1  C    0.181041
     2  C    0.153052
     3  C    0.344375
     4  O    0.020417
     5  O   -0.364585
     6  O   -0.334299
 APT charges:
               1
     1  C    0.520606
     2  C   -0.179882
     3  C    0.744076
     4  O    0.376618
     5  O   -0.934900
     6  O   -0.609113
     7  H    0.309095
     8  H    0.011943
     9  H   -0.270800
    10  H   -0.077865
    11  H    0.041688
    12  H    0.068533
 Sum of APT charges =  -0.00000
 APT charges with hydrogens summed into heavy atoms:
               1
     1  C    0.532550
     2  C   -0.069661
     3  C    0.666211
     4  O    0.105818
     5  O   -0.625805
     6  O   -0.609113
 Electronic spatial extent (au):  <R**2>=            679.1075
 Charge=             -0.0000 electrons
 Dipole moment (field-independent basis, Debye):
    X=             -1.3428    Y=             -0.9949    Z=              0.7836  Tot=              1.8459
 Quadrupole moment (field-independent basis, Debye-Ang):
   XX=            -42.3189   YY=            -37.7319   ZZ=            -35.9940
   XY=              7.9044   XZ=             -1.1547   YZ=             -1.1509
 Traceless Quadrupole moment (field-independent basis, Debye-Ang):
   XX=             -3.6373   YY=              0.9497   ZZ=              2.6876
   XY=              7.9044   XZ=             -1.1547   YZ=             -1.1509
 Octapole moment (field-independent basis, Debye-Ang**2):
  XXX=             24.3074  YYY=             -0.1999  ZZZ=             -0.0721  XYY=             -5.1169
  XXY=             -2.4130  XXZ=              7.9341  XZZ=             -1.8951  YZZ=              0.4887
  YYZ=              0.0046  XYZ=             -2.9783
 Hexadecapole moment (field-independent basis, Debye-Ang**3):
 XXXX=           -579.1121 YYYY=           -161.0331 ZZZZ=            -70.0210 XXXY=             41.3457
 XXXZ=              0.2133 YYYX=              5.9277 YYYZ=              1.2693 ZZZX=              3.7589
 ZZZY=             -3.2578 XXYY=           -143.3177 XXZZ=           -120.1061 YYZZ=            -39.1090
 XXYZ=             -2.3379 YYXZ=              0.2958 ZZXY=              1.9737
 N-N= 2.389238519030D+02 E-N=-1.281999785703D+03  KE= 3.405379887465D+02
  Exact polarizability:  76.951 -16.389  65.694  -4.536   3.004  42.686
 Approx polarizability: 138.671 -68.423 139.700 -14.738  18.115  65.422
 Calling FoFJK, ICntrl=    100127 FMM=F ISym2X=0 I1Cent= 0 IOpClX= 0 NMat=1 NMatS=1 NMatT=0.
 ***** Axes restored to original set *****
 -------------------------------------------------------------------
 Center     Atomic                   Forces (Hartrees/Bohr)
 Number     Number              X              Y              Z
 -------------------------------------------------------------------
      1        6          -0.002176205    0.016581933    0.028307009
      2        6           0.004062993   -0.000030125   -0.009557552
      3        6          -0.021105543    0.001713485    0.013150190
      4        8           0.015854800   -0.046053015   -0.041072989
      5        8          -0.024571017    0.005794233    0.038099687
      6        8           0.022643731   -0.006712130   -0.010814079
      7        1           0.009712194    0.021254443   -0.005358454
      8        1           0.005077958   -0.002170836   -0.006659894
      9        1          -0.005003108    0.010291527   -0.010694602
     10        1          -0.000711836   -0.004197743    0.001798536
     11        1          -0.003365779    0.001081134   -0.000199536
     12        1          -0.000418188    0.002447094    0.003001686
 -------------------------------------------------------------------
 Cartesian Forces:  Max     0.046053015 RMS     0.016310408
 FormGI is forming the generalized inverse of G from B-inverse, IUseBI=4.

 GradGradGradGradGradGradGradGradGradGradGradGradGradGradGradGradGradGrad
 Berny optimization.
 Internal  Forces:  Max     0.037057230 RMS     0.008072546
 Search for a saddle point.
 Step number   1 out of a maximum of  100
 All quantities printed in internal units (Hartrees-Bohrs-Radians)
 Swapping is turned off.
 Second derivative matrix not updated -- analytic derivatives used.
 ITU=  0
     Eigenvalues ---   -0.36625  -0.01022   0.00013   0.00184   0.00887
     Eigenvalues ---    0.01988   0.02194   0.02700   0.03349   0.03443
     Eigenvalues ---    0.03883   0.05065   0.06385   0.07135   0.08817
     Eigenvalues ---    0.09466   0.10910   0.13138   0.13544   0.18206
     Eigenvalues ---    0.22971   0.27092   0.30605   0.31787   0.34483
     Eigenvalues ---    0.34562   0.35374   0.50686   0.56683   0.95773
 Eigenvectors required to have negative eigenvalues:
                          R3        R12       R5        R11       D1
   1                    0.50121   0.41008  -0.40374  -0.36794   0.23297
                          D2        D3        A20       A19       A2
   1                    0.22878   0.22742   0.15329   0.14112   0.12293
 RFO step:  Lambda0=2.431115225D-03 Lambda=-2.18703902D-02.
 Linear search not attempted -- option 19 set.
 Maximum step size (   0.300) exceeded in Quadratic search.
    -- Step size scaled by   0.709
 Iteration  1 RMS(Cart)=  0.04808900 RMS(Int)=  0.02252527
 Iteration  2 RMS(Cart)=  0.01393038 RMS(Int)=  0.00186996
 Iteration  3 RMS(Cart)=  0.00057959 RMS(Int)=  0.00176113
 Iteration  4 RMS(Cart)=  0.00000069 RMS(Int)=  0.00176113
 Variable       Old X    -DE/DX   Delta X   Delta X   Delta X     New X
                                 (Linear)    (Quad)   (Total)
    R1        2.84934   0.00172   0.00000  -0.00527  -0.00527   2.84407
    R2        2.40008   0.00315   0.00000   0.01805   0.01855   2.41863
    R3        3.56906   0.00823   0.00000   0.19354   0.19314   3.76220
    R4        2.06632   0.00113   0.00000   0.00027   0.00027   2.06658
    R5        2.93657   0.01369   0.00000  -0.09954  -0.09956   2.83701
    R6        2.83833   0.00905   0.00000   0.01570   0.01570   2.85402
    R7        2.06681   0.00291   0.00000   0.00495   0.00495   2.07176
    R8        2.06199   0.00371   0.00000   0.00917   0.00917   2.07116
    R9        2.26430   0.02596   0.00000   0.01879   0.01879   2.28309
   R10        2.08991   0.00403   0.00000   0.00436   0.00436   2.09427
   R11        3.59752   0.03706   0.00000   0.12394   0.12333   3.72085
   R12        2.81542  -0.01581   0.00000  -0.09600  -0.09505   2.72037
   R13        1.80571   0.01883   0.00000   0.02209   0.02209   1.82780
    A1        2.13641  -0.00232   0.00000  -0.02667  -0.02653   2.10988
    A2        1.73498  -0.00610   0.00000  -0.02165  -0.02144   1.71354
    A3        2.02137   0.00281   0.00000   0.02222   0.02204   2.04341
    A4        1.86665   0.00365   0.00000   0.02679   0.02726   1.89391
    A5        2.12244   0.00034   0.00000   0.00349   0.00347   2.12591
    A6        1.68213   0.00174   0.00000   0.01963   0.01983   1.70196
    A7        2.33408   0.00146   0.00000  -0.03189  -0.03299   2.30109
    A8        1.83259  -0.00287   0.00000  -0.00923  -0.00966   1.82293
    A9        1.95903   0.00468   0.00000   0.01621   0.01618   1.97521
   A10        1.91443  -0.00102   0.00000  -0.00232  -0.00247   1.91196
   A11        1.90515  -0.00242   0.00000  -0.01074  -0.01075   1.89440
   A12        1.89706  -0.00067   0.00000   0.00704   0.00698   1.90404
   A13        1.91558  -0.00115   0.00000  -0.00359  -0.00352   1.91205
   A14        1.87049   0.00040   0.00000  -0.00762  -0.00766   1.86283
   A15        2.18715  -0.00260   0.00000  -0.00905  -0.00905   2.17810
   A16        1.98033   0.00366   0.00000   0.01474   0.01474   1.99507
   A17        2.11565  -0.00106   0.00000  -0.00570  -0.00570   2.10995
   A18        2.40338   0.00106   0.00000   0.01848   0.01658   2.41996
   A19        2.12565   0.00126   0.00000   0.00812  -0.00079   2.12486
   A20        1.47939   0.00578   0.00000   0.09046   0.09906   1.57846
    D1        2.14479  -0.00823   0.00000   0.01697   0.01647   2.16125
    D2        0.03400  -0.00977   0.00000  -0.00109  -0.00159   0.03241
    D3       -2.01059  -0.00827   0.00000   0.01567   0.01513  -1.99546
    D4       -2.85580   0.00363   0.00000  -0.01294  -0.01310  -2.86891
    D5        1.31659   0.00209   0.00000  -0.03100  -0.03116   1.28543
    D6       -0.72799   0.00359   0.00000  -0.01424  -0.01444  -0.74243
    D7       -1.07829   0.00315   0.00000   0.00406   0.00391  -1.07438
    D8        3.09411   0.00161   0.00000  -0.01399  -0.01414   3.07996
    D9        1.04952   0.00311   0.00000   0.00277   0.00257   1.05210
   D10        0.95705   0.00371   0.00000   0.02403   0.02489   0.98194
   D11       -1.15375   0.00217   0.00000   0.00597   0.00684  -1.14691
   D12        3.08486   0.00368   0.00000   0.02273   0.02356   3.10841
   D13       -2.48560  -0.00475   0.00000  -0.27511  -0.27545  -2.76105
   D14        1.74576  -0.00679   0.00000  -0.29833  -0.29832   1.44745
   D15       -0.31134  -0.00532   0.00000  -0.28653  -0.28539  -0.59673
   D16       -0.10765  -0.00046   0.00000  -0.00416  -0.00420  -0.11185
   D17        3.04530  -0.00057   0.00000  -0.00336  -0.00340   3.04190
   D18        2.01312   0.00082   0.00000   0.00825   0.00831   2.02143
   D19       -1.11712   0.00071   0.00000   0.00906   0.00911  -1.10801
   D20       -2.22951   0.00027   0.00000   0.00112   0.00111  -2.22840
   D21        0.92344   0.00016   0.00000   0.00193   0.00191   0.92535
   D22        0.06671   0.00093   0.00000   0.01470   0.01629   0.08300
   D23        2.76036  -0.00514   0.00000  -0.25848  -0.25599   2.50437
         Item               Value     Threshold  Converged?
 Maximum Force            0.037057     0.000450     NO 
 RMS     Force            0.008073     0.000300     NO 
 Maximum Displacement     0.218891     0.001800     NO 
 RMS     Displacement     0.055374     0.001200     NO 
 Predicted change in Energy=-1.342092D-02
 GradGradGradGradGradGradGradGradGradGradGradGradGradGradGradGradGradGrad

                          Input orientation:                          
 ---------------------------------------------------------------------
 Center     Atomic      Atomic             Coordinates (Angstroms)
 Number     Number       Type             X           Y           Z
 ---------------------------------------------------------------------
      1          6           0        1.466070    1.632942   -1.847732
      2          6           0        0.571494    0.671615   -1.112433
      3          6           0        1.186426   -0.696574   -0.936722
      4          8           0        1.064703    2.221967   -2.910773
      5          8           0        0.523699    3.319885   -1.368434
      6          8           0        2.232046   -1.050705   -1.427557
      7          1           0        0.618122    4.123702   -1.898051
      8          1           0        2.428332    1.870379   -1.385550
      9          1           0        1.826502    1.029240   -3.174185
     10          1           0        0.587556   -1.389142   -0.312298
     11          1           0       -0.379102    0.571289   -1.649311
     12          1           0        0.335753    1.096718   -0.130112
 ---------------------------------------------------------------------
                    Distance matrix (angstroms):
                    1          2          3          4          5
     1  C    0.000000
     2  C    1.505018   0.000000
     3  C    2.516900   1.510284   0.000000
     4  O    1.279884   2.425051   3.525561   0.000000
     5  O    1.990871   2.661043   4.093596   1.968989   0.000000
     6  O    2.822273   2.413115   1.208159   3.777962   4.692973
     7  H    2.631622   3.540660   4.947948   2.200372   0.967229
     8  H    1.093589   2.226988   2.886699   2.075911   2.393530
     9  H    1.501281   2.440033   2.897305   1.439556   3.194540
    10  H    3.501762   2.210700   1.108242   4.474355   4.826431
    11  H    2.138022   1.096329   2.136853   2.529940   2.906668
    12  H    2.124941   1.096011   2.142466   3.087010   2.551712
                    6          7          8          9         10
     6  O    0.000000
     7  H    5.440643   0.000000
     8  H    2.927973   2.935469   0.000000
     9  H    2.746151   3.558707   2.066139   0.000000
    10  H    2.015611   5.736462   3.894201   3.946386   0.000000
    11  H    3.081904   3.698103   3.104657   2.720230   2.562289
    12  H    3.144951   3.516813   2.559993   3.390172   2.505214
                   11         12
    11  H    0.000000
    12  H    1.759278   0.000000
 Stoichiometry    C3H6O3
 Framework group  C1[X(C3H6O3)]
 Deg. of freedom    30
 Full point group                 C1      NOp   1
 Largest Abelian subgroup         C1      NOp   1
 Largest concise Abelian subgroup C1      NOp   1
                         Standard orientation:                         
 ---------------------------------------------------------------------
 Center     Atomic      Atomic             Coordinates (Angstroms)
 Number     Number       Type             X           Y           Z
 ---------------------------------------------------------------------
      1          6           0        0.485338    0.355163   -0.269030
      2          6           0       -0.384197   -0.736311    0.294595
      3          6           0       -1.860472   -0.470204    0.119210
      4          8           0        1.345819    0.954537    0.464746
      5          8           0        2.208048   -0.642300   -0.299187
      6          8           0       -2.329455    0.555554   -0.313830
      7          1           0        3.060492   -0.185433   -0.311140
      8          1           0        0.411525    0.545626   -1.343373
      9          1           0        0.092101    1.655603    0.369769
     10          1           0       -2.515555   -1.305745    0.436917
     11          1           0       -0.167104   -0.864070    1.361593
     12          1           0       -0.120771   -1.680201   -0.196240
 ---------------------------------------------------------------------
 Rotational constants (GHZ):           8.7484184           1.8815759           1.6780301
 Standard basis: 6-31+G(d) (6D, 7F)
 There are   126 symmetry adapted cartesian basis functions of A   symmetry.
 There are   126 symmetry adapted basis functions of A   symmetry.
   126 basis functions,   216 primitive gaussians,   126 cartesian basis functions
    24 alpha electrons       24 beta electrons
       nuclear repulsion energy       236.0707799754 Hartrees.
 NAtoms=   12 NActive=   12 NUniq=   12 SFac= 1.00D+00 NAtFMM=   60 NAOKFM=F Big=F
 Integral buffers will be    131072 words long.
 Raffenetti 2 integral format.
 Two-electron integral symmetry is turned on.
 One-electron integrals computed using PRISM.
 NBasis=   126 RedAO= T EigKep=  7.43D-05  NBF=   126
 NBsUse=   126 1.00D-06 EigRej= -1.00D+00 NBFU=   126
 Initial guess from the checkpoint file:  "/scratch/bell/zhao922/YARP/paper-example/KHP-network/pp_0/TS-folder/Gau-65044.chk"
 B after Tr=     0.000000    0.000000    0.000000
         Rot=    0.999983    0.003685    0.000692   -0.004445 Ang=   0.67 deg.
 ExpMin= 4.38D-02 ExpMax= 5.48D+03 ExpMxC= 8.25D+02 IAcc=3 IRadAn=         5 AccDes= 0.00D+00
 Harris functional with IExCor=  402 and IRadAn=       5 diagonalized for initial guess.
 HarFok:  IExCor=  402 AccDes= 0.00D+00 IRadAn=         5 IDoV= 1 UseB2=F ITyADJ=14
 ICtDFT=  3500011 ScaDFX=  1.000000  1.000000  1.000000  1.000000
 FoFCou: FMM=F IPFlag=           0 FMFlag=      100000 FMFlg1=           0
         NFxFlg=           0 DoJE=T BraDBF=F KetDBF=T FulRan=T
         wScrn=  0.000000 ICntrl=       500 IOpCl=  0 I1Cent=   200000004 NGrid=           0
         NMat0=    1 NMatS0=      1 NMatT0=    0 NMatD0=    1 NMtDS0=    0 NMtDT0=    0
 Petite list used in FoFCou.
 Keep R1 ints in memory in canonical form, NReq=47237561.
 Requested convergence on RMS density matrix=1.00D-08 within 128 cycles.
 Requested convergence on MAX density matrix=1.00D-06.
 Requested convergence on             energy=1.00D-06.
 No special actions if energy rises.
 SCF Done:  E(RB3LYP) =  -343.373394998     A.U. after   14 cycles
            NFock= 14  Conv=0.29D-08     -V/T= 2.0088
 DoSCS=F DFT=T ScalE2(SS,OS)=  1.000000  1.000000
 Range of M.O.s used for correlation:     1   126
 NBasis=   126 NAE=    24 NBE=    24 NFC=     0 NFV=     0
 NROrb=    126 NOA=    24 NOB=    24 NVA=   102 NVB=   102

 **** Warning!!: The largest alpha MO coefficient is  0.42297492D+02

 Symmetrizing basis deriv contribution to polar:
 IMax=3 JMax=2 DiffMx= 0.00D+00
 G2DrvN: will do    13 centers at a time, making    1 passes.
 Calling FoFCou, ICntrl=  3107 FMM=F I1Cent=   0 AccDes= 0.00D+00.
 End of G2Drv F.D. properties file   721 does not exist.
 End of G2Drv F.D. properties file   722 does not exist.
 End of G2Drv F.D. properties file   788 does not exist.
          IDoAtm=111111111111
          Differentiating once with respect to electric field.
                with respect to dipole field.
          Differentiating once with respect to nuclear coordinates.
 Keep R1 ints in memory in canonical form, NReq=47193583.
          There are    39 degrees of freedom in the 1st order CPHF.  IDoFFX=6 NUNeed=     3.
     36 vectors produced by pass  0 Test12= 6.28D-15 2.56D-09 XBig12= 1.58D+02 8.47D+00.
 AX will form    36 AO Fock derivatives at one time.
     36 vectors produced by pass  1 Test12= 6.28D-15 2.56D-09 XBig12= 6.67D+01 1.43D+00.
     36 vectors produced by pass  2 Test12= 6.28D-15 2.56D-09 XBig12= 8.79D-01 1.98D-01.
     36 vectors produced by pass  3 Test12= 6.28D-15 2.56D-09 XBig12= 4.32D-03 1.26D-02.
     36 vectors produced by pass  4 Test12= 6.28D-15 2.56D-09 XBig12= 6.94D-06 3.50D-04.
     30 vectors produced by pass  5 Test12= 6.28D-15 2.56D-09 XBig12= 7.85D-09 9.84D-06.
      4 vectors produced by pass  6 Test12= 6.28D-15 2.56D-09 XBig12= 7.63D-12 3.86D-07.
      3 vectors produced by pass  7 Test12= 6.28D-15 2.56D-09 XBig12= 8.97D-15 1.22D-08.
 InvSVY:  IOpt=1 It=  1 EMax= 5.33D-15
 Solved reduced A of dimension   217 with    39 vectors.
 Isotropic polarizability for W=    0.000000       62.22 Bohr**3.
 End of Minotr F.D. properties file   721 does not exist.
 End of Minotr F.D. properties file   722 does not exist.
 End of Minotr F.D. properties file   788 does not exist.
 Calling FoFJK, ICntrl=    100127 FMM=F ISym2X=0 I1Cent= 0 IOpClX= 0 NMat=1 NMatS=1 NMatT=0.
 ***** Axes restored to original set *****
 -------------------------------------------------------------------
 Center     Atomic                   Forces (Hartrees/Bohr)
 Number     Number              X              Y              Z
 -------------------------------------------------------------------
      1        6           0.002179782    0.004819727    0.015588267
      2        6           0.002492823   -0.001181648   -0.002671289
      3        6          -0.007670120    0.000713062    0.004897601
      4        8           0.007978890   -0.023964530   -0.020657468
      5        8          -0.020431201    0.003720276    0.008489063
      6        8           0.007714633   -0.002054032   -0.003619785
      7        1           0.011563825    0.009791870    0.005012261
      8        1           0.002838181    0.000198015   -0.004833375
      9        1          -0.004854064    0.008033454   -0.003994486
     10        1          -0.000090993   -0.001601587    0.000567531
     11        1          -0.001432469    0.000702160    0.000354143
     12        1          -0.000289286    0.000823232    0.000867537
 -------------------------------------------------------------------
 Cartesian Forces:  Max     0.023964530 RMS     0.008184048
 FormGI is forming the generalized inverse of G from B-inverse, IUseBI=4.

 GradGradGradGradGradGradGradGradGradGradGradGradGradGradGradGradGradGrad
 Berny optimization.
 Internal  Forces:  Max     0.017740921 RMS     0.003858305
 Search for a saddle point.
 Step number   2 out of a maximum of  100
 All quantities printed in internal units (Hartrees-Bohrs-Radians)
 Swapping is turned off.
 Second derivative matrix not updated -- analytic derivatives used.
 ITU=  0  0
     Eigenvalues ---   -0.30869  -0.00280  -0.00036   0.00182   0.00634
     Eigenvalues ---    0.01654   0.02031   0.02608   0.02865   0.03378
     Eigenvalues ---    0.03748   0.04967   0.06129   0.07127   0.07622
     Eigenvalues ---    0.08667   0.10601   0.12821   0.13232   0.17734
     Eigenvalues ---    0.22660   0.26597   0.30215   0.31315   0.33859
     Eigenvalues ---    0.34521   0.34569   0.47945   0.52320   0.89724
 Eigenvectors required to have negative eigenvalues:
                          R3        R12       R5        R11       D1
   1                    0.47662   0.42425  -0.41962  -0.38905   0.23148
                          D2        D3        A2        A20       A19
   1                    0.22922   0.22666   0.12185   0.11876   0.11626
 RFO step:  Lambda0=7.793434195D-04 Lambda=-1.31072219D-02.
 Linear search not attempted -- option 19 set.
 Maximum step size (   0.300) exceeded in Quadratic search.
    -- Step size scaled by   0.791
 Iteration  1 RMS(Cart)=  0.06574379 RMS(Int)=  0.06916357
 Iteration  2 RMS(Cart)=  0.03885663 RMS(Int)=  0.01718303
 Iteration  3 RMS(Cart)=  0.01250717 RMS(Int)=  0.00497073
 Iteration  4 RMS(Cart)=  0.00040330 RMS(Int)=  0.00495025
 Iteration  5 RMS(Cart)=  0.00000113 RMS(Int)=  0.00495025
 Iteration  6 RMS(Cart)=  0.00000001 RMS(Int)=  0.00495025
 Variable       Old X    -DE/DX   Delta X   Delta X   Delta X     New X
                                 (Linear)    (Quad)   (Total)
    R1        2.84407   0.00142   0.00000   0.00461   0.00461   2.84868
    R2        2.41863   0.00289   0.00000   0.03215   0.03418   2.45281
    R3        3.76220   0.00439   0.00000   0.13954   0.13811   3.90031
    R4        2.06658   0.00050   0.00000  -0.00105  -0.00105   2.06553
    R5        2.83701   0.00501   0.00000  -0.16394  -0.16377   2.67324
    R6        2.85402   0.00286   0.00000   0.00348   0.00348   2.85750
    R7        2.07176   0.00100   0.00000   0.00275   0.00275   2.07451
    R8        2.07116   0.00116   0.00000   0.00367   0.00367   2.07483
    R9        2.28309   0.00875   0.00000   0.00808   0.00808   2.29117
   R10        2.09427   0.00137   0.00000   0.00200   0.00200   2.09627
   R11        3.72085   0.01774   0.00000   0.04960   0.04887   3.76973
   R12        2.72037  -0.00968   0.00000  -0.08920  -0.08811   2.63226
   R13        1.82780   0.00652   0.00000   0.01058   0.01058   1.83837
    A1        2.10988  -0.00011   0.00000  -0.01381  -0.00803   2.10185
    A2        1.71354  -0.00235   0.00000   0.00239   0.00123   1.71477
    A3        2.04341   0.00129   0.00000   0.01816   0.01790   2.06131
    A4        1.89391   0.00225   0.00000   0.01321   0.01460   1.90851
    A5        2.12591  -0.00073   0.00000  -0.00604  -0.01165   2.11427
    A6        1.70196   0.00076   0.00000   0.00643   0.00757   1.70952
    A7        2.30109  -0.00047   0.00000  -0.03146  -0.03281   2.26828
    A8        1.82293  -0.00128   0.00000  -0.00511  -0.00564   1.81729
    A9        1.97521   0.00153   0.00000   0.00779   0.00776   1.98297
   A10        1.91196  -0.00028   0.00000   0.00187   0.00183   1.91379
   A11        1.89440  -0.00081   0.00000  -0.00090  -0.00089   1.89351
   A12        1.90404  -0.00006   0.00000   0.00355   0.00351   1.90755
   A13        1.91205  -0.00040   0.00000  -0.00276  -0.00276   1.90930
   A14        1.86283  -0.00008   0.00000  -0.01070  -0.01069   1.85214
   A15        2.17810  -0.00147   0.00000  -0.00710  -0.00710   2.17100
   A16        1.99507   0.00179   0.00000   0.01063   0.01063   2.00570
   A17        2.10995  -0.00032   0.00000  -0.00351  -0.00351   2.10644
   A18        2.41996  -0.00015   0.00000  -0.01970  -0.02156   2.39840
   A19        2.12486   0.00027   0.00000  -0.14124  -0.16170   1.96316
   A20        1.57846   0.00296   0.00000   0.02539   0.05191   1.63037
    D1        2.16125  -0.00396   0.00000   0.09374   0.09336   2.25462
    D2        0.03241  -0.00473   0.00000   0.08248   0.08209   0.11450
    D3       -1.99546  -0.00403   0.00000   0.09474   0.09435  -1.90110
    D4       -2.86891   0.00146   0.00000   0.05994   0.05925  -2.80965
    D5        1.28543   0.00068   0.00000   0.04868   0.04798   1.33341
    D6       -0.74243   0.00139   0.00000   0.06093   0.06024  -0.68219
    D7       -1.07438   0.00137   0.00000   0.07347   0.07359  -1.00078
    D8        3.07996   0.00060   0.00000   0.06221   0.06232  -3.14090
    D9        1.05210   0.00130   0.00000   0.07447   0.07458   1.12668
   D10        0.98194   0.00225   0.00000   0.08858   0.08955   1.07149
   D11       -1.14691   0.00148   0.00000   0.07733   0.07828  -1.06863
   D12        3.10841   0.00218   0.00000   0.08958   0.09054  -3.08423
   D13       -2.76105  -0.00582   0.00000  -0.44815  -0.44291   3.07923
   D14        1.44745  -0.00680   0.00000  -0.46903  -0.46361   0.98383
   D15       -0.59673  -0.00546   0.00000  -0.44931  -0.44410  -1.04083
   D16       -0.11185  -0.00019   0.00000   0.01211   0.01210  -0.09975
   D17        3.04190  -0.00025   0.00000   0.00989   0.00988   3.05178
   D18        2.02143   0.00045   0.00000   0.02236   0.02237   2.04380
   D19       -1.10801   0.00039   0.00000   0.02014   0.02016  -1.08786
   D20       -2.22840   0.00009   0.00000   0.00997   0.00997  -2.21842
   D21        0.92535   0.00003   0.00000   0.00776   0.00776   0.93311
   D22        0.08300   0.00039   0.00000   0.01377   0.00550   0.08849
   D23        2.50437  -0.00455   0.00000  -0.43121  -0.43445   2.06993
         Item               Value     Threshold  Converged?
 Maximum Force            0.017741     0.000450     NO 
 RMS     Force            0.003858     0.000300     NO 
 Maximum Displacement     0.485914     0.001800     NO 
 RMS     Displacement     0.103663     0.001200     NO 
 Predicted change in Energy=-1.146158D-02
 GradGradGradGradGradGradGradGradGradGradGradGradGradGradGradGradGradGrad

                          Input orientation:                          
 ---------------------------------------------------------------------
 Center     Atomic      Atomic             Coordinates (Angstroms)
 Number     Number       Type             X           Y           Z
 ---------------------------------------------------------------------
      1          6           0        1.432000    1.614845   -1.894528
      2          6           0        0.555060    0.641610   -1.148728
      3          6           0        1.214346   -0.695055   -0.893408
      4          8           0        0.987226    2.224554   -2.950539
      5          8           0        0.432711    3.352052   -1.401121
      6          8           0        2.299074   -1.017809   -1.328376
      7          1           0        0.875257    4.146623   -1.746373
      8          1           0        2.402319    1.870291   -1.461001
      9          1           0        1.751443    1.079805   -3.164500
     10          1           0        0.623288   -1.396049   -0.269066
     11          1           0       -0.378676    0.485260   -1.704449
     12          1           0        0.267555    1.095190   -0.191071
 ---------------------------------------------------------------------
                    Distance matrix (angstroms):
                    1          2          3          4          5
     1  C    0.000000
     2  C    1.507457   0.000000
     3  C    2.526906   1.512124   0.000000
     4  O    1.297971   2.437007   3.578755   0.000000
     5  O    2.063957   2.724916   4.153048   1.994853   0.000000
     6  O    2.828995   2.414027   1.212437   3.855551   4.752293
     7  H    2.596500   3.569989   4.927919   2.270882   0.972825
     8  H    1.093031   2.240432   2.883478   2.084878   2.465473
     9  H    1.414617   2.384678   2.931973   1.392931   3.164122
    10  H    3.515910   2.220476   1.109299   4.520123   4.884909
    11  H    2.142577   1.097786   2.142114   2.538419   2.994804
    12  H    2.127848   1.097953   2.143518   3.067255   2.566111
                    6          7          8          9         10
     6  O    0.000000
     7  H    5.373392   0.000000
     8  H    2.892987   2.755910   0.000000
     9  H    2.840992   3.490582   1.987566   0.000000
    10  H    2.018282   5.741702   3.905719   3.973176   0.000000
    11  H    3.093702   3.870360   3.116329   2.650027   2.569743
    12  H    3.144090   3.478435   2.602061   3.323168   2.517718
                   11         12
    11  H    0.000000
    12  H    1.754976   0.000000
 Stoichiometry    C3H6O3
 Framework group  C1[X(C3H6O3)]
 Deg. of freedom    30
 Full point group                 C1      NOp   1
 Largest Abelian subgroup         C1      NOp   1
 Largest concise Abelian subgroup C1      NOp   1
                         Standard orientation:                         
 ---------------------------------------------------------------------
 Center     Atomic      Atomic             Coordinates (Angstroms)
 Number     Number       Type             X           Y           Z
 ---------------------------------------------------------------------
      1          6           0        0.470745    0.382508   -0.235625
      2          6           0       -0.403830   -0.706030    0.332379
      3          6           0       -1.881869   -0.468977    0.118542
      4          8           0        1.386305    0.939389    0.496743
      5          8           0        2.244085   -0.670901   -0.309867
      6          8           0       -2.350997    0.540188   -0.362613
      7          1           0        2.965516   -0.156907   -0.712032
      8          1           0        0.384533    0.608643   -1.301528
      9          1           0        0.167955    1.608011    0.402813
     10          1           0       -2.540708   -1.298402    0.447981
     11          1           0       -0.205764   -0.815933    1.406542
     12          1           0       -0.116948   -1.659825   -0.129654
 ---------------------------------------------------------------------
 Rotational constants (GHZ):           8.6101644           1.8262910           1.6460269
 Standard basis: 6-31+G(d) (6D, 7F)
 There are   126 symmetry adapted cartesian basis functions of A   symmetry.
 There are   126 symmetry adapted basis functions of A   symmetry.
   126 basis functions,   216 primitive gaussians,   126 cartesian basis functions
    24 alpha electrons       24 beta electrons
       nuclear repulsion energy       234.2209202675 Hartrees.
 NAtoms=   12 NActive=   12 NUniq=   12 SFac= 1.00D+00 NAtFMM=   60 NAOKFM=F Big=F
 Integral buffers will be    131072 words long.
 Raffenetti 2 integral format.
 Two-electron integral symmetry is turned on.
 One-electron integrals computed using PRISM.
 NBasis=   126 RedAO= T EigKep=  7.56D-05  NBF=   126
 NBsUse=   126 1.00D-06 EigRej= -1.00D+00 NBFU=   126
 Initial guess from the checkpoint file:  "/scratch/bell/zhao922/YARP/paper-example/KHP-network/pp_0/TS-folder/Gau-65044.chk"
 B after Tr=    -0.000000    0.000000   -0.000000
         Rot=    0.999997    0.000556   -0.000988    0.001948 Ang=   0.26 deg.
 ExpMin= 4.38D-02 ExpMax= 5.48D+03 ExpMxC= 8.25D+02 IAcc=3 IRadAn=         5 AccDes= 0.00D+00
 Harris functional with IExCor=  402 and IRadAn=       5 diagonalized for initial guess.
 HarFok:  IExCor=  402 AccDes= 0.00D+00 IRadAn=         5 IDoV= 1 UseB2=F ITyADJ=14
 ICtDFT=  3500011 ScaDFX=  1.000000  1.000000  1.000000  1.000000
 FoFCou: FMM=F IPFlag=           0 FMFlag=      100000 FMFlg1=           0
         NFxFlg=           0 DoJE=T BraDBF=F KetDBF=T FulRan=T
         wScrn=  0.000000 ICntrl=       500 IOpCl=  0 I1Cent=   200000004 NGrid=           0
         NMat0=    1 NMatS0=      1 NMatT0=    0 NMatD0=    1 NMtDS0=    0 NMtDT0=    0
 Petite list used in FoFCou.
 Keep R1 ints in memory in canonical form, NReq=47237561.
 Requested convergence on RMS density matrix=1.00D-08 within 128 cycles.
 Requested convergence on MAX density matrix=1.00D-06.
 Requested convergence on             energy=1.00D-06.
 No special actions if energy rises.
 SCF Done:  E(RB3LYP) =  -343.383262335     A.U. after   14 cycles
            NFock= 14  Conv=0.85D-08     -V/T= 2.0091
 DoSCS=F DFT=T ScalE2(SS,OS)=  1.000000  1.000000
 Range of M.O.s used for correlation:     1   126
 NBasis=   126 NAE=    24 NBE=    24 NFC=     0 NFV=     0
 NROrb=    126 NOA=    24 NOB=    24 NVA=   102 NVB=   102

 **** Warning!!: The largest alpha MO coefficient is  0.42834408D+02

 Symmetrizing basis deriv contribution to polar:
 IMax=3 JMax=2 DiffMx= 0.00D+00
 G2DrvN: will do    13 centers at a time, making    1 passes.
 Calling FoFCou, ICntrl=  3107 FMM=F I1Cent=   0 AccDes= 0.00D+00.
 End of G2Drv F.D. properties file   721 does not exist.
 End of G2Drv F.D. properties file   722 does not exist.
 End of G2Drv F.D. properties file   788 does not exist.
          IDoAtm=111111111111
          Differentiating once with respect to electric field.
                with respect to dipole field.
          Differentiating once with respect to nuclear coordinates.
 Keep R1 ints in memory in canonical form, NReq=47193583.
          There are    39 degrees of freedom in the 1st order CPHF.  IDoFFX=6 NUNeed=     3.
     36 vectors produced by pass  0 Test12= 6.28D-15 2.56D-09 XBig12= 1.44D+02 7.11D+00.
 AX will form    36 AO Fock derivatives at one time.
     36 vectors produced by pass  1 Test12= 6.28D-15 2.56D-09 XBig12= 6.27D+01 1.45D+00.
     36 vectors produced by pass  2 Test12= 6.28D-15 2.56D-09 XBig12= 8.60D-01 1.66D-01.
     36 vectors produced by pass  3 Test12= 6.28D-15 2.56D-09 XBig12= 4.84D-03 9.21D-03.
     36 vectors produced by pass  4 Test12= 6.28D-15 2.56D-09 XBig12= 9.20D-06 4.06D-04.
     28 vectors produced by pass  5 Test12= 6.28D-15 2.56D-09 XBig12= 1.02D-08 1.37D-05.
      4 vectors produced by pass  6 Test12= 6.28D-15 2.56D-09 XBig12= 1.06D-11 5.13D-07.
      3 vectors produced by pass  7 Test12= 6.28D-15 2.56D-09 XBig12= 1.22D-14 1.90D-08.
 InvSVY:  IOpt=1 It=  1 EMax= 3.55D-15
 Solved reduced A of dimension   215 with    39 vectors.
 Isotropic polarizability for W=    0.000000       61.32 Bohr**3.
 End of Minotr F.D. properties file   721 does not exist.
 End of Minotr F.D. properties file   722 does not exist.
 End of Minotr F.D. properties file   788 does not exist.
 Calling FoFJK, ICntrl=    100127 FMM=F ISym2X=0 I1Cent= 0 IOpClX= 0 NMat=1 NMatS=1 NMatT=0.
 ***** Axes restored to original set *****
 -------------------------------------------------------------------
 Center     Atomic                   Forces (Hartrees/Bohr)
 Number     Number              X              Y              Z
 -------------------------------------------------------------------
      1        6          -0.000549578    0.000363121    0.004810852
      2        6           0.001165976   -0.000958493    0.000483970
      3        6          -0.002222190    0.000159998    0.000921305
      4        8           0.003747538   -0.009545529   -0.004575513
      5        8          -0.007314874    0.004105176   -0.003005874
      6        8           0.002103857   -0.000348196   -0.000814452
      7        1           0.004472738    0.002340054    0.006462474
      8        1           0.001268040    0.001156804   -0.002540724
      9        1          -0.002224519    0.002950961   -0.002205958
     10        1           0.000055865   -0.000409610    0.000204108
     11        1          -0.000500517    0.000390652    0.000261614
     12        1          -0.000002336   -0.000204938   -0.000001802
 -------------------------------------------------------------------
 Cartesian Forces:  Max     0.009545529 RMS     0.003066399
 FormGI is forming the generalized inverse of G from B-inverse, IUseBI=4.

 GradGradGradGradGradGradGradGradGradGradGradGradGradGradGradGradGradGrad
 Berny optimization.
 Internal  Forces:  Max     0.005613441 RMS     0.001530580
 Search for a saddle point.
 Step number   3 out of a maximum of  100
 All quantities printed in internal units (Hartrees-Bohrs-Radians)
 Swapping is turned off.
 Second derivative matrix not updated -- analytic derivatives used.
 ITU=  0  0  0
     Eigenvalues ---   -0.26190  -0.00051   0.00187   0.00568   0.00770
     Eigenvalues ---    0.01419   0.02373   0.02581   0.02736   0.03399
     Eigenvalues ---    0.04169   0.04937   0.06245   0.07038   0.07557
     Eigenvalues ---    0.08421   0.10560   0.12813   0.12899   0.17721
     Eigenvalues ---    0.22678   0.26744   0.30025   0.31125   0.33484
     Eigenvalues ---    0.34184   0.34576   0.43432   0.50361   0.87325
 Eigenvectors required to have negative eigenvalues:
                          R3        R12       R5        R11       D1
   1                   -0.45582  -0.44931   0.42133   0.40792  -0.23573
                          D2        D3        A2        D12       D11
   1                   -0.23400  -0.23133  -0.10516   0.09232   0.08966
 RFO step:  Lambda0=9.648370352D-05 Lambda=-4.58740395D-03.
 Linear search not attempted -- option 19 set.
 Iteration  1 RMS(Cart)=  0.11530692 RMS(Int)=  0.03743489
 Iteration  2 RMS(Cart)=  0.03907803 RMS(Int)=  0.00145593
 Iteration  3 RMS(Cart)=  0.00112473 RMS(Int)=  0.00080528
 Iteration  4 RMS(Cart)=  0.00000235 RMS(Int)=  0.00080528
 Iteration  5 RMS(Cart)=  0.00000000 RMS(Int)=  0.00080528
 Variable       Old X    -DE/DX   Delta X   Delta X   Delta X     New X
                                 (Linear)    (Quad)   (Total)
    R1        2.84868   0.00106   0.00000   0.00183   0.00183   2.85051
    R2        2.45281  -0.00058   0.00000   0.00638   0.00599   2.45880
    R3        3.90031   0.00268   0.00000   0.11632   0.11639   4.01671
    R4        2.06553   0.00039   0.00000   0.00219   0.00219   2.06772
    R5        2.67324   0.00197   0.00000  -0.04841  -0.04821   2.62503
    R6        2.85750   0.00055   0.00000   0.00454   0.00454   2.86204
    R7        2.07451   0.00024   0.00000   0.00107   0.00107   2.07558
    R8        2.07483  -0.00009   0.00000  -0.00164  -0.00164   2.07319
    R9        2.29117   0.00227   0.00000   0.00328   0.00328   2.29446
   R10        2.09627   0.00034   0.00000  -0.00047  -0.00047   2.09581
   R11        3.76973   0.00561   0.00000   0.01434   0.01428   3.78400
   R12        2.63226  -0.00371   0.00000  -0.07910  -0.07893   2.55333
   R13        1.83837   0.00165   0.00000   0.00409   0.00409   1.84246
    A1        2.10185   0.00096   0.00000   0.02218   0.02083   2.12268
    A2        1.71477   0.00038   0.00000   0.00247   0.00336   1.71813
    A3        2.06131   0.00046   0.00000   0.00810   0.00799   2.06930
    A4        1.90851   0.00044   0.00000   0.01317   0.01374   1.92225
    A5        2.11427  -0.00122   0.00000  -0.03097  -0.02952   2.08474
    A6        1.70952  -0.00035   0.00000   0.02286   0.02208   1.73160
    A7        2.26828  -0.00055   0.00000  -0.05601  -0.05682   2.21146
    A8        1.81729  -0.00036   0.00000   0.00908   0.00843   1.82571
    A9        1.98297  -0.00011   0.00000  -0.01230  -0.01234   1.97063
   A10        1.91379   0.00003   0.00000  -0.00626  -0.00635   1.90743
   A11        1.89351   0.00014   0.00000   0.02087   0.02089   1.91439
   A12        1.90755   0.00019   0.00000  -0.00107  -0.00120   1.90635
   A13        1.90930  -0.00008   0.00000  -0.00403  -0.00395   1.90534
   A14        1.85214  -0.00019   0.00000   0.00403   0.00402   1.85616
   A15        2.17100  -0.00057   0.00000  -0.00542  -0.00542   2.16558
   A16        2.00570   0.00060   0.00000   0.00632   0.00632   2.01202
   A17        2.10644  -0.00003   0.00000  -0.00089  -0.00089   2.10555
   A18        2.39840   0.00133   0.00000   0.04483   0.04414   2.44254
   A19        1.96316   0.00059   0.00000   0.04234   0.03890   2.00206
   A20        1.63037   0.00239   0.00000   0.17354   0.17636   1.80673
    D1        2.25462  -0.00149   0.00000  -0.25616  -0.25621   1.99840
    D2        0.11450  -0.00169   0.00000  -0.24143  -0.24154  -0.12704
    D3       -1.90110  -0.00156   0.00000  -0.25442  -0.25453  -2.15563
    D4       -2.80965   0.00046   0.00000  -0.29545  -0.29531  -3.10497
    D5        1.33341   0.00026   0.00000  -0.28071  -0.28064   1.05278
    D6       -0.68219   0.00039   0.00000  -0.29371  -0.29363  -0.97582
    D7       -1.00078   0.00040   0.00000  -0.26506  -0.26509  -1.26588
    D8       -3.14090   0.00021   0.00000  -0.25033  -0.25042   2.89187
    D9        1.12668   0.00033   0.00000  -0.26332  -0.26341   0.86327
   D10        1.07149   0.00060   0.00000  -0.23682  -0.23671   0.83477
   D11       -1.06863   0.00041   0.00000  -0.22208  -0.22204  -1.29067
   D12       -3.08423   0.00053   0.00000  -0.23507  -0.23503   2.96392
   D13        3.07923  -0.00364   0.00000  -0.28672  -0.28749   2.79173
   D14        0.98383  -0.00412   0.00000  -0.30142  -0.30243   0.68140
   D15       -1.04083  -0.00295   0.00000  -0.30560  -0.30371  -1.34453
   D16       -0.09975   0.00006   0.00000  -0.03475  -0.03474  -0.13450
   D17        3.05178  -0.00004   0.00000  -0.03484  -0.03483   3.01694
   D18        2.04380   0.00017   0.00000  -0.05226  -0.05224   1.99155
   D19       -1.08786   0.00006   0.00000  -0.05234  -0.05233  -1.14019
   D20       -2.21842   0.00001   0.00000  -0.05029  -0.05030  -2.26873
   D21        0.93311  -0.00010   0.00000  -0.05038  -0.05039   0.88271
   D22        0.08849   0.00022   0.00000  -0.04084  -0.04109   0.04741
   D23        2.06993  -0.00214   0.00000  -0.13976  -0.13784   1.93209
         Item               Value     Threshold  Converged?
 Maximum Force            0.005613     0.000450     NO 
 RMS     Force            0.001531     0.000300     NO 
 Maximum Displacement     0.440143     0.001800     NO 
 RMS     Displacement     0.149132     0.001200     NO 
 Predicted change in Energy=-3.642617D-03
 GradGradGradGradGradGradGradGradGradGradGradGradGradGradGradGradGradGrad

                          Input orientation:                          
 ---------------------------------------------------------------------
 Center     Atomic      Atomic             Coordinates (Angstroms)
 Number     Number       Type             X           Y           Z
 ---------------------------------------------------------------------
      1          6           0        1.469981    1.617190   -1.838098
      2          6           0        0.586842    0.664041   -1.071991
      3          6           0        1.171540   -0.729399   -0.970813
      4          8           0        1.097866    2.127062   -2.975869
      5          8           0        0.287727    3.371614   -1.632587
      6          8           0        2.167986   -1.093614   -1.561290
      7          1           0        0.769615    4.206942   -1.776155
      8          1           0        2.391600    1.970676   -1.365948
      9          1           0        1.887514    1.031836   -3.026641
     10          1           0        0.617110   -1.429021   -0.312685
     11          1           0       -0.396160    0.609320   -1.558906
     12          1           0        0.409980    1.054673   -0.062176
 ---------------------------------------------------------------------
                    Distance matrix (angstroms):
                    1          2          3          4          5
     1  C    0.000000
     2  C    1.508425   0.000000
     3  C    2.519470   1.514524   0.000000
     4  O    1.301139   2.454857   3.490708   0.000000
     5  O    2.125550   2.781131   4.247043   2.002409   0.000000
     6  O    2.812879   2.414286   1.214174   3.676811   4.845484
     7  H    2.683498   3.616821   5.017726   2.423420   0.974987
     8  H    1.094193   2.247411   2.989160   2.071243   2.541654
     9  H    1.389104   2.376484   2.800178   1.351163   3.158681
    10  H    3.511934   2.226740   1.109052   4.468714   4.989663
    11  H    2.139213   1.098350   2.143760   2.558015   2.846647
    12  H    2.143345   1.097087   2.142080   3.180065   2.801670
                    6          7          8          9         10
     6  O    0.000000
     7  H    5.486118   0.000000
     8  H    3.078641   2.792846   0.000000
     9  H    2.596816   3.590921   1.973176   0.000000
    10  H    2.019091   5.824867   3.976948   3.877538   0.000000
    11  H    3.078121   3.788022   3.108396   2.747350   2.595114
    12  H    3.154847   3.606086   2.542774   3.312353   2.504874
                   11         12
    11  H    0.000000
    12  H    1.757385   0.000000
 Stoichiometry    C3H6O3
 Framework group  C1[X(C3H6O3)]
 Deg. of freedom    30
 Full point group                 C1      NOp   1
 Largest Abelian subgroup         C1      NOp   1
 Largest concise Abelian subgroup C1      NOp   1
                         Standard orientation:                         
 ---------------------------------------------------------------------
 Center     Atomic      Atomic             Coordinates (Angstroms)
 Number     Number       Type             X           Y           Z
 ---------------------------------------------------------------------
      1          6           0        0.456616    0.333007   -0.341513
      2          6           0       -0.398792   -0.798548    0.171525
      3          6           0       -1.881138   -0.496431    0.099698
      4          8           0        1.256891    0.993380    0.443618
      5          8           0        2.359904   -0.584088   -0.108286
      6          8           0       -2.340963    0.587573   -0.196468
      7          1           0        3.071517   -0.188214   -0.644467
      8          1           0        0.483745    0.521341   -1.419034
      9          1           0        0.041158    1.536471    0.214077
     10          1           0       -2.550082   -1.344906    0.349902
     11          1           0       -0.124371   -1.017799    1.212196
     12          1           0       -0.188730   -1.709984   -0.401848
 ---------------------------------------------------------------------
 Rotational constants (GHZ):           8.8468643           1.8356699           1.6173641
 Standard basis: 6-31+G(d) (6D, 7F)
 There are   126 symmetry adapted cartesian basis functions of A   symmetry.
 There are   126 symmetry adapted basis functions of A   symmetry.
   126 basis functions,   216 primitive gaussians,   126 cartesian basis functions
    24 alpha electrons       24 beta electrons
       nuclear repulsion energy       233.6376533391 Hartrees.
 NAtoms=   12 NActive=   12 NUniq=   12 SFac= 1.00D+00 NAtFMM=   60 NAOKFM=F Big=F
 Integral buffers will be    131072 words long.
 Raffenetti 2 integral format.
 Two-electron integral symmetry is turned on.
 One-electron integrals computed using PRISM.
 NBasis=   126 RedAO= T EigKep=  7.66D-05  NBF=   126
 NBsUse=   126 1.00D-06 EigRej= -1.00D+00 NBFU=   126
 Initial guess from the checkpoint file:  "/scratch/bell/zhao922/YARP/paper-example/KHP-network/pp_0/TS-folder/Gau-65044.chk"
 B after Tr=     0.000000   -0.000000    0.000000
         Rot=    0.999903   -0.007783    0.005400   -0.010171 Ang=  -1.59 deg.
 ExpMin= 4.38D-02 ExpMax= 5.48D+03 ExpMxC= 8.25D+02 IAcc=3 IRadAn=         5 AccDes= 0.00D+00
 Harris functional with IExCor=  402 and IRadAn=       5 diagonalized for initial guess.
 HarFok:  IExCor=  402 AccDes= 0.00D+00 IRadAn=         5 IDoV= 1 UseB2=F ITyADJ=14
 ICtDFT=  3500011 ScaDFX=  1.000000  1.000000  1.000000  1.000000
 FoFCou: FMM=F IPFlag=           0 FMFlag=      100000 FMFlg1=           0
         NFxFlg=           0 DoJE=T BraDBF=F KetDBF=T FulRan=T
         wScrn=  0.000000 ICntrl=       500 IOpCl=  0 I1Cent=   200000004 NGrid=           0
         NMat0=    1 NMatS0=      1 NMatT0=    0 NMatD0=    1 NMtDS0=    0 NMtDT0=    0
 Petite list used in FoFCou.
 Keep R1 ints in memory in canonical form, NReq=47237561.
 Requested convergence on RMS density matrix=1.00D-08 within 128 cycles.
 Requested convergence on MAX density matrix=1.00D-06.
 Requested convergence on             energy=1.00D-06.
 No special actions if energy rises.
 SCF Done:  E(RB3LYP) =  -343.386827440     A.U. after   14 cycles
            NFock= 14  Conv=0.69D-08     -V/T= 2.0092
 DoSCS=F DFT=T ScalE2(SS,OS)=  1.000000  1.000000
 Range of M.O.s used for correlation:     1   126
 NBasis=   126 NAE=    24 NBE=    24 NFC=     0 NFV=     0
 NROrb=    126 NOA=    24 NOB=    24 NVA=   102 NVB=   102

 **** Warning!!: The largest alpha MO coefficient is  0.42270579D+02

 Symmetrizing basis deriv contribution to polar:
 IMax=3 JMax=2 DiffMx= 0.00D+00
 G2DrvN: will do    13 centers at a time, making    1 passes.
 Calling FoFCou, ICntrl=  3107 FMM=F I1Cent=   0 AccDes= 0.00D+00.
 End of G2Drv F.D. properties file   721 does not exist.
 End of G2Drv F.D. properties file   722 does not exist.
 End of G2Drv F.D. properties file   788 does not exist.
          IDoAtm=111111111111
          Differentiating once with respect to electric field.
                with respect to dipole field.
          Differentiating once with respect to nuclear coordinates.
 Keep R1 ints in memory in canonical form, NReq=47193583.
          There are    39 degrees of freedom in the 1st order CPHF.  IDoFFX=6 NUNeed=     3.
     36 vectors produced by pass  0 Test12= 6.28D-15 2.56D-09 XBig12= 1.62D+02 7.89D+00.
 AX will form    36 AO Fock derivatives at one time.
     36 vectors produced by pass  1 Test12= 6.28D-15 2.56D-09 XBig12= 7.59D+01 1.83D+00.
     36 vectors produced by pass  2 Test12= 6.28D-15 2.56D-09 XBig12= 1.01D+00 1.59D-01.
     36 vectors produced by pass  3 Test12= 6.28D-15 2.56D-09 XBig12= 4.90D-03 1.02D-02.
     36 vectors produced by pass  4 Test12= 6.28D-15 2.56D-09 XBig12= 9.21D-06 4.45D-04.
     29 vectors produced by pass  5 Test12= 6.28D-15 2.56D-09 XBig12= 1.08D-08 1.79D-05.
      4 vectors produced by pass  6 Test12= 6.28D-15 2.56D-09 XBig12= 9.42D-12 4.03D-07.
      2 vectors produced by pass  7 Test12= 6.28D-15 2.56D-09 XBig12= 9.22D-15 1.61D-08.
 InvSVY:  IOpt=1 It=  1 EMax= 5.33D-15
 Solved reduced A of dimension   215 with    39 vectors.
 Isotropic polarizability for W=    0.000000       61.46 Bohr**3.
 End of Minotr F.D. properties file   721 does not exist.
 End of Minotr F.D. properties file   722 does not exist.
 End of Minotr F.D. properties file   788 does not exist.
 Calling FoFJK, ICntrl=    100127 FMM=F ISym2X=0 I1Cent= 0 IOpClX= 0 NMat=1 NMatS=1 NMatT=0.
 ***** Axes restored to original set *****
 -------------------------------------------------------------------
 Center     Atomic                   Forces (Hartrees/Bohr)
 Number     Number              X              Y              Z
 -------------------------------------------------------------------
      1        6          -0.001404578    0.002287762    0.004182873
      2        6           0.000523359   -0.000069699   -0.000622569
      3        6          -0.000252468   -0.000447229   -0.000227268
      4        8           0.002429755   -0.004797824   -0.002188597
      5        8          -0.000969470    0.000888576   -0.001392949
      6        8          -0.000042111   -0.000027938   -0.000085628
      7        1           0.000095641    0.000686847    0.002537344
      8        1           0.000334821    0.000401812   -0.000712263
      9        1          -0.000935087    0.000637806   -0.001899225
     10        1           0.000137974   -0.000043658   -0.000005705
     11        1          -0.000210591    0.000374001    0.000249764
     12        1           0.000292756    0.000109545    0.000164224
 -------------------------------------------------------------------
 Cartesian Forces:  Max     0.004797824 RMS     0.001453518
 FormGI is forming the generalized inverse of G from B-inverse, IUseBI=4.

 GradGradGradGradGradGradGradGradGradGradGradGradGradGradGradGradGradGrad
 Berny optimization.
 Internal  Forces:  Max     0.002598755 RMS     0.000666010
 Search for a saddle point.
 Step number   4 out of a maximum of  100
 All quantities printed in internal units (Hartrees-Bohrs-Radians)
 Swapping is turned off.
 Second derivative matrix not updated -- analytic derivatives used.
 ITU=  0  0  0  0
     Eigenvalues ---   -0.23753  -0.00037   0.00220   0.00496   0.00826
     Eigenvalues ---    0.01054   0.02064   0.02572   0.02648   0.03403
     Eigenvalues ---    0.04143   0.04934   0.06116   0.07024   0.07205
     Eigenvalues ---    0.08235   0.10181   0.12643   0.12930   0.17828
     Eigenvalues ---    0.22617   0.26557   0.30008   0.31200   0.33500
     Eigenvalues ---    0.34154   0.34219   0.42800   0.49619   0.86344
 Eigenvectors required to have negative eigenvalues:
                          R12       R3        R5        R11       D1
   1                   -0.46283  -0.43024   0.42414   0.42269  -0.23553
                          D3        D2        A2        D11       D12
   1                   -0.23292  -0.23263  -0.10259   0.09484   0.09456
 RFO step:  Lambda0=6.364318182D-05 Lambda=-1.38222522D-03.
 Linear search not attempted -- option 19 set.
 Iteration  1 RMS(Cart)=  0.12728650 RMS(Int)=  0.04036945
 Iteration  2 RMS(Cart)=  0.05727021 RMS(Int)=  0.00125904
 Iteration  3 RMS(Cart)=  0.00161401 RMS(Int)=  0.00051947
 Iteration  4 RMS(Cart)=  0.00000058 RMS(Int)=  0.00051947
 Variable       Old X    -DE/DX   Delta X   Delta X   Delta X     New X
                                 (Linear)    (Quad)   (Total)
    R1        2.85051  -0.00046   0.00000  -0.00237  -0.00237   2.84814
    R2        2.45880  -0.00010   0.00000   0.00074  -0.00008   2.45872
    R3        4.01671  -0.00033   0.00000   0.05172   0.05200   4.06871
    R4        2.06772   0.00010   0.00000   0.00139   0.00139   2.06911
    R5        2.62503   0.00193   0.00000  -0.03737  -0.03719   2.58784
    R6        2.86204   0.00040   0.00000   0.00558   0.00558   2.86762
    R7        2.07558   0.00006   0.00000   0.00118   0.00118   2.07677
    R8        2.07319   0.00014   0.00000  -0.00091  -0.00091   2.07228
    R9        2.29446   0.00002   0.00000   0.00077   0.00077   2.29523
   R10        2.09581  -0.00004   0.00000  -0.00188  -0.00188   2.09392
   R11        3.78400   0.00260   0.00000   0.02084   0.02087   3.80487
   R12        2.55333  -0.00177   0.00000  -0.00382  -0.00372   2.54961
   R13        1.84246   0.00026   0.00000   0.00135   0.00135   1.84381
    A1        2.12268  -0.00016   0.00000  -0.00217  -0.00307   2.11961
    A2        1.71813  -0.00048   0.00000  -0.01774  -0.01748   1.70066
    A3        2.06930   0.00040   0.00000   0.01135   0.01140   2.08070
    A4        1.92225   0.00023   0.00000  -0.01728  -0.01730   1.90496
    A5        2.08474  -0.00012   0.00000  -0.01034  -0.00954   2.07520
    A6        1.73160   0.00009   0.00000   0.01395   0.01377   1.74538
    A7        2.21146  -0.00006   0.00000   0.00025  -0.00059   2.21086
    A8        1.82571  -0.00013   0.00000   0.01333   0.01337   1.83908
    A9        1.97063   0.00016   0.00000  -0.00639  -0.00654   1.96409
   A10        1.90743   0.00003   0.00000  -0.01311  -0.01325   1.89418
[...]
   D20       -2.24940   0.00000   0.00000  -0.00001  -0.00001  -2.24941
   D21        0.89643   0.00000   0.00000  -0.00001  -0.00001   0.89642
   D22       -1.38461   0.00000   0.00000   0.00001   0.00001  -1.38459
   D23       -2.27438  -0.00000   0.00000   0.00041   0.00041  -2.27397
         Item               Value     Threshold  Converged?
 Maximum Force            0.000001     0.000450     YES
 RMS     Force            0.000000     0.000300     YES
 Maximum Displacement     0.000308     0.001800     YES
 RMS     Displacement     0.000083     0.001200     YES
 Predicted change in Energy=-3.902076D-10
 Optimization completed.
    -- Stationary point found.
                           ----------------------------
                           !   Optimized Parameters   !
                           ! (Angstroms and Degrees)  !
 --------------------------                            --------------------------
 ! Name  Definition              Value          Derivative Info.                !
 --------------------------------------------------------------------------------
 ! R1    R(1,2)                  1.4987         -DE/DX =    0.0                 !
 ! R2    R(1,4)                  1.3292         -DE/DX =    0.0                 !
 ! R3    R(1,5)                  2.6099         -DE/DX =    0.0                 !
 ! R4    R(1,8)                  1.0922         -DE/DX =    0.0                 !
 ! R5    R(1,9)                  1.4409         -DE/DX =    0.0                 !
 ! R6    R(2,3)                  1.5206         -DE/DX =    0.0                 !
 ! R7    R(2,11)                 1.1044         -DE/DX =    0.0                 !
 ! R8    R(2,12)                 1.0976         -DE/DX =    0.0                 !
 ! R9    R(3,6)                  1.2164         -DE/DX =    0.0                 !
 ! R10   R(3,10)                 1.1049         -DE/DX =    0.0                 !
 ! R11   R(4,5)                  1.875          -DE/DX =    0.0                 !
 ! R12   R(4,9)                  1.1935         -DE/DX =    0.0                 !
 ! R13   R(5,7)                  0.9741         -DE/DX =    0.0                 !
 ! A1    A(2,1,4)              117.8801         -DE/DX =    0.0                 !
 ! A2    A(2,1,5)              101.4536         -DE/DX =    0.0                 !
 ! A3    A(2,1,8)              120.0722         -DE/DX =    0.0                 !
 ! A4    A(2,1,9)               99.4613         -DE/DX =    0.0                 !
 ! A5    A(4,1,8)              117.7667         -DE/DX =    0.0                 !
 ! A6    A(5,1,8)              103.8649         -DE/DX =    0.0                 !
 ! A7    A(5,1,9)               91.2158         -DE/DX =    0.0                 !
 ! A8    A(8,1,9)              132.829          -DE/DX =    0.0                 !
 ! A9    A(1,2,3)              111.9434         -DE/DX =    0.0                 !
 ! A10   A(1,2,11)             108.7183         -DE/DX =    0.0                 !
 ! A11   A(1,2,12)             112.1455         -DE/DX =    0.0                 !
 ! A12   A(3,2,11)             107.3081         -DE/DX =    0.0                 !
 ! A13   A(3,2,12)             109.5335         -DE/DX =    0.0                 !
 ! A14   A(11,2,12)            106.9474         -DE/DX =    0.0                 !
 ! A15   A(2,3,6)              122.3202         -DE/DX =    0.0                 !
 ! A16   A(2,3,10)             117.1865         -DE/DX =    0.0                 !
 ! A17   A(6,3,10)             120.4928         -DE/DX =    0.0                 !
 ! A18   A(5,4,9)              156.583          -DE/DX =    0.0                 !
 ! A19   A(1,5,7)              124.0803         -DE/DX =    0.0                 !
 ! A20   A(4,5,7)               99.5337         -DE/DX =    0.0                 !
 ! D1    D(4,1,2,3)             61.0018         -DE/DX =    0.0                 !
 ! D2    D(4,1,2,11)           -57.3686         -DE/DX =    0.0                 !
 ! D3    D(4,1,2,12)          -175.415          -DE/DX =    0.0                 !
 ! D4    D(5,1,2,3)            103.6884         -DE/DX =    0.0                 !
 ! D5    D(5,1,2,11)           -14.682          -DE/DX =    0.0                 !
 ! D6    D(5,1,2,12)          -132.7284         -DE/DX =    0.0                 !
 ! D7    D(8,1,2,3)           -142.7428         -DE/DX =    0.0                 !
 ! D8    D(8,1,2,11)            98.8868         -DE/DX =    0.0                 !
 ! D9    D(8,1,2,12)           -19.1596         -DE/DX =    0.0                 !
 ! D10   D(9,1,2,3)             10.4946         -DE/DX =    0.0                 !
 ! D11   D(9,1,2,11)          -107.8758         -DE/DX =    0.0                 !
 ! D12   D(9,1,2,12)           134.0778         -DE/DX =    0.0                 !
 ! D13   D(2,1,5,7)           -154.8681         -DE/DX =    0.0                 !
 ! D14   D(8,1,5,7)             79.9184         -DE/DX =    0.0                 !
 ! D15   D(9,1,5,7)            -54.9606         -DE/DX =    0.0                 !
 ! D16   D(1,2,3,6)             -3.8407         -DE/DX =    0.0                 !
 ! D17   D(1,2,3,10)           176.4018         -DE/DX =    0.0                 !
 ! D18   D(11,2,3,6)           115.3643         -DE/DX =    0.0                 !
 ! D19   D(11,2,3,10)          -64.3933         -DE/DX =    0.0                 !
 ! D20   D(12,2,3,6)          -128.881          -DE/DX =    0.0                 !
 ! D21   D(12,2,3,10)           51.3615         -DE/DX =    0.0                 !
 ! D22   D(1,4,5,9)            -79.3321         -DE/DX =    0.0                 !
 ! D23   D(9,4,5,7)           -130.3123         -DE/DX =    0.0                 !
 --------------------------------------------------------------------------------
 GradGradGradGradGradGradGradGradGradGradGradGradGradGradGradGradGradGrad


 ----------------------------------------------------------------------

 Electric dipole moment (input orientation):
 (Debye = 10**-18 statcoulomb cm , SI units = C m)
                  (au)            (Debye)         (10**-30 SI)
   Tot        0.175074D+01      0.444994D+01      0.148434D+02
   x          0.646627D+00      0.164356D+01      0.548233D+01
   y         -0.109517D+01     -0.278365D+01     -0.928527D+01
   z          0.120315D+01      0.305810D+01      0.102007D+02

 Dipole polarizability, Alpha (input orientation).
 (esu units = cm**3 , SI units = C**2 m**2 J**-1)
 Alpha(0;0):
               (au)            (10**-24 esu)      (10**-40 SI)
   iso        0.647943D+02      0.960153D+01      0.106831D+02
   aniso      0.414020D+02      0.613514D+01      0.682627D+01
   xx         0.584299D+02      0.865842D+01      0.963379D+01
   yx        -0.164753D+02     -0.244139D+01     -0.271642D+01
   yy         0.790603D+02      0.117155D+02      0.130353D+02
   zx         0.539253D+01      0.799090D+00      0.889107D+00
   zy        -0.108457D+02     -0.160717D+01     -0.178822D+01
   zz         0.568927D+02      0.843064D+01      0.938035D+01

 ----------------------------------------------------------------------

 Dipole orientation:
     6          4.46769793          1.34002281         -2.42050326
     6          2.22912956          0.46313147         -0.92369736
     6          2.30261943         -2.36861968         -0.44101656
     8          4.78704741          0.38813211         -4.72301132
     8          2.47220921          1.97514270         -6.88583942
     8          3.93992011         -3.72275446         -1.31817334
     1          3.42145706          1.89393923         -8.46086062
     1          5.33985062          3.16390012         -2.00453881
     1          5.48802061         -1.07484743         -3.15613181
     1          0.78716994         -3.17319415          0.74890500
     1          0.49563300          0.86215999         -2.01524998
     1          2.05234567          1.46992900          0.88110982

 Electric dipole moment (dipole orientation):
 (Debye = 10**-18 statcoulomb cm , SI units = C m)
                  (au)            (Debye)         (10**-30 SI)
   Tot        0.175074D+01      0.444994D+01      0.148434D+02
   x          0.000000D+00      0.000000D+00      0.000000D+00
   y          0.000000D+00      0.000000D+00      0.000000D+00
   z          0.175074D+01      0.444994D+01      0.148434D+02

 Dipole polarizability, Alpha (dipole orientation).
 (esu units = cm**3 , SI units = C**2 m**2 J**-1)
 Alpha(0;0):
               (au)            (10**-24 esu)      (10**-40 SI)
   iso        0.647943D+02      0.960153D+01      0.106831D+02
   aniso      0.414020D+02      0.613514D+01      0.682627D+01
   xx         0.518955D+02      0.769012D+01      0.855641D+01
   yx        -0.443958D+01     -0.657878D+00     -0.731988D+00
   yy         0.570352D+02      0.845174D+01      0.940383D+01
   zx         0.640668D+01      0.949372D+00      0.105632D+01
   zy        -0.135629D+02     -0.200981D+01     -0.223622D+01
   zz         0.854523D+02      0.126627D+02      0.140892D+02

 ----------------------------------------------------------------------
 1\1\GINC-BELL-A407\Freq\RB3LYP\6-31+G(d)\C3H6O3\ZHAO922\23-Dec-2020\0\
 \#N Geom=AllCheck Guess=TCheck SCRF=Check GenChk RB3LYP/6-31+G(d) Freq
 \\pp_15_1 TS\\0,1\C,1.7970724663,1.669644347,-1.3098687115\C,0.9372560
 807,0.655537522,-0.6182856121\C,0.8621407559,-0.6498744234,-1.39449934
 15\O,1.4334018849,2.0680821052,-2.5247207811\O,-0.0002382304,3.2613282
 978,-2.3334860616\O,1.3889461307,-0.7912520836,-2.481749973\H,0.147748
 4597,3.8184823244,-3.118671389\H,2.4347455193,2.3364587623,-0.72530855
 58\H,1.9745811189,1.005575586,-2.5761942981\H,0.2993039714,-1.48060163
 35,-0.931912313\H,-0.0903304118,1.0534379713,-0.5443437531\H,1.2769732
 545,0.4544992244,0.4058827898\\Version=ES64L-G16RevB.01\State=1-A\HF=-
 343.3922316\RMSD=2.890e-09\RMSF=5.650e-07\ZeroPoint=0.0839551\Thermal=
 0.0913567\Dipole=0.6466265,-1.0951734,1.203148\DipoleDeriv=-0.2652555,
 0.9031319,-0.1846188,0.6888317,-0.3097547,0.0244652,-0.2918662,0.12254
 86,0.3796489,0.0212312,-0.196014,0.2017036,-0.1946325,-0.2179189,-0.22
 67258,0.0730993,-0.1816756,-0.049894,0.3661273,0.1492378,-0.3072022,0.
 0684948,0.9319023,0.2181252,-0.3137598,0.3288244,0.8085526,0.5269022,-
 1.0737374,0.2287509,-0.9216751,0.7059818,-0.1990247,0.575137,-0.680600
 1,-0.4004454,-0.8956337,0.5122551,-0.3499815,0.3864026,-1.0453761,0.17
 41029,-0.0989612,-0.0984951,-0.3821116,-0.3795559,-0.1134813,0.2442143
 ,0.0022729,-0.7864966,-0.115137,0.2475184,-0.2176759,-0.7626708,0.2206
 822,0.0449997,0.0575462,0.0054076,0.2382176,0.0985171,0.1225473,0.0475
 358,0.1715501,0.1166605,-0.1776784,0.0050946,-0.1306434,0.0284618,-0.0
 660314,-0.0972751,0.0496672,-0.0309774,0.1159686,0.2025337,0.0783453,0
 .135715,0.5876479,-0.0727282,-0.198496,0.4428274,0.2086796,0.0092415,-
 0.1256522,0.0729173,-0.0881225,-0.15834,0.0794648,0.0600125,0.0526966,
 0.0074173,0.068455,-0.0857263,0.0282277,0.0487385,0.0075162,0.0413754,
 -0.0441519,0.0757581,0.077291,0.0951767,-0.0398686,-0.0749974,-0.00078
 95,0.0181587,0.0435965,-0.0338043,0.0585887,-0.0270403\Polar=58.429916
 3,-16.4753488,79.060276,5.3925251,-10.8457336,56.8927472\Quadrupole=-0
 .7324622,-2.3696017,3.1020639,4.6596936,0.0600559,-4.0819325\PG=C01 [X
 (C3H6O3)]\NImag=1\\0.36820853,0.19138440,0.41635720,0.13878303,-0.0421
 2452,0.56848683,-0.12246552,-0.07624626,0.01742954,0.50183581,-0.05990
 751,-0.12876270,0.01432369,-0.00593462,0.43893200,0.02471060,0.0398872
 6,-0.10171799,0.01332272,-0.04187751,0.56359408,-0.00580012,-0.0181349
 0,-0.01510961,-0.08529074,-0.02041591,-0.00698939,0.40805298,-0.016448
 76,-0.03759474,0.00200542,-0.01256076,-0.15946097,-0.02273803,0.104107
 23,0.51725975,-0.00731612,-0.00308641,0.02642809,-0.00466292,-0.010356
 45,-0.09407199,-0.30928844,0.02882916,0.79826639,-0.06402258,-0.052666
 32,-0.15696386,-0.00080207,0.00991628,0.02497402,0.00789724,0.00122764
 ,-0.00910705,0.02339803,-0.02850353,-0.01636256,0.16680692,0.02298050,
 -0.00989272,0.02372784,-0.00193502,-0.00061208,-0.00038717,0.07145367,
 0.04658246,-0.06917841,0.06785923,-0.36193559,-0.00568342,0.02879450,-
 0.03232967,0.00540823,-0.00735634,-0.01375006,0.05085403,-0.07148640,0
 .47077635,-0.01244769,0.01952089,0.01078244,0.00924971,-0.00487905,-0.
 00140380,-0.00293002,-0.00104009,0.00043553,-0.01509876,-0.02048762,0.
 02464629,0.06016724,0.02231703,-0.01810106,-0.00064389,-0.00415594,0.0
 0045683,-0.00222007,0.00122112,0.00147002,0.00134093,-0.00074414,0.000
 21336,-0.01458161,0.01526979,0.19404889,-0.01447780,0.01084367,0.00678
 117,-0.00376097,0.00033728,0.00234490,0.00020668,-0.00001347,-0.000006
 46,0.02087833,-0.00504834,-0.03859447,-0.07851440,-0.22780571,0.358087
 55,-0.00044084,-0.01059261,0.00396025,0.01932366,0.00841611,0.01823348
 ,-0.19978005,0.01481491,0.26613208,-0.00790833,0.00711834,-0.00950007,
 0.00361905,-0.00168864,0.00083272,0.18491075,0.00441015,-0.00885772,0.
 00017670,0.00993086,0.00317791,-0.03929884,0.01633425,-0.11308231,-0.0
 6801719,-0.00987951,-0.00321702,-0.01115748,0.00426338,-0.00209011,0.0
 0109431,-0.02213102,0.10445402,0.00457160,0.00954113,-0.01110416,0.019
 59986,-0.03284568,-0.03368588,0.26762280,-0.06440541,-0.60943797,0.003
 64125,0.00188580,0.01058393,0.00024171,-0.00072536,0.00020101,-0.30929
 634,0.09727874,0.67887573,-0.00858057,0.00813851,-0.00030470,-0.001913
 37,-0.00157664,0.00136463,0.00022898,0.00034795,0.00058327,0.01122429,
 -0.00277109,-0.01127354,-0.02399777,-0.04176666,0.07820811,0.00041622,
 0.00022115,-0.00028316,0.02355848,0.00625702,-0.00593045,-0.00082042,0
 .00213413,0.00096563,-0.00118598,-0.00040468,-0.00006455,-0.00011472,-
 0.00781830,0.00098203,0.00915627,-0.03617189,-0.16480794,0.21771775,-0
 .00024287,-0.00000695,-0.00009563,0.03579136,0.16921084,0.00523820,-0.
 00381866,0.00175779,0.00047372,0.00067689,-0.00030847,-0.00014529,0.00
 008189,0.00014940,-0.00479833,0.00072518,0.00158616,0.06731016,0.22811
 497,-0.33251646,-0.00014346,-0.00017069,-0.00011610,-0.06654438,-0.225
 69500,0.32750345,-0.13679838,-0.10187565,-0.07449970,-0.00157329,-0.01
 517563,-0.01027933,-0.00311695,0.00071121,0.00586194,0.00855911,-0.002
 78724,-0.01081449,-0.00095681,-0.00448533,0.00053756,0.00149472,0.0011
 4392,-0.00147972,0.00098649,-0.00089916,-0.00052724,0.13461954,-0.1173
 8116,-0.16827280,-0.08757809,-0.00766425,-0.00279784,-0.00941066,-0.00
 226171,-0.00145098,0.00085450,0.00489083,0.01685326,0.00666363,0.00067
 851,0.00238985,-0.00003506,-0.00004078,0.00022057,0.00000382,-0.000318
 33,0.00054546,0.00045398,0.12183027,0.15659019,-0.08651955,-0.08525741
 ,-0.11739042,0.00908373,0.01121910,0.01051138,0.00306524,0.00034516,-0
 .00321587,-0.02337009,-0.01402739,-0.03374562,0.00179907,0.00120314,0.
 00118195,-0.00067893,-0.00082388,0.00137460,-0.00016551,-0.00009260,0.
 00011521,0.09821900,0.08517950,0.13857219,-0.00708167,0.03977718,0.048
 47932,-0.00067469,-0.00240375,-0.00268870,-0.00536475,-0.00421604,0.01
 295485,0.03747235,-0.04169157,0.02598186,-0.01795838,0.01381933,-0.003
 90582,-0.00044970,0.00793207,-0.00592326,-0.00277961,0.00187979,-0.000
 19570,-0.00338323,0.00046570,-0.00104146,0.00047776,0.00649857,-0.0351
 7894,-0.07018099,-0.00497216,0.00409761,0.00485289,-0.00830229,0.00206
 510,0.01760220,-0.00837139,-0.03723079,-0.01090236,0.01776505,-0.01003
 874,0.00495350,0.00646112,0.00864714,-0.00995753,0.00261497,-0.0021376
 3,0.00013252,0.00174496,-0.00194068,0.00167014,-0.01435119,0.07534044,
 -0.00274472,0.01018986,0.00370181,0.01704022,0.00025344,-0.01183388,0.
 00106164,0.00478066,0.00086162,0.08679940,-0.09970165,-0.00495817,-0.0
 2161975,0.01394545,0.00087312,0.00076765,0.00028611,-0.00736862,-0.001
 67892,0.00191543,0.00167465,-0.00688962,0.00405100,0.00175304,-0.07346
 962,0.06392652,0.01841704,0.00257161,0.00052693,0.00125112,0.01096845,
 -0.00356627,0.00533821,-0.11445139,-0.09286813,0.03820887,0.00049602,-
 0.00134438,-0.00070703,0.00000516,-0.00035720,-0.00007427,-0.00160405,
 -0.01296304,0.02520285,-0.00003352,0.00010878,0.00001631,-0.00001006,0
 .00026872,-0.00045807,0.00084041,0.00275358,0.00116235,0.10134388,0.00
 076040,-0.00187047,-0.00552493,-0.01631775,-0.01342209,0.01006412,-0.0
 9059863,-0.21084040,0.06332639,0.00046983,0.00113224,0.00094056,0.0005
 8346,-0.00071529,0.00003271,-0.00223134,0.01809279,0.00442076,0.000024
 29,-0.00000636,-0.00012766,-0.00119743,-0.00054428,0.00108349,-0.00095
 256,0.00011228,-0.00070059,0.10913466,0.20751837,0.00086744,-0.0012714
 7,-0.00226577,-0.00349434,-0.01310114,0.01180807,0.03836979,0.06427492
 ,-0.08353347,0.00062884,0.00029769,0.00202225,-0.00028698,-0.00010891,
 -0.00008663,0.03350966,0.02521261,-0.02786084,0.00000166,-0.00000784,-
 0.00002216,-0.00059736,-0.00051752,0.00021853,-0.00029193,-0.00355637,
 -0.00094412,-0.06919712,-0.07315537,0.09986383,-0.02064450,0.00059530,
 0.00708265,-0.25783579,0.08611927,0.01335691,0.00221604,0.00251552,0.0
 0352581,0.00175315,0.00037375,-0.00306219,-0.00031518,0.00062801,0.000
 46545,0.00013848,0.00008598,-0.00343226,0.00094994,-0.00082308,-0.0006
 3986,-0.00019247,-0.00079049,0.00071947,-0.00157733,-0.00036860,-0.000
 40171,-0.00017640,0.00070770,0.00039202,0.28439337,-0.02112878,0.00541
 681,0.00520682,0.08582845,-0.07584271,-0.00362726,0.03041662,-0.009603
 46,-0.00219234,-0.00382804,0.00496374,-0.00289363,0.00450219,-0.003005
 75,-0.00195246,-0.00364076,-0.00117000,-0.00306480,-0.00059443,0.00120
 732,-0.00037703,0.00066157,-0.00158054,0.00013991,-0.00036038,-0.00217
 530,0.00140485,-0.00324732,0.00096193,-0.00052586,-0.09266309,0.082341
 33,0.01225685,-0.00209428,-0.00221368,0.01906569,-0.00504213,-0.039460
 91,0.01912262,-0.00965497,-0.00503198,0.00355694,-0.00461059,0.0016456
 6,-0.00314929,0.00158722,0.00150740,-0.00345168,-0.00102979,-0.0015972
 4,0.00004333,-0.00068839,0.00015438,0.00013996,0.00017756,-0.00018973,
 0.00104937,0.00065526,-0.00207717,-0.00151927,0.00076546,-0.00012950,-
 0.01849454,0.00792106,0.04493763,0.00750174,-0.00042745,0.01910952,-0.
 07082215,0.00940772,-0.07993935,-0.00166123,0.00340934,0.00267218,-0.0
 0296845,-0.00240579,0.00332872,0.00066345,-0.00005736,-0.00039559,0.00
 028009,0.00065181,-0.00046534,-0.00005957,0.00018890,-0.00004413,0.000
 37133,0.00032272,-0.00065290,0.00047882,-0.00147262,-0.00002693,0.0000
 4990,-0.00038263,0.00009833,-0.00870930,0.00405397,-0.02861999,0.07487
 537,0.01174217,-0.00084257,0.01835329,0.00697781,-0.05745095,0.0418262
 4,-0.01002606,0.01191464,-0.02779891,-0.00465054,-0.00341193,0.0049636
 4,-0.00000461,0.00017994,-0.00012418,0.00375753,-0.00616834,-0.0020358
 3,-0.00011107,0.00004259,0.00000362,0.00032851,-0.00001221,-0.00063917
 ,0.00010144,-0.00156048,-0.00035109,0.00155368,-0.00041872,0.00245927,
 0.00361975,-0.00151339,0.01201359,-0.01328861,0.05924142,-0.00619112,-
 0.00066839,-0.01052809,-0.07841383,0.04761802,-0.27484965,-0.00332428,
 0.00385103,-0.01665770,0.00290654,0.00181810,-0.00130078,-0.00024100,-
 0.00010616,0.00022692,-0.00036537,-0.00355060,0.00013555,0.00004921,-0
 .00008888,0.00002214,0.00032899,0.00015734,0.00081474,-0.00094891,0.00
 080423,-0.00009934,0.00077605,-0.00112494,0.00092980,0.00048826,-0.000
 03927,0.00245513,0.08493547,-0.04867047,0.29885129\\0.00000027,-0.0000
 0012,-0.00000073,0.00000020,0.00000042,0.00000013,-0.00000015,-0.00000
 025,0.00000016,-0.00000027,0.00000048,0.00000157,0.00000055,-0.0000011
 6,-0.00000174,-0.00000026,-0.00000017,0.00000024,-0.00000025,0.0000009
 2,0.00000077,-0.00000006,0.00000032,-0.00000066,0.00000012,-0.00000082
 ,-0.00000016,-0.00000013,0.00000013,0.00000032,-0.00000004,0.00000008,
 0.00000001,0.00000003,0.00000017,0.00000009\\\@


 I DON'T PRETEND TO UNDERSTAND THE UNIVERSE --
 IT'S A GREAT DEAL BIGGER THAN I AM.
       -- ATTR. TO WILLIAM ALLINGHAM (1828-89)
 Job cpu time:       0 days  0 hours  4 minutes  2.5 seconds.
 Elapsed time:       0 days  0 hours  0 minutes 15.5 seconds.
 File lengths (MBytes):  RWF=     28 Int=      0 D2E=      0 Chk=      3 Scr=      1
 Normal termination of Gaussian 16 at Wed Dec 23 22:05:40 2020.
