 Entering Gaussian System, Link 0=g16
 Initial command:
 /apps/cent7/gaussian/g16-B.01/g16-haswell/g16/l1.exe "/scratch/bell/zhao922/YARP/paper-example/KHP-network/pp_0/TS-folder/Gau-19289.inp" -scrdir="/scratch/bell/zhao922/YARP/paper-example/KHP-network/pp_0/TS-folder/"
 Entering Link 1 = /apps/cent7/gaussian/g16-B.01/g16-haswell/g16/l1.exe PID=     19292.
  
 Copyright (c) 1988-2017, Gaussian, Inc.  All Rights Reserved.
  
 This is part of the Gaussian(R) 16 program.  It is based on
 the Gaussian(R) 09 system (copyright 2009, Gaussian, Inc.),
 the Gaussian(R) 03 system (copyright 2003, Gaussian, Inc.),
 the Gaussian(R) 98 system (copyright 1998, Gaussian, Inc.),
 the Gaussian(R) 94 system (copyright 1995, Gaussian, Inc.),
 the Gaussian 92(TM) system (copyright 1992, Gaussian, Inc.),
 the Gaussian 90(TM) system (copyright 1990, Gaussian, Inc.),
 the Gaussian 88(TM) system (copyright 1988, Gaussian, Inc.),
 the Gaussian 86(TM) system (copyright 1986, Carnegie Mellon
 University), and the Gaussian 82(TM) system (copyright 1983,
 Carnegie Mellon University). Gaussian is a federally registered
 trademark of Gaussian, Inc.
  
 This software contains proprietary and confidential information,
 including trade secrets, belonging to Gaussian, Inc.
  
 This software is provided under written license and may be
 used, copied, transmitted, or stored only in accord with that
 written license.
  
 The following legend is applicable only to US Government
 contracts under FAR:
  
                    RESTRICTED RIGHTS LEGEND
  
 Use, reproduction and disclosure by the US Government is
 subject to restrictions as set forth in subparagraphs (a)
 and (c) of the Commercial Computer Software - Restricted
 Rights clause in FAR 52.227-19.
  
 Gaussian, Inc.
 340 Quinnipiac St., Bldg. 40, Wallingford CT 06492
  
  
 ---------------------------------------------------------------
 Warning -- This program may not be used in any manner that
 competes with the business of Gaussian, Inc. or will provide
 assistance to any competitor of Gaussian, Inc.  The licensee
 of this program is prohibited from giving any competitor of
 Gaussian, Inc. access to this program.  By using this program,
 the user acknowledges that Gaussian, Inc. is engaged in the
 business of creating and licensing software in the field of
 computational chemistry and represents and warrants to the
 licensee that it is not a competitor of Gaussian, Inc. and that
 it will not use this program in any manner prohibited above.
 ---------------------------------------------------------------
  

 Cite this work as:
 Gaussian 16, Revision B.01,
 M. J. Frisch, G. W. Trucks, H. B. Schlegel, G. E. Scuseria, 
 M. A. Robb, J. R. Cheeseman, G. Scalmani, V. Barone, 
 G. A. Petersson, H. Nakatsuji, X. Li, M. Caricato, A. V. Marenich, 
 J. Bloino, B. G. Janesko, R. Gomperts, B. Mennucci, H. P. Hratchian, 
 J. V. Ortiz, A. F. Izmaylov, J. L. Sonnenberg, D. Williams-Young, 
 F. Ding, F. Lipparini, F. Egidi, J. Goings, B. Peng, A. Petrone, 
 T. Henderson, D. Ranasinghe, V. G. Zakrzewski, J. Gao, N. Rega, 
 G. Zheng, W. Liang, M. Hada, M. Ehara, K. Toyota, R. Fukuda, 
 J. Hasegawa, M. Ishida, T. Nakajima, Y. Honda, O. Kitao, H. Nakai, 
 T. Vreven, K. Throssell, J. A. Montgomery, Jr., J. E. Peralta, 
 F. Ogliaro, M. J. Bearpark, J. J. Heyd, E. N. Brothers, K. N. Kudin, 
 V. N. Staroverov, T. A. Keith, R. Kobayashi, J. Normand, 
 K. Raghavachari, A. P. Rendell, J. C. Burant, S. S. Iyengar, 
 J. Tomasi, M. Cossi, J. M. Millam, M. Klene, C. Adamo, R. Cammi, 
 J. W. Ochterski, R. L. Martin, K. Morokuma, O. Farkas, 
 J. B. Foresman, and D. J. Fox, Gaussian, Inc., Wallingford CT, 2016.
 
 ******************************************
 Gaussian 16:  ES64L-G16RevB.01 20-Dec-2017
                23-Dec-2020 
 ******************************************
 %NProcShared=16
 Will use up to   16 processors via shared memory.
 %Mem=6GB
 --------------------------------------------------------------
 # B3LYP/6-31+G* OPT=(TS, CALCALL, NOEIGEN, maxcycles=100) Freq
 --------------------------------------------------------------
 1/5=1,6=100,10=4,11=1,18=20,26=3,38=1/1,3;
 2/9=110,12=2,17=6,18=5,40=1/2;
 3/5=1,6=6,7=11,11=2,25=1,30=1,71=2,74=-5,140=1/1,2,3;
 4//1;
 5/5=2,38=5/2;
 8/6=4,10=90,11=11/1;
 11/6=1,8=1,9=11,15=111,16=1/1,2,10;
 10/6=1/2;
 6/7=2,8=2,9=2,10=2,18=1,28=1/1;
 7/10=1,25=1/1,2,3,16;
 1/5=1,6=100,10=4,11=1,18=20,26=3/3(3);
 2/9=110/2;
 7/8=1,9=1,25=1,44=-1/16;
 99//99;
 2/9=110/2;
 3/5=1,6=6,7=11,11=2,25=1,30=1,71=2,74=-5,140=1/1,2,3;
 4/5=5,16=3,69=1/1;
 5/5=2,38=5/2;
 8/6=4,10=90,11=11/1;
 11/6=1,8=1,9=11,15=111,16=1/1,2,10;
 10/6=1/2;
 7/10=1,25=1/1,2,3,16;
 1/5=1,6=100,10=4,11=1,18=20,26=3/3(-8);
 2/9=110/2;
 6/7=2,8=2,9=2,10=2,18=1,19=2,28=1/1;
 7/8=1,9=1,25=1,44=-1/16;
 99//99;
 ----------
 pp_19_1 TS
 ----------
 Symbolic Z-matrix:
 Charge =  0 Multiplicity = 1
 C                     1.38572   1.38383  -2.5052 
 C                     0.48028   0.37915  -1.85914 
 C                     0.76067  -0.31455  -0.71093 
 O                     0.80466   2.67087  -2.46491 
 O                     0.9472    3.10856  -1.10661 
 O                     1.71937   0.10654   0.06682 
 H                     0.58739   4.00394  -1.13343 
 H                     2.36553   1.40428  -2.0095 
 H                     1.53204   1.18528  -3.57233 
 H                     0.10753  -1.12091  -0.37161 
 H                    -0.28581  -0.11537  -2.44874 
 H                     0.94086   1.26711  -0.47049 
 
 Add virtual bond connecting atoms H12        and C3         Dist= 3.04D+00.
 Add virtual bond connecting atoms H12        and O6         Dist= 2.83D+00.

 GradGradGradGradGradGradGradGradGradGradGradGradGradGradGradGradGradGrad
 Berny optimization.
 Initialization pass.
                           ----------------------------
                           !    Initial Parameters    !
                           ! (Angstroms and Degrees)  !
 --------------------------                            --------------------------
 ! Name  Definition              Value          Derivative Info.                !
 --------------------------------------------------------------------------------
 ! R1    R(1,2)                  1.4989         calculate D2E/DX2 analytically  !
 ! R2    R(1,4)                  1.4127         calculate D2E/DX2 analytically  !
 ! R3    R(1,8)                  1.0983         calculate D2E/DX2 analytically  !
 ! R4    R(1,9)                  1.0953         calculate D2E/DX2 analytically  !
 ! R5    R(2,3)                  1.3705         calculate D2E/DX2 analytically  !
 ! R6    R(2,11)                 1.0859         calculate D2E/DX2 analytically  !
 ! R7    R(3,6)                  1.3043         calculate D2E/DX2 analytically  !
 ! R8    R(3,10)                 1.0918         calculate D2E/DX2 analytically  !
 ! R9    R(3,12)                 1.6099         calculate D2E/DX2 analytically  !
 ! R10   R(4,5)                  1.4342         calculate D2E/DX2 analytically  !
 ! R11   R(5,7)                  0.9653         calculate D2E/DX2 analytically  !
 ! R12   R(6,12)                 1.4972         calculate D2E/DX2 analytically  !
 ! A1    A(2,1,4)              110.4817         calculate D2E/DX2 analytically  !
 ! A2    A(2,1,8)              110.9081         calculate D2E/DX2 analytically  !
 ! A3    A(2,1,9)              112.2817         calculate D2E/DX2 analytically  !
 ! A4    A(4,1,8)              109.7011         calculate D2E/DX2 analytically  !
 ! A5    A(4,1,9)              104.3524         calculate D2E/DX2 analytically  !
 ! A6    A(8,1,9)              108.9018         calculate D2E/DX2 analytically  !
 ! A7    A(1,2,3)              125.2272         calculate D2E/DX2 analytically  !
 ! A8    A(1,2,11)             119.8292         calculate D2E/DX2 analytically  !
 ! A9    A(3,2,11)             111.638          calculate D2E/DX2 analytically  !
 ! A10   A(2,3,6)              119.1129         calculate D2E/DX2 analytically  !
 ! A11   A(2,3,10)             120.7868         calculate D2E/DX2 analytically  !
 ! A12   A(2,3,12)              69.5583         calculate D2E/DX2 analytically  !
 ! A13   A(6,3,10)             119.5273         calculate D2E/DX2 analytically  !
 ! A14   A(10,3,12)            138.2584         calculate D2E/DX2 analytically  !
 ! A15   A(1,4,5)              105.3176         calculate D2E/DX2 analytically  !
 ! A16   A(4,5,7)              102.6915         calculate D2E/DX2 analytically  !
 ! D1    D(4,1,2,3)           -114.6836         calculate D2E/DX2 analytically  !
 ! D2    D(4,1,2,11)            87.6135         calculate D2E/DX2 analytically  !
 ! D3    D(8,1,2,3)              7.1815         calculate D2E/DX2 analytically  !
 ! D4    D(8,1,2,11)          -150.5213         calculate D2E/DX2 analytically  !
 ! D5    D(9,1,2,3)            129.275          calculate D2E/DX2 analytically  !
 ! D6    D(9,1,2,11)           -28.4278         calculate D2E/DX2 analytically  !
 ! D7    D(2,1,4,5)             74.854          calculate D2E/DX2 analytically  !
 ! D8    D(8,1,4,5)            -47.7198         calculate D2E/DX2 analytically  !
 ! D9    D(9,1,4,5)           -164.2581         calculate D2E/DX2 analytically  !
 ! D10   D(1,2,3,6)             16.5715         calculate D2E/DX2 analytically  !
 ! D11   D(1,2,3,10)          -172.1494         calculate D2E/DX2 analytically  !
 ! D12   D(1,2,3,12)            53.0331         calculate D2E/DX2 analytically  !
 ! D13   D(11,2,3,6)           175.8335         calculate D2E/DX2 analytically  !
 ! D14   D(11,2,3,10)          -12.8874         calculate D2E/DX2 analytically  !
 ! D15   D(11,2,3,12)         -147.705          calculate D2E/DX2 analytically  !
 ! D16   D(1,4,5,7)            176.8569         calculate D2E/DX2 analytically  !
 --------------------------------------------------------------------------------
 Trust Radius=3.00D-01 FncErr=1.00D-07 GrdErr=1.00D-06 EigMax=2.50D+02 EigMin=1.00D-04
 Number of steps in this run=    100 maximum allowed number of steps=    100.
 Search for a saddle point of order  1.
 GradGradGradGradGradGradGradGradGradGradGradGradGradGradGradGradGradGrad

                          Input orientation:                          
 ---------------------------------------------------------------------
 Center     Atomic      Atomic             Coordinates (Angstroms)
 Number     Number       Type             X           Y           Z
 ---------------------------------------------------------------------
      1          6           0        1.385717    1.383825   -2.505201
      2          6           0        0.480278    0.379153   -1.859138
      3          6           0        0.760666   -0.314546   -0.710925
      4          8           0        0.804657    2.670872   -2.464909
      5          8           0        0.947196    3.108557   -1.106609
      6          8           0        1.719371    0.106539    0.066818
      7          1           0        0.587388    4.003944   -1.133435
      8          1           0        2.365532    1.404276   -2.009503
      9          1           0        1.532035    1.185283   -3.572331
     10          1           0        0.107529   -1.120910   -0.371614
     11          1           0       -0.285814   -0.115367   -2.448735
     12          1           0        0.940859    1.267114   -0.470486
 ---------------------------------------------------------------------
                    Distance matrix (angstroms):
                    1          2          3          4          5
     1  C    0.000000
     2  C    1.498861   0.000000
     3  C    2.548446   1.370485   0.000000
     4  O    1.412708   2.392521   3.462819   0.000000
     5  O    2.263418   2.869487   3.450941   1.434177   0.000000
     6  O    2.891032   2.306291   1.304344   3.717815   3.314408
     7  H    3.063347   3.698274   4.342568   1.896605   0.965349
     8  H    1.098259   2.151202   2.686308   2.061065   2.394049
     9  H    1.095260   2.165887   3.321467   1.990587   3.181321
    10  H    3.529824   2.145194   1.091761   4.386967   4.374203
    11  H    2.246059   1.085851   2.038327   2.992076   3.703418
    12  H    2.086045   1.711422   1.609947   2.442706   1.948231
                    6          7          8          9         10
     6  O    0.000000
     7  H    4.232229   0.000000
     8  H    2.532342   3.269184   0.000000
     9  H    3.800288   3.845182   1.784687   0.000000
    10  H    2.072894   5.203342   3.762688   4.194321   0.000000
    11  H    3.224595   4.411487   3.087374   2.501746   2.340997
    12  H    1.497234   2.838077   2.101685   3.158738   2.531180
                   11         12
    11  H    0.000000
    12  H    2.707296   0.000000
 Stoichiometry    C3H6O3
 Framework group  C1[X(C3H6O3)]
 Deg. of freedom    30
 Full point group                 C1      NOp   1
 Largest Abelian subgroup         C1      NOp   1
 Largest concise Abelian subgroup C1      NOp   1
                         Standard orientation:                         
 ---------------------------------------------------------------------
 Center     Atomic      Atomic             Coordinates (Angstroms)
 Number     Number       Type             X           Y           Z
 ---------------------------------------------------------------------
      1          6           0       -0.528686    0.831073    0.579589
      2          6           0        0.615609    0.890818   -0.386642
      3          6           0        1.752086    0.128325   -0.314170
      4          8           0       -1.694035    0.356991   -0.063023
      5          8           0       -1.489209   -1.052960   -0.227180
      6          8           0        1.755250   -0.935904    0.439964
      7          1           0       -2.321855   -1.343978   -0.619490
      8          1           0       -0.287342    0.183788    1.433374
      9          1           0       -0.808716    1.821747    0.953410
     10          1           0        2.595691    0.317949   -0.980740
     11          1           0        0.769042    1.782043   -0.987682
     12          1           0        0.443077   -0.807859   -0.269625
 ---------------------------------------------------------------------
 Rotational constants (GHZ):           6.5504352           2.4578854           2.0204270
 Standard basis: 6-31+G(d) (6D, 7F)
 There are   126 symmetry adapted cartesian basis functions of A   symmetry.
 There are   126 symmetry adapted basis functions of A   symmetry.
   126 basis functions,   216 primitive gaussians,   126 cartesian basis functions
    24 alpha electrons       24 beta electrons
       nuclear repulsion energy       244.6623197982 Hartrees.
 NAtoms=   12 NActive=   12 NUniq=   12 SFac= 1.00D+00 NAtFMM=   60 NAOKFM=F Big=F
 Integral buffers will be    131072 words long.
 Raffenetti 2 integral format.
 Two-electron integral symmetry is turned on.
 One-electron integrals computed using PRISM.
 NBasis=   126 RedAO= T EigKep=  1.06D-04  NBF=   126
 NBsUse=   126 1.00D-06 EigRej= -1.00D+00 NBFU=   126
 ExpMin= 4.38D-02 ExpMax= 5.48D+03 ExpMxC= 8.25D+02 IAcc=3 IRadAn=         5 AccDes= 0.00D+00
 Harris functional with IExCor=  402 and IRadAn=       5 diagonalized for initial guess.
 HarFok:  IExCor=  402 AccDes= 0.00D+00 IRadAn=         5 IDoV= 1 UseB2=F ITyADJ=14
 ICtDFT=  3500011 ScaDFX=  1.000000  1.000000  1.000000  1.000000
 FoFCou: FMM=F IPFlag=           0 FMFlag=      100000 FMFlg1=           0
         NFxFlg=           0 DoJE=T BraDBF=F KetDBF=T FulRan=T
         wScrn=  0.000000 ICntrl=       500 IOpCl=  0 I1Cent=   200000004 NGrid=           0
         NMat0=    1 NMatS0=      1 NMatT0=    0 NMatD0=    1 NMtDS0=    0 NMtDT0=    0
 Petite list used in FoFCou.
 Keep R1 ints in memory in canonical form, NReq=47237537.
 Requested convergence on RMS density matrix=1.00D-08 within 128 cycles.
 Requested convergence on MAX density matrix=1.00D-06.
 Requested convergence on             energy=1.00D-06.
 No special actions if energy rises.
 SCF Done:  E(RB3LYP) =  -343.356054133     A.U. after   14 cycles
            NFock= 14  Conv=0.91D-08     -V/T= 2.0087
 DoSCS=F DFT=T ScalE2(SS,OS)=  1.000000  1.000000
 Range of M.O.s used for correlation:     1   126
 NBasis=   126 NAE=    24 NBE=    24 NFC=     0 NFV=     0
 NROrb=    126 NOA=    24 NOB=    24 NVA=   102 NVB=   102

 **** Warning!!: The largest alpha MO coefficient is  0.39526093D+02

 Symmetrizing basis deriv contribution to polar:
 IMax=3 JMax=2 DiffMx= 0.00D+00
 G2DrvN: will do    13 centers at a time, making    1 passes.
 Calling FoFCou, ICntrl=  3107 FMM=F I1Cent=   0 AccDes= 0.00D+00.
 End of G2Drv F.D. properties file   721 does not exist.
 End of G2Drv F.D. properties file   722 does not exist.
 End of G2Drv F.D. properties file   788 does not exist.
          IDoAtm=111111111111
          Differentiating once with respect to electric field.
                with respect to dipole field.
          Differentiating once with respect to nuclear coordinates.
 Keep R1 ints in memory in canonical form, NReq=47193552.
          There are    39 degrees of freedom in the 1st order CPHF.  IDoFFX=6 NUNeed=     3.
     36 vectors produced by pass  0 Test12= 6.28D-15 2.56D-09 XBig12= 6.93D+01 3.09D+00.
 AX will form    36 AO Fock derivatives at one time.
     36 vectors produced by pass  1 Test12= 6.28D-15 2.56D-09 XBig12= 1.64D+01 6.00D-01.
     36 vectors produced by pass  2 Test12= 6.28D-15 2.56D-09 XBig12= 1.78D-01 5.73D-02.
     36 vectors produced by pass  3 Test12= 6.28D-15 2.56D-09 XBig12= 1.02D-03 6.42D-03.
     36 vectors produced by pass  4 Test12= 6.28D-15 2.56D-09 XBig12= 1.87D-06 2.30D-04.
     28 vectors produced by pass  5 Test12= 6.28D-15 2.56D-09 XBig12= 1.66D-09 5.67D-06.
      4 vectors produced by pass  6 Test12= 6.28D-15 2.56D-09 XBig12= 1.49D-12 1.53D-07.
      2 vectors produced by pass  7 Test12= 6.28D-15 2.56D-09 XBig12= 1.29D-15 5.05D-09.
 InvSVY:  IOpt=1 It=  1 EMax= 3.11D-15
 Solved reduced A of dimension   214 with    39 vectors.
 Isotropic polarizability for W=    0.000000       55.95 Bohr**3.
 End of Minotr F.D. properties file   721 does not exist.
 End of Minotr F.D. properties file   722 does not exist.
 End of Minotr F.D. properties file   788 does not exist.

 **********************************************************************

            Population analysis using the SCF Density.

 **********************************************************************

 Orbital symmetries:
       Occupied  (A) (A) (A) (A) (A) (A) (A) (A) (A) (A) (A) (A)
                 (A) (A) (A) (A) (A) (A) (A) (A) (A) (A) (A) (A)
       Virtual   (A) (A) (A) (A) (A) (A) (A) (A) (A) (A) (A) (A)
                 (A) (A) (A) (A) (A) (A) (A) (A) (A) (A) (A) (A)
                 (A) (A) (A) (A) (A) (A) (A) (A) (A) (A) (A) (A)
                 (A) (A) (A) (A) (A) (A) (A) (A) (A) (A) (A) (A)
                 (A) (A) (A) (A) (A) (A) (A) (A) (A) (A) (A) (A)
                 (A) (A) (A) (A) (A) (A) (A) (A) (A) (A) (A) (A)
                 (A) (A) (A) (A) (A) (A) (A) (A) (A) (A) (A) (A)
                 (A) (A) (A) (A) (A) (A) (A) (A) (A) (A) (A) (A)
                 (A) (A) (A) (A) (A) (A)
 The electronic state is 1-A.
 Alpha  occ. eigenvalues --  -19.24690 -19.23419 -19.15467 -10.27847 -10.26127
 Alpha  occ. eigenvalues --  -10.19067  -1.16215  -1.03556  -0.95133  -0.78176
 Alpha  occ. eigenvalues --   -0.68218  -0.59163  -0.55963  -0.51854  -0.51304
 Alpha  occ. eigenvalues --   -0.47340  -0.43635  -0.42912  -0.40846  -0.37875
 Alpha  occ. eigenvalues --   -0.36892  -0.28832  -0.27329  -0.23527
 Alpha virt. eigenvalues --   -0.06250  -0.01590   0.00735   0.01902   0.02770
 Alpha virt. eigenvalues --    0.03039   0.04259   0.06136   0.07022   0.07666
 Alpha virt. eigenvalues --    0.08924   0.11431   0.11867   0.12811   0.13492
 Alpha virt. eigenvalues --    0.15922   0.18451   0.19519   0.19952   0.21243
 Alpha virt. eigenvalues --    0.21465   0.23241   0.24174   0.25560   0.25757
 Alpha virt. eigenvalues --    0.26559   0.27446   0.28659   0.29511   0.31962
 Alpha virt. eigenvalues --    0.33772   0.34581   0.36612   0.38887   0.41591
 Alpha virt. eigenvalues --    0.44563   0.62511   0.65583   0.66503   0.67631
 Alpha virt. eigenvalues --    0.71833   0.73709   0.81871   0.85541   0.88882
 Alpha virt. eigenvalues --    0.91251   0.92866   0.99259   1.02084   1.03645
 Alpha virt. eigenvalues --    1.06862   1.07343   1.13638   1.14675   1.16212
 Alpha virt. eigenvalues --    1.19726   1.23639   1.25175   1.26887   1.29393
 Alpha virt. eigenvalues --    1.31699   1.36081   1.38210   1.43978   1.46034
 Alpha virt. eigenvalues --    1.51870   1.53014   1.56019   1.61429   1.65078
 Alpha virt. eigenvalues --    1.70519   1.75857   1.77919   1.79209   1.87413
 Alpha virt. eigenvalues --    1.88798   1.92594   1.98578   2.02640   2.05591
 Alpha virt. eigenvalues --    2.13082   2.14889   2.21928   2.28677   2.33545
 Alpha virt. eigenvalues --    2.43010   2.44704   2.47538   2.48373   2.58673
 Alpha virt. eigenvalues --    2.61366   2.76317   2.83998   2.91865   3.05596
 Alpha virt. eigenvalues --    3.11111   3.97370   4.13641   4.23983   4.27366
 Alpha virt. eigenvalues --    4.38205   4.49949
          Condensed to atoms (all electrons):
               1          2          3          4          5          6
     1  C    5.603023   0.007274  -0.203947   0.104798  -0.053012   0.057297
     2  C    0.007274   6.290207   0.154280  -0.086919   0.065776  -0.235322
     3  C   -0.203947   0.154280   5.449047  -0.023984  -0.028918   0.140545
     4  O    0.104798  -0.086919  -0.023984   8.169794   0.050254   0.013647
     5  O   -0.053012   0.065776  -0.028918   0.050254   8.319105  -0.009982
     6  O    0.057297  -0.235322   0.140545   0.013647  -0.009982   8.503293
     7  H    0.019936  -0.012187   0.001685  -0.028279   0.197666   0.000600
     8  H    0.462773  -0.123963  -0.007111  -0.040908  -0.001030   0.005213
     9  H    0.379850  -0.043608   0.024588  -0.058288   0.012846  -0.000238
    10  H    0.023273  -0.117126   0.379808  -0.000731  -0.000241  -0.056675
    11  H   -0.002044   0.281492   0.021901   0.000134   0.000943   0.007451
    12  H    0.020130  -0.097840   0.183754  -0.026798   0.022119   0.053587
               7          8          9         10         11         12
     1  C    0.019936   0.462773   0.379850   0.023273  -0.002044   0.020130
     2  C   -0.012187  -0.123963  -0.043608  -0.117126   0.281492  -0.097840
     3  C    0.001685  -0.007111   0.024588   0.379808   0.021901   0.183754
     4  O   -0.028279  -0.040908  -0.058288  -0.000731   0.000134  -0.026798
     5  O    0.197666  -0.001030   0.012846  -0.000241   0.000943   0.022119
     6  O    0.000600   0.005213  -0.000238  -0.056675   0.007451   0.053587
     7  H    0.302979   0.000279  -0.000259   0.000005   0.000024  -0.000021
     8  H    0.000279   0.476435  -0.019427  -0.000036   0.003323  -0.001604
     9  H   -0.000259  -0.019427   0.491233  -0.000007  -0.003537   0.001459
    10  H    0.000005  -0.000036  -0.000007   0.577038   0.000411   0.013365
    11  H    0.000024   0.003323  -0.003537   0.000411   0.503824   0.002883
    12  H   -0.000021  -0.001604   0.001459   0.013365   0.002883   0.451364
 Mulliken charges:
               1
     1  C   -0.419350
     2  C   -0.082065
     3  C   -0.091649
     4  O   -0.072721
     5  O   -0.575527
     6  O   -0.479415
     7  H    0.517573
     8  H    0.246055
     9  H    0.215387
    10  H    0.180915
    11  H    0.183194
    12  H    0.377603
 Sum of Mulliken charges =   0.00000
 Mulliken charges with hydrogens summed into heavy atoms:
               1
     1  C    0.042092
     2  C    0.101129
     3  C    0.089266
     4  O   -0.072721
     5  O   -0.057954
     6  O   -0.101812
 APT charges:
               1
     1  C    0.550451
     2  C   -0.499510
     3  C    0.588791
     4  O   -0.322784
     5  O   -0.449107
     6  O   -0.735909
     7  H    0.304173
     8  H    0.003714
     9  H   -0.004351
    10  H    0.011148
    11  H    0.025408
    12  H    0.527975
 Sum of APT charges =   0.00000
 APT charges with hydrogens summed into heavy atoms:
               1
     1  C    0.549815
     2  C   -0.474102
     3  C    0.599939
     4  O   -0.322784
     5  O   -0.144934
     6  O   -0.207934
 Electronic spatial extent (au):  <R**2>=            605.2531
 Charge=             -0.0000 electrons
 Dipole moment (field-independent basis, Debye):
    X=             -1.6846    Y=              1.1940    Z=             -1.2792  Tot=              2.4290
 Quadrupole moment (field-independent basis, Debye-Ang):
   XX=            -34.8059   YY=            -35.6004   ZZ=            -36.5794
   XY=              7.1037   XZ=             -1.9168   YZ=              3.4173
 Traceless Quadrupole moment (field-independent basis, Debye-Ang):
   XX=              0.8560   YY=              0.0615   ZZ=             -0.9175
   XY=              7.1037   XZ=             -1.9168   YZ=              3.4173
 Octapole moment (field-independent basis, Debye-Ang**2):
  XXX=            -20.4379  YYY=             -2.4506  ZZZ=              2.2732  XYY=            -14.3396
  XXY=             -6.2736  XXZ=            -13.3053  XZZ=             -4.2774  YZZ=             -1.4225
  YYZ=             -2.9065  XYZ=             -3.5678
 Hexadecapole moment (field-independent basis, Debye-Ang**3):
 XXXX=           -431.1901 YYYY=           -182.9368 ZZZZ=            -90.1480 XXXY=             50.6408
 XXXZ=              6.0081 YYYX=             11.4083 YYYZ=              6.7331 ZZZX=              2.9349
 ZZZY=              2.9581 XXYY=           -106.1299 XXZZ=            -89.5885 YYZZ=            -44.4601
 XXYZ=             13.5605 YYXZ=              2.1524 ZZXY=              4.2080
 N-N= 2.446623197982D+02 E-N=-1.293888601943D+03  KE= 3.403798758903D+02
  Exact polarizability:  67.008  -2.642  57.239  -0.373  -2.714  43.618
 Approx polarizability:  97.766 -12.354  93.785   7.277  -9.437  62.863
 Calling FoFJK, ICntrl=    100127 FMM=F ISym2X=0 I1Cent= 0 IOpClX= 0 NMat=1 NMatS=1 NMatT=0.
 ***** Axes restored to original set *****
 -------------------------------------------------------------------
 Center     Atomic                   Forces (Hartrees/Bohr)
 Number     Number              X              Y              Z
 -------------------------------------------------------------------
      1        6           0.006510523   -0.014650364    0.002248550
      2        6          -0.011167997   -0.022344993   -0.012702089
      3        6           0.000202507    0.010849142   -0.005683062
      4        8          -0.003248822    0.019881763   -0.022915523
      5        8           0.010457255   -0.013569429    0.018489691
      6        8          -0.011984442    0.039283842    0.015707917
      7        1          -0.006971913    0.005851579   -0.002522466
      8        1           0.000823957    0.001525340   -0.003449879
      9        1          -0.002755348    0.002042107   -0.000509071
     10        1           0.004307082   -0.010340821   -0.001823965
     11        1          -0.009708640    0.013192476   -0.005374572
     12        1           0.023535838   -0.031720643    0.018534468
 -------------------------------------------------------------------
 Cartesian Forces:  Max     0.039283842 RMS     0.014086222
 FormGI is forming the generalized inverse of G from B-inverse, IUseBI=4.

 GradGradGradGradGradGradGradGradGradGradGradGradGradGradGradGradGradGrad
 Berny optimization.
 Internal  Forces:  Max     0.036700223 RMS     0.011396029
 Search for a saddle point.
 Step number   1 out of a maximum of  100
 All quantities printed in internal units (Hartrees-Bohrs-Radians)
 Swapping is turned off.
 Second derivative matrix not updated -- analytic derivatives used.
 ITU=  0
     Eigenvalues ---   -0.28007  -0.04348  -0.00640  -0.00230   0.01289
     Eigenvalues ---    0.01879   0.02860   0.04300   0.05908   0.06228
     Eigenvalues ---    0.09737   0.10150   0.11925   0.13423   0.14073
     Eigenvalues ---    0.16954   0.19686   0.21727   0.24366   0.25868
     Eigenvalues ---    0.30239   0.33199   0.34032   0.34762   0.36188
     Eigenvalues ---    0.38876   0.43909   0.49700   0.53188   0.61991
 Eigenvectors required to have negative eigenvalues:
                          R12       A12       R9        D12       R7
   1                    0.70128  -0.46956  -0.39069   0.20135  -0.18616
                          D15       R5        D1        A13       A10
   1                    0.16879   0.11905  -0.05099   0.04616  -0.04323
 RFO step:  Lambda0=5.804788133D-03 Lambda=-4.37173428D-02.
 Linear search not attempted -- option 19 set.
 Maximum step size (   0.300) exceeded in Quadratic search.
    -- Step size scaled by   0.672
 Iteration  1 RMS(Cart)=  0.19701908 RMS(Int)=  0.05017569
 Iteration  2 RMS(Cart)=  0.05571322 RMS(Int)=  0.01775481
 Iteration  3 RMS(Cart)=  0.02733522 RMS(Int)=  0.00188716
 Iteration  4 RMS(Cart)=  0.00138479 RMS(Int)=  0.00111856
 Iteration  5 RMS(Cart)=  0.00000214 RMS(Int)=  0.00111856
 Iteration  6 RMS(Cart)=  0.00000000 RMS(Int)=  0.00111856
 Variable       Old X    -DE/DX   Delta X   Delta X   Delta X     New X
                                 (Linear)    (Quad)   (Total)
    R1        2.83244   0.00737   0.00000   0.00821   0.00821   2.84064
    R2        2.66963   0.01079   0.00000   0.03810   0.03810   2.70773
    R3        2.07541  -0.00079   0.00000  -0.00466  -0.00466   2.07075
    R4        2.06974  -0.00024   0.00000  -0.00263  -0.00263   2.06711
    R5        2.58984   0.02160   0.00000   0.03071   0.03071   2.62055
    R6        2.05196   0.00376   0.00000   0.00282   0.00282   2.05478
    R7        2.46485   0.02593   0.00000  -0.03653  -0.03718   2.42767
    R8        2.06313   0.00449   0.00000   0.01181   0.01181   2.07494
    R9        3.04236  -0.00192   0.00000   0.12611   0.12470   3.16706
   R10        2.71020   0.01311   0.00000   0.02971   0.02971   2.73991
   R11        1.82425   0.00810   0.00000   0.01544   0.01544   1.83968
   R12        2.82936  -0.03670   0.00000   0.10667   0.10873   2.93809
    A1        1.92827   0.00228   0.00000  -0.05027  -0.05074   1.87753
    A2        1.93571   0.00139   0.00000   0.00499   0.00331   1.93902
    A3        1.95969   0.00091   0.00000   0.04035   0.04046   2.00014
    A4        1.91465  -0.00402   0.00000  -0.03624  -0.03720   1.87745
    A5        1.82129  -0.00048   0.00000   0.03593   0.03658   1.85787
    A6        1.90070  -0.00035   0.00000   0.00557   0.00535   1.90605
    A7        2.18563  -0.00506   0.00000  -0.05406  -0.05402   2.13160
    A8        2.09141  -0.01018   0.00000  -0.03813  -0.03786   2.05355
    A9        1.94845   0.01618   0.00000   0.08940   0.08920   2.03765
   A10        2.07891   0.01204   0.00000  -0.00503  -0.00790   2.07101
   A11        2.10813  -0.00363   0.00000   0.00718   0.00839   2.11652
   A12        1.21402   0.02154   0.00000  -0.09099  -0.08759   1.12644
   A13        2.08614  -0.00935   0.00000  -0.00621  -0.00503   2.08111
   A14        2.41307   0.00196   0.00000   0.09109   0.08901   2.50208
   A15        1.83814  -0.02642   0.00000  -0.13235  -0.13235   1.70578
   A16        1.79230  -0.00575   0.00000   0.00854   0.00854   1.80084
    D1       -2.00161   0.00751   0.00000   0.11630   0.11627  -1.88534
    D2        1.52914   0.00115   0.00000   0.10630   0.10552   1.63466
    D3        0.12534   0.00491   0.00000   0.03949   0.03991   0.16525
    D4       -2.62709  -0.00146   0.00000   0.02949   0.02916  -2.59793
    D5        2.25628   0.00610   0.00000   0.07886   0.07959   2.33587
    D6       -0.49616  -0.00027   0.00000   0.06885   0.06884  -0.42732
    D7        1.30645  -0.00344   0.00000  -0.07162  -0.07051   1.23594
    D8       -0.83287  -0.00398   0.00000  -0.02018  -0.02138  -0.85424
    D9       -2.86684  -0.00145   0.00000  -0.02877  -0.02868  -2.89552
   D10        0.28923   0.01595   0.00000   0.18830   0.18986   0.47909
   D11       -3.00457   0.00808   0.00000   0.15703   0.15821  -2.84636
   D12        0.92560  -0.00408   0.00000   0.09307   0.09147   1.01707
   D13        3.06887   0.01719   0.00000   0.17583   0.17663  -3.03768
   D14       -0.22493   0.00932   0.00000   0.14457   0.14498  -0.07994
   D15       -2.57794  -0.00284   0.00000   0.08060   0.07824  -2.49970
   D16        3.08673   0.00659   0.00000   0.49413   0.49413  -2.70232
         Item               Value     Threshold  Converged?
 Maximum Force            0.036700     0.000450     NO 
 RMS     Force            0.011396     0.000300     NO 
 Maximum Displacement     0.900910     0.001800     NO 
 RMS     Displacement     0.251081     0.001200     NO 
 Predicted change in Energy=-1.815759D-02
 GradGradGradGradGradGradGradGradGradGradGradGradGradGradGradGradGradGrad

                          Input orientation:                          
 ---------------------------------------------------------------------
 Center     Atomic      Atomic             Coordinates (Angstroms)
 Number     Number       Type             X           Y           Z
 ---------------------------------------------------------------------
      1          6           0        1.411406    1.344516   -2.587708
      2          6           0        0.459266    0.419148   -1.882907
      3          6           0        0.770146   -0.173959   -0.668572
      4          8           0        0.886160    2.672944   -2.475877
      5          8           0        1.133207    2.861873   -1.059728
      6          8           0        1.589641    0.425856    0.118210
      7          1           0        0.469571    3.527203   -0.805445
      8          1           0        2.396610    1.336885   -2.108045
      9          1           0        1.530236    1.147445   -3.657093
     10          1           0        0.209018   -1.041999   -0.298070
     11          1           0       -0.311176   -0.062813   -2.479943
     12          1           0        0.801329    1.501641   -0.680891
 ---------------------------------------------------------------------
                    Distance matrix (angstroms):
                    1          2          3          4          5
     1  C    0.000000
     2  C    1.503203   0.000000
     3  C    2.529835   1.386734   0.000000
     4  O    1.432867   2.369271   3.374117   0.000000
     5  O    2.171287   2.664343   3.082384   1.449898   0.000000
     6  O    2.863162   2.298317   1.284670   3.503367   2.744094
     7  H    2.971134   3.289534   3.715869   1.921887   0.973518
     8  H    1.095793   2.155512   2.645774   2.049832   2.240701
     9  H    1.093866   2.196618   3.354863   2.034023   3.137387
    10  H    3.519038   2.170088   1.098011   4.359147   4.083438
    11  H    2.226988   1.087345   2.112504   2.986301   3.557674
    12  H    2.008191   1.653372   1.675936   2.145023   1.450480
                    6          7          8          9         10
     6  O    0.000000
     7  H    3.424332   0.000000
     8  H    2.537201   3.194955   0.000000
     9  H    3.844104   3.862662   1.784948   0.000000
    10  H    2.057670   4.604663   3.704141   4.221649   0.000000
    11  H    3.256117   4.037540   3.070761   2.498241   2.447442
    12  H    1.554771   2.056327   2.146820   3.084565   2.639600
                   11         12
    11  H    0.000000
    12  H    2.630926   0.000000
 Stoichiometry    C3H6O3
 Framework group  C1[X(C3H6O3)]
 Deg. of freedom    30
 Full point group                 C1      NOp   1
 Largest Abelian subgroup         C1      NOp   1
 Largest concise Abelian subgroup C1      NOp   1
                         Standard orientation:                         
 ---------------------------------------------------------------------
 Center     Atomic      Atomic             Coordinates (Angstroms)
 Number     Number       Type             X           Y           Z
 ---------------------------------------------------------------------
      1          6           0       -0.646184    0.883633    0.550470
      2          6           0        0.524189    0.971586   -0.388739
      3          6           0        1.672282    0.214781   -0.209410
      4          8           0       -1.700989    0.198289   -0.135677
      5          8           0       -1.103867   -1.122929   -0.141427
      6          8           0        1.578228   -0.912693    0.399140
      7          1           0       -1.521009   -1.551717   -0.909458
      8          1           0       -0.394308    0.296339    1.440643
      9          1           0       -1.054845    1.849773    0.860490
     10          1           0        2.610285    0.472851   -0.718506
     11          1           0        0.619962    1.870414   -0.993102
     12          1           0        0.251226   -0.658994   -0.370285
 ---------------------------------------------------------------------
 Rotational constants (GHZ):           6.3324262           2.9231510           2.2565907
 Standard basis: 6-31+G(d) (6D, 7F)
 There are   126 symmetry adapted cartesian basis functions of A   symmetry.
 There are   126 symmetry adapted basis functions of A   symmetry.
   126 basis functions,   216 primitive gaussians,   126 cartesian basis functions
    24 alpha electrons       24 beta electrons
       nuclear repulsion energy       251.0283445603 Hartrees.
 NAtoms=   12 NActive=   12 NUniq=   12 SFac= 1.00D+00 NAtFMM=   60 NAOKFM=F Big=F
 Integral buffers will be    131072 words long.
 Raffenetti 2 integral format.
 Two-electron integral symmetry is turned on.
 One-electron integrals computed using PRISM.
 NBasis=   126 RedAO= T EigKep=  1.19D-04  NBF=   126
 NBsUse=   126 1.00D-06 EigRej= -1.00D+00 NBFU=   126
 Initial guess from the checkpoint file:  "/scratch/bell/zhao922/YARP/paper-example/KHP-network/pp_0/TS-folder/Gau-19292.chk"
 B after Tr=    -0.000000    0.000000    0.000000
         Rot=    0.999025    0.005340    0.019691   -0.039144 Ang=   5.06 deg.
 ExpMin= 4.38D-02 ExpMax= 5.48D+03 ExpMxC= 8.25D+02 IAcc=3 IRadAn=         5 AccDes= 0.00D+00
 Harris functional with IExCor=  402 and IRadAn=       5 diagonalized for initial guess.
 HarFok:  IExCor=  402 AccDes= 0.00D+00 IRadAn=         5 IDoV= 1 UseB2=F ITyADJ=14
 ICtDFT=  3500011 ScaDFX=  1.000000  1.000000  1.000000  1.000000
 FoFCou: FMM=F IPFlag=           0 FMFlag=      100000 FMFlg1=           0
         NFxFlg=           0 DoJE=T BraDBF=F KetDBF=T FulRan=T
         wScrn=  0.000000 ICntrl=       500 IOpCl=  0 I1Cent=   200000004 NGrid=           0
         NMat0=    1 NMatS0=      1 NMatT0=    0 NMatD0=    1 NMtDS0=    0 NMtDT0=    0
 Petite list used in FoFCou.
 Keep R1 ints in memory in canonical form, NReq=47237537.
 Requested convergence on RMS density matrix=1.00D-08 within 128 cycles.
 Requested convergence on MAX density matrix=1.00D-06.
 Requested convergence on             energy=1.00D-06.
 No special actions if energy rises.
 SCF Done:  E(RB3LYP) =  -343.370777475     A.U. after   14 cycles
            NFock= 14  Conv=0.32D-08     -V/T= 2.0087
 DoSCS=F DFT=T ScalE2(SS,OS)=  1.000000  1.000000
 Range of M.O.s used for correlation:     1   126
 NBasis=   126 NAE=    24 NBE=    24 NFC=     0 NFV=     0
 NROrb=    126 NOA=    24 NOB=    24 NVA=   102 NVB=   102

 **** Warning!!: The largest alpha MO coefficient is  0.28930046D+02

 Symmetrizing basis deriv contribution to polar:
 IMax=3 JMax=2 DiffMx= 0.00D+00
 G2DrvN: will do    13 centers at a time, making    1 passes.
 Calling FoFCou, ICntrl=  3107 FMM=F I1Cent=   0 AccDes= 0.00D+00.
 End of G2Drv F.D. properties file   721 does not exist.
 End of G2Drv F.D. properties file   722 does not exist.
 End of G2Drv F.D. properties file   788 does not exist.
          IDoAtm=111111111111
          Differentiating once with respect to electric field.
                with respect to dipole field.
          Differentiating once with respect to nuclear coordinates.
 Keep R1 ints in memory in canonical form, NReq=47193552.
          There are    39 degrees of freedom in the 1st order CPHF.  IDoFFX=6 NUNeed=     3.
     36 vectors produced by pass  0 Test12= 6.28D-15 2.56D-09 XBig12= 6.79D+01 4.70D+00.
 AX will form    36 AO Fock derivatives at one time.
     36 vectors produced by pass  1 Test12= 6.28D-15 2.56D-09 XBig12= 1.38D+01 6.21D-01.
     36 vectors produced by pass  2 Test12= 6.28D-15 2.56D-09 XBig12= 1.81D-01 4.68D-02.
     36 vectors produced by pass  3 Test12= 6.28D-15 2.56D-09 XBig12= 1.29D-03 5.53D-03.
     36 vectors produced by pass  4 Test12= 6.28D-15 2.56D-09 XBig12= 3.01D-06 2.81D-04.
     30 vectors produced by pass  5 Test12= 6.28D-15 2.56D-09 XBig12= 2.89D-09 7.97D-06.
      4 vectors produced by pass  6 Test12= 6.28D-15 2.56D-09 XBig12= 2.37D-12 2.33D-07.
      1 vectors produced by pass  7 Test12= 6.28D-15 2.56D-09 XBig12= 1.86D-15 5.22D-09.
 InvSVY:  IOpt=1 It=  1 EMax= 2.66D-15
 Solved reduced A of dimension   215 with    39 vectors.
 Isotropic polarizability for W=    0.000000       56.52 Bohr**3.
 End of Minotr F.D. properties file   721 does not exist.
 End of Minotr F.D. properties file   722 does not exist.
 End of Minotr F.D. properties file   788 does not exist.
 Calling FoFJK, ICntrl=    100127 FMM=F ISym2X=0 I1Cent= 0 IOpClX= 0 NMat=1 NMatS=1 NMatT=0.
 ***** Axes restored to original set *****
 -------------------------------------------------------------------
 Center     Atomic                   Forces (Hartrees/Bohr)
 Number     Number              X              Y              Z
 -------------------------------------------------------------------
      1        6          -0.000557533   -0.023420311   -0.004122833
      2        6          -0.000546508   -0.017324810   -0.016366521
      3        6           0.000780176    0.008315465    0.005728632
      4        8           0.008241595    0.018695108   -0.007674238
      5        8          -0.005145269   -0.002905327    0.012393739
      6        8          -0.003114742    0.004786770    0.009462714
      7        1          -0.006121829    0.001504625    0.000168430
      8        1           0.001575007   -0.000302378   -0.003701061
      9        1          -0.005080944    0.003505183   -0.001076737
     10        1           0.002862077   -0.005803866   -0.001870319
     11        1          -0.004587711    0.005733066   -0.001077032
     12        1           0.011695681    0.007216476    0.008135226
 -------------------------------------------------------------------
 Cartesian Forces:  Max     0.023420311 RMS     0.008290731
 FormGI is forming the generalized inverse of G from B-inverse, IUseBI=4.

 GradGradGradGradGradGradGradGradGradGradGradGradGradGradGradGradGradGrad
 Berny optimization.
 Internal  Forces:  Max     0.019345590 RMS     0.007970842
 Search for a saddle point.
 Step number   2 out of a maximum of  100
 All quantities printed in internal units (Hartrees-Bohrs-Radians)
 Swapping is turned off.
 Second derivative matrix not updated -- analytic derivatives used.
 ITU=  0  0
     Eigenvalues ---   -0.30544  -0.08831   0.00338   0.01144   0.02386
     Eigenvalues ---    0.02985   0.04843   0.05909   0.07235   0.07888
     Eigenvalues ---    0.09730   0.12135   0.13195   0.13656   0.17530
     Eigenvalues ---    0.17992   0.22201   0.22884   0.25764   0.27506
     Eigenvalues ---    0.32831   0.33250   0.33789   0.34752   0.35918
     Eigenvalues ---    0.40836   0.50028   0.58936   0.71709   0.76752
 Eigenvectors required to have negative eigenvalues:
                          R9        A12       R12       D12       D15
   1                    0.51444   0.47295  -0.47018  -0.24589  -0.16168
                          A1        D1        R7        A15       D7
   1                   -0.14442   0.13777   0.12999  -0.12282  -0.12157
 RFO step:  Lambda0=3.024522159D-03 Lambda=-8.91568343D-02.
 Linear search not attempted -- option 19 set.
 Maximum step size (   0.300) exceeded in Quadratic search.
    -- Step size scaled by   0.454
 Iteration  1 RMS(Cart)=  0.10373754 RMS(Int)=  0.00876502
 Iteration  2 RMS(Cart)=  0.00860897 RMS(Int)=  0.00053064
 Iteration  3 RMS(Cart)=  0.00005866 RMS(Int)=  0.00052784
 Iteration  4 RMS(Cart)=  0.00000002 RMS(Int)=  0.00052784
 Variable       Old X    -DE/DX   Delta X   Delta X   Delta X     New X
                                 (Linear)    (Quad)   (Total)
    R1        2.84064  -0.00441   0.00000  -0.02621  -0.02621   2.81443
    R2        2.70773   0.01752   0.00000   0.04441   0.04441   2.75213
    R3        2.07075  -0.00020   0.00000  -0.00024  -0.00024   2.07051
    R4        2.06711  -0.00013   0.00000  -0.00153  -0.00153   2.06558
    R5        2.62055   0.01532   0.00000   0.02601   0.02601   2.64656
    R6        2.05478   0.00130   0.00000  -0.00120  -0.00120   2.05359
    R7        2.42767   0.00863   0.00000  -0.03725  -0.03714   2.39053
    R8        2.07494   0.00249   0.00000   0.00958   0.00958   2.08452
    R9        3.16706   0.01301   0.00000   0.08263   0.08285   3.24991
   R10        2.73991   0.01017   0.00000   0.02483   0.02483   2.76474
   R11        1.83968   0.00525   0.00000   0.00813   0.00813   1.84781
   R12        2.93809  -0.00822   0.00000   0.25516   0.25486   3.19295
    A1        1.87753  -0.00411   0.00000  -0.04699  -0.04710   1.83043
    A2        1.93902  -0.00348   0.00000  -0.00876  -0.00957   1.92945
    A3        2.00014   0.00761   0.00000   0.05020   0.05022   2.05036
    A4        1.87745   0.00206   0.00000  -0.00692  -0.00766   1.86979
    A5        1.85787  -0.00231   0.00000   0.00670   0.00730   1.86518
    A6        1.90605  -0.00003   0.00000   0.00225   0.00196   1.90802
    A7        2.13160  -0.00389   0.00000  -0.03222  -0.03228   2.09933
    A8        2.05355  -0.00106   0.00000   0.01547   0.01539   2.06895
    A9        2.03765   0.00616   0.00000   0.02545   0.02540   2.06306
   A10        2.07101   0.01559   0.00000   0.03497   0.03522   2.10623
   A11        2.11652  -0.00745   0.00000  -0.03246  -0.03245   2.08407
   A12        1.12644   0.01935   0.00000  -0.03895  -0.04003   1.08641
   A13        2.08111  -0.00796   0.00000   0.00124   0.00092   2.08203
   A14        2.50208   0.00357   0.00000  -0.01982  -0.02203   2.48005
   A15        1.70578   0.00945   0.00000  -0.03433  -0.03433   1.67145
   A16        1.80084  -0.00355   0.00000   0.00329   0.00329   1.80413
    D1       -1.88534   0.00386   0.00000   0.05356   0.05303  -1.83231
    D2        1.63466  -0.00115   0.00000   0.02145   0.02096   1.65562
    D3        0.16525   0.00195   0.00000   0.01213   0.01227   0.17752
    D4       -2.59793  -0.00306   0.00000  -0.01997  -0.01981  -2.61774
    D5        2.33587   0.00499   0.00000   0.04718   0.04752   2.38339
    D6       -0.42732  -0.00002   0.00000   0.01507   0.01544  -0.41188
    D7        1.23594  -0.01623   0.00000  -0.10986  -0.10962   1.12631
    D8       -0.85424  -0.01100   0.00000  -0.07008  -0.07041  -0.92465
    D9       -2.89552  -0.01081   0.00000  -0.07267  -0.07257  -2.96809
   D10        0.47909   0.00257   0.00000  -0.03711  -0.03731   0.44177
   D11       -2.84636   0.00289   0.00000  -0.01331  -0.01236  -2.85872
   D12        1.01707  -0.00883   0.00000   0.02361   0.02279   1.03987
   D13       -3.03768   0.00609   0.00000  -0.00717  -0.00732  -3.04500
   D14       -0.07994   0.00641   0.00000   0.01663   0.01763  -0.06231
   D15       -2.49970  -0.00531   0.00000   0.05356   0.05278  -2.44691
   D16       -2.70232   0.00523   0.00000   0.04395   0.04395  -2.65837
         Item               Value     Threshold  Converged?
 Maximum Force            0.019346     0.000450     NO 
 RMS     Force            0.007971     0.000300     NO 
 Maximum Displacement     0.342586     0.001800     NO 
 RMS     Displacement     0.106472     0.001200     NO 
 Predicted change in Energy=-9.369838D-03
 GradGradGradGradGradGradGradGradGradGradGradGradGradGradGradGradGradGrad

                          Input orientation:                          
 ---------------------------------------------------------------------
 Center     Atomic      Atomic             Coordinates (Angstroms)
 Number     Number       Type             X           Y           Z
 ---------------------------------------------------------------------
      1          6           0        1.436402    1.315105   -2.617235
      2          6           0        0.461678    0.448247   -1.898497
      3          6           0        0.787673   -0.096678   -0.650224
      4          8           0        0.922750    2.668364   -2.456443
      5          8           0        1.085551    2.715705   -1.003262
      6          8           0        1.638690    0.466359    0.097454
      7          1           0        0.394178    3.345914   -0.718712
      8          1           0        2.415683    1.281226   -2.126982
      9          1           0        1.563185    1.149402   -3.690194
     10          1           0        0.191798   -0.935786   -0.253215
     11          1           0       -0.339152   -0.015624   -2.468091
     12          1           0        0.786977    1.616506   -0.800667
 ---------------------------------------------------------------------
                    Distance matrix (angstroms):
                    1          2          3          4          5
     1  C    0.000000
     2  C    1.489334   0.000000
     3  C    2.506614   1.400500   0.000000
     4  O    1.456367   2.335126   3.305470   0.000000
     5  O    2.165569   2.516353   2.850064   1.463038   0.000000
     6  O    2.851461   2.317219   1.265015   3.447287   2.564585
     7  H    2.968974   3.129365   3.465684   1.938600   0.977818
     8  H    1.095667   2.136397   2.594195   2.064351   2.256043
     9  H    1.093056   2.217006   3.375730   2.059015   3.146592
    10  H    3.493443   2.166872   1.103080   4.287004   3.833374
    11  H    2.223887   1.086712   2.140314   2.965860   3.411108
    12  H    1.952566   1.635811   1.719777   1.966325   1.156906
                    6          7          8          9         10
     6  O    0.000000
     7  H    3.241415   0.000000
     8  H    2.493159   3.214443   0.000000
     9  H    3.849484   3.875687   1.785430   0.000000
    10  H    2.045110   4.311682   3.656748   4.247533   0.000000
    11  H    3.275086   3.859797   3.063868   2.543562   2.456478
    12  H    1.689637   1.775348   2.127018   3.028209   2.677337
                   11         12
    11  H    0.000000
    12  H    2.590813   0.000000
 Stoichiometry    C3H6O3
 Framework group  C1[X(C3H6O3)]
 Deg. of freedom    30
 Full point group                 C1      NOp   1
 Largest Abelian subgroup         C1      NOp   1
 Largest concise Abelian subgroup C1      NOp   1
                         Standard orientation:                         
 ---------------------------------------------------------------------
 Center     Atomic      Atomic             Coordinates (Angstroms)
 Number     Number       Type             X           Y           Z
 ---------------------------------------------------------------------
      1          6           0       -0.707263    0.887697    0.553567
      2          6           0        0.414609    0.991978   -0.420417
      3          6           0        1.592647    0.261146   -0.221648
      4          8           0       -1.704997    0.061823   -0.112363
      5          8           0       -0.883975   -1.148048   -0.163512
      6          8           0        1.582250   -0.809009    0.452833
      7          1           0       -1.225707   -1.620157   -0.948662
      8          1           0       -0.388008    0.347091    1.451513
      9          1           0       -1.207446    1.813992    0.847789
     10          1           0        2.502832    0.538556   -0.779674
     11          1           0        0.450373    1.854223   -1.080869
     12          1           0        0.121776   -0.616762   -0.374772
 ---------------------------------------------------------------------
 Rotational constants (GHZ):           6.3383848           3.0969153           2.3932418
 Standard basis: 6-31+G(d) (6D, 7F)
 There are   126 symmetry adapted cartesian basis functions of A   symmetry.
 There are   126 symmetry adapted basis functions of A   symmetry.
   126 basis functions,   216 primitive gaussians,   126 cartesian basis functions
    24 alpha electrons       24 beta electrons
       nuclear repulsion energy       254.4768588124 Hartrees.
 NAtoms=   12 NActive=   12 NUniq=   12 SFac= 1.00D+00 NAtFMM=   60 NAOKFM=F Big=F
 Integral buffers will be    131072 words long.
 Raffenetti 2 integral format.
 Two-electron integral symmetry is turned on.
 One-electron integrals computed using PRISM.
 NBasis=   126 RedAO= T EigKep=  1.22D-04  NBF=   126
 NBsUse=   126 1.00D-06 EigRej= -1.00D+00 NBFU=   126
 Initial guess from the checkpoint file:  "/scratch/bell/zhao922/YARP/paper-example/KHP-network/pp_0/TS-folder/Gau-19292.chk"
 B after Tr=    -0.000000   -0.000000   -0.000000
         Rot=    0.999336    0.010094    0.001917   -0.034957 Ang=   4.18 deg.
 ExpMin= 4.38D-02 ExpMax= 5.48D+03 ExpMxC= 8.25D+02 IAcc=3 IRadAn=         5 AccDes= 0.00D+00
 Harris functional with IExCor=  402 and IRadAn=       5 diagonalized for initial guess.
 HarFok:  IExCor=  402 AccDes= 0.00D+00 IRadAn=         5 IDoV= 1 UseB2=F ITyADJ=14
 ICtDFT=  3500011 ScaDFX=  1.000000  1.000000  1.000000  1.000000
 FoFCou: FMM=F IPFlag=           0 FMFlag=      100000 FMFlg1=           0
         NFxFlg=           0 DoJE=T BraDBF=F KetDBF=T FulRan=T
         wScrn=  0.000000 ICntrl=       500 IOpCl=  0 I1Cent=   200000004 NGrid=           0
         NMat0=    1 NMatS0=      1 NMatT0=    0 NMatD0=    1 NMtDS0=    0 NMtDT0=    0
 Petite list used in FoFCou.
 Keep R1 ints in memory in canonical form, NReq=47237537.
 Requested convergence on RMS density matrix=1.00D-08 within 128 cycles.
 Requested convergence on MAX density matrix=1.00D-06.
 Requested convergence on             energy=1.00D-06.
 No special actions if energy rises.
 SCF Done:  E(RB3LYP) =  -343.377078960     A.U. after   13 cycles
            NFock= 13  Conv=0.55D-08     -V/T= 2.0083
 DoSCS=F DFT=T ScalE2(SS,OS)=  1.000000  1.000000
 Range of M.O.s used for correlation:     1   126
 NBasis=   126 NAE=    24 NBE=    24 NFC=     0 NFV=     0
 NROrb=    126 NOA=    24 NOB=    24 NVA=   102 NVB=   102

 **** Warning!!: The largest alpha MO coefficient is  0.32829545D+02

 Symmetrizing basis deriv contribution to polar:
 IMax=3 JMax=2 DiffMx= 0.00D+00
 G2DrvN: will do    13 centers at a time, making    1 passes.
 Calling FoFCou, ICntrl=  3107 FMM=F I1Cent=   0 AccDes= 0.00D+00.
 End of G2Drv F.D. properties file   721 does not exist.
 End of G2Drv F.D. properties file   722 does not exist.
 End of G2Drv F.D. properties file   788 does not exist.
          IDoAtm=111111111111
          Differentiating once with respect to electric field.
                with respect to dipole field.
          Differentiating once with respect to nuclear coordinates.
 Keep R1 ints in memory in canonical form, NReq=47193552.
          There are    39 degrees of freedom in the 1st order CPHF.  IDoFFX=6 NUNeed=     3.
     36 vectors produced by pass  0 Test12= 6.28D-15 2.56D-09 XBig12= 7.19D+01 4.71D+00.
 AX will form    36 AO Fock derivatives at one time.
     36 vectors produced by pass  1 Test12= 6.28D-15 2.56D-09 XBig12= 1.57D+01 6.36D-01.
     36 vectors produced by pass  2 Test12= 6.28D-15 2.56D-09 XBig12= 2.66D-01 8.44D-02.
     36 vectors produced by pass  3 Test12= 6.28D-15 2.56D-09 XBig12= 2.37D-03 7.81D-03.
     36 vectors produced by pass  4 Test12= 6.28D-15 2.56D-09 XBig12= 5.32D-06 3.32D-04.
     30 vectors produced by pass  5 Test12= 6.28D-15 2.56D-09 XBig12= 4.80D-09 9.95D-06.
      4 vectors produced by pass  6 Test12= 6.28D-15 2.56D-09 XBig12= 4.39D-12 2.90D-07.
      1 vectors produced by pass  7 Test12= 6.28D-15 2.56D-09 XBig12= 4.26D-15 9.45D-09.
 InvSVY:  IOpt=1 It=  1 EMax= 4.44D-15
 Solved reduced A of dimension   215 with    39 vectors.
 Isotropic polarizability for W=    0.000000       56.92 Bohr**3.
 End of Minotr F.D. properties file   721 does not exist.
 End of Minotr F.D. properties file   722 does not exist.
 End of Minotr F.D. properties file   788 does not exist.
 Calling FoFJK, ICntrl=    100127 FMM=F ISym2X=0 I1Cent= 0 IOpClX= 0 NMat=1 NMatS=1 NMatT=0.
 ***** Axes restored to original set *****
 -------------------------------------------------------------------
 Center     Atomic                   Forces (Hartrees/Bohr)
 Number     Number              X              Y              Z
 -------------------------------------------------------------------
      1        6          -0.002320361   -0.023116627   -0.003158655
      2        6           0.003794086   -0.026338415   -0.015730223
      3        6          -0.001044965    0.001259746    0.002953205
      4        8           0.012404778    0.021592932   -0.008665395
      5        8          -0.004533581    0.010337986    0.010011106
      6        8           0.009653573   -0.008729855    0.015672113
      7        1          -0.004834059   -0.000130039    0.000899848
      8        1           0.002179484    0.001388736   -0.004195894
      9        1          -0.007111245    0.004196214   -0.001184382
     10        1          -0.000524256   -0.002596099   -0.000949081
     11        1          -0.002823858    0.003608691    0.000046880
     12        1          -0.004839595    0.018526731    0.004300478
 -------------------------------------------------------------------
 Cartesian Forces:  Max     0.026338415 RMS     0.009699235
 FormGI is forming the generalized inverse of G from B-inverse, IUseBI=4.

 GradGradGradGradGradGradGradGradGradGradGradGradGradGradGradGradGradGrad
 Berny optimization.
 Internal  Forces:  Max     0.036206766 RMS     0.011428910
 Search for a saddle point.
 Step number   3 out of a maximum of  100
 All quantities printed in internal units (Hartrees-Bohrs-Radians)
 Swapping is turned off.
 Second derivative matrix not updated -- analytic derivatives used.
 ITU=  0  0  0
     Eigenvalues ---   -0.16609   0.00642   0.00988   0.02136   0.02727
     Eigenvalues ---    0.03426   0.05468   0.06122   0.07715   0.09275
     Eigenvalues ---    0.09807   0.12221   0.13875   0.14324   0.16213
     Eigenvalues ---    0.18360   0.20503   0.22904   0.28484   0.30109
     Eigenvalues ---    0.31846   0.33960   0.35123   0.36084   0.36288
     Eigenvalues ---    0.48506   0.58037   0.64108   1.07783   2.12302
 Eigenvectors required to have negative eigenvalues:
                          R12       A12       R9        D12       D15
   1                   -0.57155   0.49316   0.45641  -0.27900  -0.19876
                          R7        R5        A10       D1        D10
   1                    0.12055  -0.10076   0.10046   0.09439  -0.09225
 RFO step:  Lambda0=1.393096199D-03 Lambda=-2.27616803D-02.
 Linear search not attempted -- option 19 set.
 Maximum step size (   0.300) exceeded in Quadratic search.
    -- Step size scaled by   0.635
 Iteration  1 RMS(Cart)=  0.05262619 RMS(Int)=  0.00407094
 Iteration  2 RMS(Cart)=  0.00515261 RMS(Int)=  0.00029095
 Iteration  3 RMS(Cart)=  0.00001633 RMS(Int)=  0.00029071
 Iteration  4 RMS(Cart)=  0.00000000 RMS(Int)=  0.00029071
 Variable       Old X    -DE/DX   Delta X   Delta X   Delta X     New X
                                 (Linear)    (Quad)   (Total)
    R1        2.81443   0.00858   0.00000  -0.01919  -0.01919   2.79524
    R2        2.75213   0.02873   0.00000   0.05989   0.05989   2.81202
    R3        2.07051   0.00003   0.00000  -0.00026  -0.00026   2.07025
    R4        2.06558  -0.00030   0.00000  -0.00004  -0.00004   2.06554
    R5        2.64656   0.01705   0.00000   0.01522   0.01522   2.66178
    R6        2.05359   0.00052   0.00000  -0.00050  -0.00050   2.05309
    R7        2.39053   0.00971   0.00000  -0.00525  -0.00536   2.38517
    R8        2.08452   0.00192   0.00000   0.00591   0.00591   2.09042
    R9        3.24991   0.01360   0.00000   0.14956   0.14933   3.39924
   R10        2.76474   0.01013   0.00000   0.03155   0.03155   2.79629
   R11        1.84781   0.00360   0.00000   0.00437   0.00437   1.85218
   R12        3.19295   0.00618   0.00000   0.22474   0.22504   3.41799
    A1        1.83043   0.02829   0.00000   0.04509   0.04513   1.87557
    A2        1.92945  -0.00232   0.00000   0.01401   0.01400   1.94345
    A3        2.05036  -0.00621   0.00000  -0.00113  -0.00082   2.04954
    A4        1.86979  -0.00603   0.00000  -0.02512  -0.02568   1.84411
    A5        1.86518  -0.01623   0.00000  -0.05433  -0.05441   1.81076
    A6        1.90802   0.00264   0.00000   0.01626   0.01556   1.92357
    A7        2.09933   0.01183   0.00000  -0.00380  -0.00414   2.09519
    A8        2.06895  -0.00722   0.00000   0.00704   0.00668   2.07562
    A9        2.06306  -0.00395   0.00000   0.01154   0.01120   2.07426
   A10        2.10623   0.01819   0.00000   0.03790   0.03736   2.14359
   A11        2.08407  -0.00915   0.00000  -0.02851  -0.02847   2.05560
   A12        1.08641   0.02485   0.00000   0.01150   0.01202   1.09843
   A13        2.08203  -0.00795   0.00000  -0.00487  -0.00486   2.07717
   A14        2.48005  -0.00577   0.00000  -0.03579  -0.03600   2.44405
   A15        1.67145   0.03621   0.00000   0.03268   0.03268   1.70413
   A16        1.80413  -0.00091   0.00000  -0.01307  -0.01307   1.79106
    D1       -1.83231  -0.00336   0.00000   0.05225   0.05206  -1.78025
    D2        1.65562  -0.00464   0.00000   0.00227   0.00210   1.65772
    D3        0.17752   0.00376   0.00000   0.05382   0.05396   0.23148
    D4       -2.61774   0.00247   0.00000   0.00383   0.00400  -2.61373
    D5        2.38339   0.00007   0.00000   0.08871   0.08872   2.47211
    D6       -0.41188  -0.00122   0.00000   0.03873   0.03877  -0.37311
    D7        1.12631  -0.00319   0.00000  -0.09040  -0.09030   1.03602
    D8       -0.92465  -0.01150   0.00000  -0.11677  -0.11600  -1.04066
    D9       -2.96809  -0.00342   0.00000  -0.09586  -0.09673  -3.06483
   D10        0.44177  -0.00284   0.00000  -0.03599  -0.03586   0.40591
   D11       -2.85872   0.00433   0.00000  -0.00372  -0.00367  -2.86239
   D12        1.03987   0.00291   0.00000   0.02994   0.02964   1.06950
   D13       -3.04500  -0.00221   0.00000   0.01297   0.01318  -3.03183
   D14       -0.06231   0.00496   0.00000   0.04524   0.04538  -0.01694
   D15       -2.44691   0.00354   0.00000   0.07890   0.07868  -2.36823
   D16       -2.65837   0.00597   0.00000   0.09652   0.09652  -2.56185
         Item               Value     Threshold  Converged?
 Maximum Force            0.036207     0.000450     NO 
 RMS     Force            0.011429     0.000300     NO 
 Maximum Displacement     0.156581     0.001800     NO 
 RMS     Displacement     0.053494     0.001200     NO 
 Predicted change in Energy=-1.098531D-02
 GradGradGradGradGradGradGradGradGradGradGradGradGradGradGradGradGradGrad

                          Input orientation:                          
 ---------------------------------------------------------------------
 Center     Atomic      Atomic             Coordinates (Angstroms)
 Number     Number       Type             X           Y           Z
 ---------------------------------------------------------------------
      1          6           0        1.446338    1.286394   -2.620059
      2          6           0        0.477522    0.428191   -1.903927
      3          6           0        0.804373   -0.102155   -0.640629
      4          8           0        1.005609    2.697221   -2.447885
      5          8           0        1.060478    2.741467   -0.969832
      6          8           0        1.667705    0.419808    0.117859
      7          1           0        0.326511    3.351432   -0.746458
      8          1           0        2.441466    1.229882   -2.165401
      9          1           0        1.519138    1.167432   -3.704163
     10          1           0        0.191197   -0.940011   -0.258917
     11          1           0       -0.346517   -0.010805   -2.459456
     12          1           0        0.751594    1.689885   -0.787199
 ---------------------------------------------------------------------
                    Distance matrix (angstroms):
                    1          2          3          4          5
     1  C    0.000000
     2  C    1.479176   0.000000
     3  C    2.501666   1.408552   0.000000
     4  O    1.488059   2.392335   3.338140   0.000000
     5  O    2.233691   2.561955   2.874048   1.479733   0.000000
     6  O    2.880307   2.346108   1.262178   3.493998   2.634748
     7  H    3.004792   3.147678   3.488096   1.945256   0.980133
     8  H    1.095530   2.137324   2.603714   2.072332   2.370949
     9  H    1.093038   2.207327   3.392341   2.045042   3.188184
    10  H    3.479547   2.158706   1.106205   4.322534   3.848938
    11  H    2.218749   1.086449   2.154304   3.026844   3.431271
    12  H    2.001212   1.707064   1.798798   1.958859   1.111120
                    6          7          8          9         10
     6  O    0.000000
     7  H    3.337704   0.000000
     8  H    2.543266   3.314725   0.000000
     9  H    3.897289   3.865259   1.795098   0.000000
    10  H    2.042338   4.321167   3.661533   4.251407   0.000000
    11  H    3.299254   3.833010   3.065717   2.533418   2.448455
    12  H    1.808725   1.715545   2.228611   3.061169   2.740342
                   11         12
    11  H    0.000000
    12  H    2.625764   0.000000
 Stoichiometry    C3H6O3
 Framework group  C1[X(C3H6O3)]
 Deg. of freedom    30
 Full point group                 C1      NOp   1
 Largest Abelian subgroup         C1      NOp   1
 Largest concise Abelian subgroup C1      NOp   1
                         Standard orientation:                         
 ---------------------------------------------------------------------
 Center     Atomic      Atomic             Coordinates (Angstroms)
 Number     Number       Type             X           Y           Z
 ---------------------------------------------------------------------
      1          6           0       -0.680728    0.934898    0.530641
      2          6           0        0.432817    0.997002   -0.441019
      3          6           0        1.597063    0.233011   -0.229198
      4          8           0       -1.731551    0.055766   -0.050062
      5          8           0       -0.911595   -1.168689   -0.184202
      6          8           0        1.611535   -0.808515    0.483619
      7          1           0       -1.280125   -1.585887   -0.990918
      8          1           0       -0.370506    0.449198    1.462330
      9          1           0       -1.211518    1.865277    0.748330
     10          1           0        2.500651    0.498646   -0.809418
     11          1           0        0.468279    1.821532   -1.147606
     12          1           0        0.051198   -0.666727   -0.420111
 ---------------------------------------------------------------------
 Rotational constants (GHZ):           6.1568749           3.0167675           2.3317648
 Standard basis: 6-31+G(d) (6D, 7F)
 There are   126 symmetry adapted cartesian basis functions of A   symmetry.
 There are   126 symmetry adapted basis functions of A   symmetry.
   126 basis functions,   216 primitive gaussians,   126 cartesian basis functions
    24 alpha electrons       24 beta electrons
       nuclear repulsion energy       251.7459675900 Hartrees.
 NAtoms=   12 NActive=   12 NUniq=   12 SFac= 1.00D+00 NAtFMM=   60 NAOKFM=F Big=F
 Integral buffers will be    131072 words long.
 Raffenetti 2 integral format.
 Two-electron integral symmetry is turned on.
 One-electron integrals computed using PRISM.
 NBasis=   126 RedAO= T EigKep=  1.22D-04  NBF=   126
 NBsUse=   126 1.00D-06 EigRej= -1.00D+00 NBFU=   126
 Initial guess from the checkpoint file:  "/scratch/bell/zhao922/YARP/paper-example/KHP-network/pp_0/TS-folder/Gau-19292.chk"
 B after Tr=    -0.000000    0.000000    0.000000
         Rot=    0.999942    0.009455   -0.003140    0.004093 Ang=   1.23 deg.
 ExpMin= 4.38D-02 ExpMax= 5.48D+03 ExpMxC= 8.25D+02 IAcc=3 IRadAn=         5 AccDes= 0.00D+00
 Harris functional with IExCor=  402 and IRadAn=       5 diagonalized for initial guess.
 HarFok:  IExCor=  402 AccDes= 0.00D+00 IRadAn=         5 IDoV= 1 UseB2=F ITyADJ=14
 ICtDFT=  3500011 ScaDFX=  1.000000  1.000000  1.000000  1.000000
 FoFCou: FMM=F IPFlag=           0 FMFlag=      100000 FMFlg1=           0
         NFxFlg=           0 DoJE=T BraDBF=F KetDBF=T FulRan=T
         wScrn=  0.000000 ICntrl=       500 IOpCl=  0 I1Cent=   200000004 NGrid=           0
         NMat0=    1 NMatS0=      1 NMatT0=    0 NMatD0=    1 NMtDS0=    0 NMtDT0=    0
 Petite list used in FoFCou.
 Keep R1 ints in memory in canonical form, NReq=47237537.
 Requested convergence on RMS density matrix=1.00D-08 within 128 cycles.
 Requested convergence on MAX density matrix=1.00D-06.
 Requested convergence on             energy=1.00D-06.
 No special actions if energy rises.
 SCF Done:  E(RB3LYP) =  -343.388110353     A.U. after   13 cycles
            NFock= 13  Conv=0.56D-08     -V/T= 2.0087
 DoSCS=F DFT=T ScalE2(SS,OS)=  1.000000  1.000000
 Range of M.O.s used for correlation:     1   126
 NBasis=   126 NAE=    24 NBE=    24 NFC=     0 NFV=     0
 NROrb=    126 NOA=    24 NOB=    24 NVA=   102 NVB=   102

 **** Warning!!: The largest alpha MO coefficient is  0.32567503D+02

 Symmetrizing basis deriv contribution to polar:
 IMax=3 JMax=2 DiffMx= 0.00D+00
 G2DrvN: will do    13 centers at a time, making    1 passes.
 Calling FoFCou, ICntrl=  3107 FMM=F I1Cent=   0 AccDes= 0.00D+00.
 End of G2Drv F.D. properties file   721 does not exist.
 End of G2Drv F.D. properties file   722 does not exist.
 End of G2Drv F.D. properties file   788 does not exist.
          IDoAtm=111111111111
          Differentiating once with respect to electric field.
                with respect to dipole field.
          Differentiating once with respect to nuclear coordinates.
 Keep R1 ints in memory in canonical form, NReq=47193552.
          There are    39 degrees of freedom in the 1st order CPHF.  IDoFFX=6 NUNeed=     3.
     36 vectors produced by pass  0 Test12= 6.28D-15 2.56D-09 XBig12= 7.84D+01 4.70D+00.
 AX will form    36 AO Fock derivatives at one time.
     36 vectors produced by pass  1 Test12= 6.28D-15 2.56D-09 XBig12= 1.80D+01 6.54D-01.
     36 vectors produced by pass  2 Test12= 6.28D-15 2.56D-09 XBig12= 3.24D-01 1.11D-01.
     36 vectors produced by pass  3 Test12= 6.28D-15 2.56D-09 XBig12= 2.82D-03 8.48D-03.
     36 vectors produced by pass  4 Test12= 6.28D-15 2.56D-09 XBig12= 6.25D-06 3.55D-04.
     31 vectors produced by pass  5 Test12= 6.28D-15 2.56D-09 XBig12= 5.51D-09 1.04D-05.
      3 vectors produced by pass  6 Test12= 6.28D-15 2.56D-09 XBig12= 4.78D-12 2.89D-07.
      1 vectors produced by pass  7 Test12= 6.28D-15 2.56D-09 XBig12= 4.92D-15 1.16D-08.
 InvSVY:  IOpt=1 It=  1 EMax= 3.55D-15
 Solved reduced A of dimension   215 with    39 vectors.
 Isotropic polarizability for W=    0.000000       58.12 Bohr**3.
 End of Minotr F.D. properties file   721 does not exist.
 End of Minotr F.D. properties file   722 does not exist.
 End of Minotr F.D. properties file   788 does not exist.
 Calling FoFJK, ICntrl=    100127 FMM=F ISym2X=0 I1Cent= 0 IOpClX= 0 NMat=1 NMatS=1 NMatT=0.
 ***** Axes restored to original set *****
 -------------------------------------------------------------------
 Center     Atomic                   Forces (Hartrees/Bohr)
 Number     Number              X              Y              Z
 -------------------------------------------------------------------
      1        6          -0.000847855   -0.012647578    0.000229044
      2        6           0.004241293   -0.014940614   -0.009274581
      3        6          -0.001309739   -0.000158929    0.002825570
      4        8           0.008413745    0.011344332   -0.003188758
      5        8          -0.003850634    0.006678121    0.004878812
      6        8           0.005920638   -0.006514508    0.008321540
      7        1          -0.002504270   -0.000712642    0.000006182
      8        1           0.001391476    0.000477324   -0.003421020
      9        1          -0.005057120    0.002955679   -0.000665174
     10        1          -0.000250765   -0.001230403   -0.000599716
     11        1          -0.001886827    0.002192200    0.000667306
     12        1          -0.004259941    0.012557019    0.000220794
 -------------------------------------------------------------------
 Cartesian Forces:  Max     0.014940614 RMS     0.005723559
 FormGI is forming the generalized inverse of G from B-inverse, IUseBI=4.

 GradGradGradGradGradGradGradGradGradGradGradGradGradGradGradGradGradGrad
 Berny optimization.
 Internal  Forces:  Max     0.021251639 RMS     0.006193320
 Search for a saddle point.
 Step number   4 out of a maximum of  100
 All quantities printed in internal units (Hartrees-Bohrs-Radians)
 Swapping is turned off.
 Second derivative matrix not updated -- analytic derivatives used.
 ITU=  0  0  0  0
     Eigenvalues ---   -0.11435   0.00754   0.01032   0.01821   0.02876
     Eigenvalues ---    0.03118   0.05197   0.05827   0.07590   0.09069
     Eigenvalues ---    0.09571   0.11990   0.13111   0.14160   0.15188
     Eigenvalues ---    0.17530   0.18642   0.21184   0.26626   0.30816
     Eigenvalues ---    0.31154   0.34050   0.35016   0.35507   0.36228
     Eigenvalues ---    0.47643   0.59039   0.64531   1.13360   3.04892
 Eigenvectors required to have negative eigenvalues:
                          R12       A12       R9        D12       D15
   1                   -0.59441   0.46624   0.42381  -0.29348  -0.20545
                          R7        A14       D7        D5        R5
   1                    0.10683   0.10126   0.09611   0.09596  -0.09269
 RFO step:  Lambda0=3.470890850D-04 Lambda=-1.19252247D-02.
 Linear search not attempted -- option 19 set.
 Maximum step size (   0.300) exceeded in Quadratic search.
    -- Step size scaled by   0.816
 Iteration  1 RMS(Cart)=  0.06164102 RMS(Int)=  0.00295948
 Iteration  2 RMS(Cart)=  0.00517255 RMS(Int)=  0.00034984
 Iteration  3 RMS(Cart)=  0.00002150 RMS(Int)=  0.00034966
 Iteration  4 RMS(Cart)=  0.00000001 RMS(Int)=  0.00034966
 Variable       Old X    -DE/DX   Delta X   Delta X   Delta X     New X
                                 (Linear)    (Quad)   (Total)
    R1        2.79524   0.00413   0.00000  -0.02148  -0.02148   2.77376
    R2        2.81202   0.01600   0.00000   0.06739   0.06739   2.87941
    R3        2.07025  -0.00018   0.00000  -0.00243  -0.00243   2.06782
    R4        2.06554   0.00000   0.00000   0.00130   0.00130   2.06685
    R5        2.66178   0.00793   0.00000   0.01083   0.01083   2.67261
    R6        2.05309   0.00020   0.00000  -0.00015  -0.00015   2.05294
    R7        2.38517   0.00429   0.00000  -0.00329  -0.00342   2.38175
    R8        2.09042   0.00086   0.00000   0.00370   0.00370   2.09412
    R9        3.39924   0.00825   0.00000   0.17155   0.17127   3.57051
   R10        2.79629   0.00482   0.00000   0.02334   0.02334   2.81963
   R11        1.85218   0.00143   0.00000   0.00182   0.00182   1.85401
   R12        3.41799   0.00578   0.00000   0.20564   0.20599   3.62399
    A1        1.87557   0.01507   0.00000   0.04584   0.04568   1.92124
    A2        1.94345  -0.00075   0.00000   0.02412   0.02387   1.96732
    A3        2.04954  -0.00334   0.00000  -0.01132  -0.01095   2.03859
    A4        1.84411  -0.00316   0.00000  -0.01897  -0.01988   1.82423
    A5        1.81076  -0.00924   0.00000  -0.06344  -0.06339   1.74738
    A6        1.92357   0.00137   0.00000   0.01695   0.01633   1.93991
    A7        2.09519   0.00630   0.00000   0.00450   0.00390   2.09909
    A8        2.07562  -0.00336   0.00000   0.00640   0.00580   2.08142
    A9        2.07426  -0.00248   0.00000   0.00554   0.00494   2.07919
   A10        2.14359   0.00829   0.00000   0.02563   0.02505   2.16864
   A11        2.05560  -0.00432   0.00000  -0.01944  -0.01941   2.03620
   A12        1.09843   0.01105   0.00000   0.01664   0.01728   1.11572
   A13        2.07717  -0.00355   0.00000  -0.00255  -0.00251   2.07466
   A14        2.44405  -0.00269   0.00000  -0.02702  -0.02704   2.41701
   A15        1.70413   0.02125   0.00000   0.04298   0.04298   1.74711
   A16        1.79106  -0.00080   0.00000  -0.01342  -0.01342   1.77764
    D1       -1.78025  -0.00173   0.00000   0.05475   0.05442  -1.72583
    D2        1.65772  -0.00304   0.00000  -0.00849  -0.00888   1.64884
    D3        0.23148   0.00284   0.00000   0.07148   0.07182   0.30331
    D4       -2.61373   0.00153   0.00000   0.00824   0.00853  -2.60521
    D5        2.47211   0.00106   0.00000   0.10917   0.10924   2.58135
    D6       -0.37311  -0.00025   0.00000   0.04593   0.04594  -0.32717
    D7        1.03602  -0.00228   0.00000  -0.09905  -0.09890   0.93712
    D8       -1.04066  -0.00724   0.00000  -0.13992  -0.13923  -1.17988
    D9       -3.06483  -0.00349   0.00000  -0.12374  -0.12459   3.09377
   D10        0.40591  -0.00200   0.00000  -0.04025  -0.04005   0.36586
   D11       -2.86239   0.00162   0.00000  -0.00695  -0.00696  -2.86935
   D12        1.06950   0.00126   0.00000   0.01629   0.01607   1.08557
   D13       -3.03183  -0.00084   0.00000   0.02309   0.02331  -3.00852
   D14       -0.01694   0.00278   0.00000   0.05638   0.05640   0.03946
   D15       -2.36823   0.00242   0.00000   0.07963   0.07943  -2.28880
   D16       -2.56185   0.00385   0.00000   0.12030   0.12030  -2.44155
         Item               Value     Threshold  Converged?
 Maximum Force            0.021252     0.000450     NO 
 RMS     Force            0.006193     0.000300     NO 
 Maximum Displacement     0.170888     0.001800     NO 
 RMS     Displacement     0.062335     0.001200     NO 
 Predicted change in Energy=-6.668314D-03
 GradGradGradGradGradGradGradGradGradGradGradGradGradGradGradGradGradGrad

                          Input orientation:                          
 ---------------------------------------------------------------------
 Center     Atomic      Atomic             Coordinates (Angstroms)
 Number     Number       Type             X           Y           Z
 ---------------------------------------------------------------------
      1          6           0        1.460668    1.256168   -2.616890
      2          6           0        0.499861    0.403388   -1.906900
      3          6           0        0.816958   -0.119020   -0.631464
      4          8           0        1.096040    2.723658   -2.429183
      5          8           0        1.028493    2.788135   -0.940024
      6          8           0        1.691626    0.365164    0.136034
      7          1           0        0.246169    3.363023   -0.798518
      8          1           0        2.475890    1.172436   -2.217286
      9          1           0        1.460268    1.196266   -3.708976
     10          1           0        0.187189   -0.954178   -0.265505
     11          1           0       -0.351853   -0.000484   -2.446959
     12          1           0        0.734105    1.764185   -0.760397
 ---------------------------------------------------------------------
                    Distance matrix (angstroms):
                    1          2          3          4          5
     1  C    0.000000
     2  C    1.467811   0.000000
     3  C    2.499485   1.414283   0.000000
     4  O    1.523717   2.451910   3.374982   0.000000
     5  O    2.312051   2.627036   2.931128   1.492084   0.000000
     6  O    2.902727   2.365448   1.260370   3.535189   2.732844
     7  H    3.036499   3.170538   3.532469   1.946827   0.981097
     8  H    1.094244   2.143003   2.633391   2.086906   2.517309
[...]
    D1       -1.64931   0.00000   0.00000  -0.00030  -0.00030  -1.64960
    D2        1.59455   0.00000   0.00000  -0.00031  -0.00031   1.59424
    D3       -0.02145   0.00000   0.00000  -0.00003  -0.00003  -0.02147
    D4       -3.06078   0.00000   0.00000  -0.00004  -0.00004  -3.06082
    D5        3.07344   0.00000   0.00000   0.00004   0.00004   3.07348
    D6        0.03411   0.00000   0.00000   0.00003   0.00003   0.03414
    D7        0.50160   0.00001   0.00000   0.00028   0.00028   0.50188
    D8       -1.59777   0.00000   0.00000   0.00021   0.00021  -1.59756
    D9        2.59123   0.00000   0.00000   0.00018   0.00018   2.59141
   D10        0.35640   0.00000   0.00000  -0.00009  -0.00009   0.35631
   D11       -2.79157  -0.00000   0.00000  -0.00008  -0.00008  -2.79165
   D12        1.24309   0.00000   0.00000  -0.00003  -0.00003   1.24307
   D13       -2.88357   0.00000   0.00000  -0.00008  -0.00008  -2.88365
   D14        0.25165   0.00000   0.00000  -0.00007  -0.00007   0.25158
   D15       -1.99688   0.00000   0.00000  -0.00001  -0.00001  -1.99689
   D16       -2.09679   0.00001   0.00000  -0.00015  -0.00015  -2.09694
         Item               Value     Threshold  Converged?
 Maximum Force            0.000006     0.000450     YES
 RMS     Force            0.000002     0.000300     YES
 Maximum Displacement     0.000884     0.001800     YES
 RMS     Displacement     0.000303     0.001200     YES
 Predicted change in Energy=-3.142995D-09
 Optimization completed.
    -- Stationary point found.
                           ----------------------------
                           !   Optimized Parameters   !
                           ! (Angstroms and Degrees)  !
 --------------------------                            --------------------------
 ! Name  Definition              Value          Derivative Info.                !
 --------------------------------------------------------------------------------
 ! R1    R(1,2)                  1.3529         -DE/DX =    0.0                 !
 ! R2    R(1,4)                  2.6763         -DE/DX =    0.0                 !
 ! R3    R(1,8)                  1.0859         -DE/DX =    0.0                 !
 ! R4    R(1,9)                  1.0833         -DE/DX =    0.0                 !
 ! R5    R(2,3)                  1.479          -DE/DX =    0.0                 !
 ! R6    R(2,11)                 1.0897         -DE/DX =    0.0                 !
 ! R7    R(3,6)                  1.2221         -DE/DX =    0.0                 !
 ! R8    R(3,10)                 1.1102         -DE/DX =    0.0                 !
 ! R9    R(3,12)                 2.6113         -DE/DX =    0.0                 !
 ! R10   R(4,5)                  1.5166         -DE/DX =    0.0                 !
 ! R11   R(5,7)                  0.9757         -DE/DX =    0.0                 !
 ! R12   R(6,12)                 2.7096         -DE/DX =    0.0                 !
 ! A1    A(2,1,4)              111.8089         -DE/DX =    0.0                 !
 ! A2    A(2,1,8)              121.1812         -DE/DX =    0.0                 !
 ! A3    A(2,1,9)              121.7635         -DE/DX =    0.0                 !
 ! A4    A(4,1,8)               81.544          -DE/DX =    0.0                 !
 ! A5    A(4,1,9)               78.2439         -DE/DX =    0.0                 !
 ! A6    A(8,1,9)              117.0042         -DE/DX =    0.0                 !
 ! A7    A(1,2,3)              122.6846         -DE/DX =    0.0                 !
 ! A8    A(1,2,11)             120.5699         -DE/DX =    0.0                 !
 ! A9    A(3,2,11)             116.5028         -DE/DX =    0.0                 !
 ! A10   A(2,3,6)              124.7871         -DE/DX =    0.0                 !
 ! A11   A(2,3,10)             115.2988         -DE/DX =    0.0                 !
 ! A12   A(2,3,12)              59.0744         -DE/DX =    0.0                 !
 ! A13   A(6,3,10)             119.9131         -DE/DX =    0.0                 !
 ! A14   A(10,3,12)            134.9037         -DE/DX =    0.0                 !
 ! A15   A(1,4,5)               86.749          -DE/DX =    0.0                 !
 ! A16   A(4,5,7)              102.8105         -DE/DX =    0.0                 !
 ! D1    D(4,1,2,3)            -94.4982         -DE/DX =    0.0                 !
 ! D2    D(4,1,2,11)            91.361          -DE/DX =    0.0                 !
 ! D3    D(8,1,2,3)             -1.2289         -DE/DX =    0.0                 !
 ! D4    D(8,1,2,11)          -175.3696         -DE/DX =    0.0                 !
 ! D5    D(9,1,2,3)            176.0952         -DE/DX =    0.0                 !
 ! D6    D(9,1,2,11)             1.9545         -DE/DX =    0.0                 !
 ! D7    D(2,1,4,5)             28.7396         -DE/DX =    0.0                 !
 ! D8    D(8,1,4,5)            -91.5452         -DE/DX =    0.0                 !
 ! D9    D(9,1,4,5)            148.4666         -DE/DX =    0.0                 !
 ! D10   D(1,2,3,6)             20.4203         -DE/DX =    0.0                 !
 ! D11   D(1,2,3,10)          -159.945          -DE/DX =    0.0                 !
 ! D12   D(1,2,3,12)            71.2241         -DE/DX =    0.0                 !
 ! D13   D(11,2,3,6)          -165.2163         -DE/DX =    0.0                 !
 ! D14   D(11,2,3,10)           14.4185         -DE/DX =    0.0                 !
 ! D15   D(11,2,3,12)         -114.4125         -DE/DX =    0.0                 !
 ! D16   D(1,4,5,7)           -120.1371         -DE/DX =    0.0                 !
 --------------------------------------------------------------------------------
 GradGradGradGradGradGradGradGradGradGradGradGradGradGradGradGradGradGrad


 ----------------------------------------------------------------------

 Electric dipole moment (input orientation):
 (Debye = 10**-18 statcoulomb cm , SI units = C m)
                  (au)            (Debye)         (10**-30 SI)
   Tot        0.181169D+01      0.460486D+01      0.153602D+02
   x         -0.170710D+01     -0.433901D+01     -0.144734D+02
   y         -0.605826D+00     -0.153986D+01     -0.513640D+01
   z         -0.317875D-01     -0.807957D-01     -0.269505D+00

 Dipole polarizability, Alpha (input orientation).
 (esu units = cm**3 , SI units = C**2 m**2 J**-1)
 Alpha(0;0):
               (au)            (10**-24 esu)      (10**-40 SI)
   iso        0.582187D+02      0.862713D+01      0.959897D+01
   aniso      0.266601D+02      0.395063D+01      0.439566D+01
   xx         0.488657D+02      0.724115D+01      0.805686D+01
   yx         0.715476D+01      0.106023D+01      0.117966D+01
   yy         0.659725D+02      0.977612D+01      0.108774D+02
   zx        -0.201348D+01     -0.298366D+00     -0.331977D+00
   zy        -0.103246D+02     -0.152995D+01     -0.170230D+01
   zz         0.598180D+02      0.886411D+01      0.986266D+01

 ----------------------------------------------------------------------

 Dipole orientation:
     6         -4.95273253         -1.21136217         -3.13840964
     6         -3.41927435         -1.27904435         -1.09386146
     6         -0.64495532         -1.54995277         -1.29636932
     8         -5.93052694          3.53133785         -4.59754616
     8         -3.37244122          4.22148663         -3.50520942
     8          0.59075391         -1.07398095         -3.18841312
     1         -3.80142532          5.46646720         -2.21456229
     1         -4.19182823         -1.31810544         -5.04115683
     1         -6.99010083         -1.13025324         -2.95522978
     1          0.31859034         -2.22916461          0.43908899
     1         -4.20961233         -1.31366409          0.80739228
     1         -2.88729222          2.64102875         -2.62226529

 Electric dipole moment (dipole orientation):
 (Debye = 10**-18 statcoulomb cm , SI units = C m)
                  (au)            (Debye)         (10**-30 SI)
   Tot        0.181169D+01      0.460486D+01      0.153602D+02
   x          0.000000D+00      0.000000D+00      0.000000D+00
   y          0.000000D+00      0.000000D+00      0.000000D+00
   z          0.181169D+01      0.460486D+01      0.153602D+02

 Dipole polarizability, Alpha (dipole orientation).
 (esu units = cm**3 , SI units = C**2 m**2 J**-1)
 Alpha(0;0):
               (au)            (10**-24 esu)      (10**-40 SI)
   iso        0.582187D+02      0.862713D+01      0.959897D+01
   aniso      0.266601D+02      0.395063D+01      0.439566D+01
   xx         0.657827D+02      0.974799D+01      0.108461D+02
   yx        -0.703497D+01     -0.104248D+01     -0.115991D+01
   yy         0.537705D+02      0.796796D+01      0.886555D+01
   zx         0.857167D+01      0.127019D+01      0.141328D+01
   zy        -0.840253D+01     -0.124513D+01     -0.138539D+01
   zz         0.551031D+02      0.816543D+01      0.908527D+01

 ----------------------------------------------------------------------
 1\1\GINC-BELL-A064\Freq\RB3LYP\6-31+G(d)\C3H6O3\ZHAO922\23-Dec-2020\0\
 \#N Geom=AllCheck Guess=TCheck SCRF=Check GenChk RB3LYP/6-31+G(d) Freq
 \\pp_19_1 TS\\0,1\C,1.518165674,0.8278614508,-2.654784582\C,0.58830838
 47,0.174072608,-1.9211207766\C,0.8766016022,-0.387985069,-0.5838287026
 \O,1.3909963331,3.4760870067,-2.2895435434\O,0.8595204281,3.1722824476
 ,-0.9020290425\O,1.8021990262,-0.0396932835,0.1341226147\H,-0.01718126
 17,3.6005308492,-0.9076090861\H,2.5238079254,0.9853676791,-2.276599274
 1\H,1.3092666503,1.1792599035,-3.6580197096\H,0.1756177417,-1.17712933
 19,-0.2396825694\H,-0.3940969087,-0.0444656547,-2.3389836481\H,0.71220
 84046,2.1925513943,-0.9479896803\\Version=ES64L-G16RevB.01\State=1-A\H
 F=-343.4051329\RMSD=1.185e-09\RMSF=2.190e-06\ZeroPoint=0.0895571\Therm
 al=0.0972547\Dipole=-1.7070998,-0.6058257,-0.0317875\DipoleDeriv=0.114
 6632,0.2581364,-0.1710396,0.1400186,0.4961299,-0.3040286,-0.0336703,-0
 .2277551,0.1497065,-0.0235411,-0.1437185,0.3354331,0.0726802,-0.551496
 2,0.2363402,0.1606566,0.4309829,-0.6617673,0.6449995,0.098925,0.378698
 3,0.3188881,0.7076896,-0.2977404,0.2118937,-0.6121767,1.2392653,-0.306
 1739,0.0483198,-0.2846662,0.0008504,-0.8528724,-0.0286029,-0.2155974,-
 0.0303899,0.1175475,-0.201518,0.0381088,0.2230137,0.038475,-0.4500709,
 0.0109631,0.1588922,-0.1122635,-0.6175927,-0.6611457,0.1023516,-0.4879
 899,-0.1468224,-0.4542043,-0.0391745,-0.2514392,0.1761477,-0.8707677,0
 .2931273,-0.060429,0.0036736,-0.0659865,0.3769667,0.0840575,0.0293434,
 0.0534606,0.2752755,0.0411653,-0.0105883,-0.0311471,-0.0065998,0.08919
 72,0.0423309,-0.0511691,-0.0066856,0.0800138,0.082636,0.0173429,-0.032
 2268,-0.0187417,0.0503508,0.0503888,-0.0175689,0.0073949,0.0212272,-0.
 1071263,-0.1919533,0.0656807,-0.1578106,-0.1013656,0.0651994,0.0452209
 ,0.0919262,-0.0154785,-0.0591972,-0.0559781,-0.0807387,-0.0841408,0.07
 50973,0.0636799,-0.0566464,0.0286605,0.0536918,0.1821108,-0.1005174,0.
 0813089,-0.0908106,0.6145777,0.1165866,0.0200844,0.2006979,0.2288785\P
 olar=48.86569,7.154758,65.9725179,-2.0134753,-10.3245935,59.8180103\Qu
 adrupole=3.2416159,-1.911536,-1.3300799,-2.6014539,-3.1439615,5.605370
 7\PG=C01 [X(C3H6O3)]\NImag=1\\0.68256773,0.17699140,0.26733151,0.00419
 776,-0.21242382,0.64607401,-0.29610059,-0.13994303,0.13796670,0.675489
 61,-0.14478718,-0.14743276,0.11843741,0.22710050,0.29179821,0.12359596
 ,0.10298215,-0.21292542,0.01388197,-0.18754136,0.52483343,0.01891468,0
 .00033167,0.01845384,-0.10742369,-0.02443167,-0.00099234,0.66793302,-0
 .00166802,-0.00912095,0.01727138,-0.00074744,-0.11124621,0.06683812,0.
 25617769,0.42333803,0.01452102,0.02741627,-0.02867164,-0.02940612,0.04
 540388,-0.17601933,0.23054594,-0.04548467,0.58902796,-0.00274664,0.003
 47759,-0.00133212,0.00025938,-0.00023435,0.00175142,-0.00073544,0.0001
 0302,-0.00088811,0.04710699,0.00447061,0.01081706,-0.00092961,-0.00613
 788,-0.00536208,0.00998337,-0.00325725,0.00219141,-0.00794542,0.013308
 36,0.03441677,-0.00226641,-0.00699461,-0.00064106,0.00205557,-0.002845
 42,-0.00270400,-0.00009809,0.00023711,-0.00019406,-0.07165462,-0.03406
 108,0.15766590,-0.00084866,-0.00285275,0.00362171,0.00264383,-0.002773
 88,-0.00277792,-0.00068443,-0.00059551,-0.00062644,-0.03754342,0.00185
 200,0.05410146,0.49729007,-0.00475545,-0.01363920,0.00006780,0.0068701
 9,-0.00881578,-0.00839052,-0.00230680,0.00148842,-0.00483934,-0.001151
 81,-0.03027165,0.02601756,-0.11559081,0.58012500,0.00210648,0.00152499
 ,-0.00555937,-0.00107612,0.00189282,0.00300121,-0.00144941,0.00065285,
 -0.00235624,0.03461540,0.01181320,-0.12522427,-0.02570421,0.00713166,0
 .16701790,-0.00945821,-0.00920053,0.00636055,0.00012574,0.01205413,-0.
 04521252,-0.44452476,-0.16131996,-0.27064045,0.00090512,0.00387619,-0.
 00021701,0.00001266,0.00101729,0.00132470,0.47894440,-0.00147062,-0.00
 171028,0.00166308,0.00866754,0.02535956,-0.00149188,-0.15361501,-0.139
 02838,-0.08628550,0.00023562,0.00042279,0.00029574,0.00115145,0.001441
 43,0.00068613,0.18035296,0.11079276,-0.00677054,-0.00883215,0.00493816
 ,-0.04243121,0.00084289,-0.04338195,-0.27457740,-0.09359545,-0.2918979
 1,0.00085768,0.00375950,-0.00024726,-0.00011805,0.00118152,0.00207606,
 0.33660045,0.10224460,0.32322036,0.00025223,0.00042864,-0.00050597,-0.
 00008366,-0.00065718,0.00054821,-0.00002288,0.00060161,-0.00069747,-0.
 00434375,-0.00418516,0.00947750,-0.39828737,0.19461926,-0.00885938,0.0
 0012967,-0.00027392,0.00022429,0.39418370,-0.00002702,-0.00030949,-0.0
 0043446,-0.00037703,0.00057822,-0.00022462,0.00041022,-0.00026097,0.00
 075870,-0.00814376,0.00356594,0.00234896,0.14651543,-0.13474800,0.0076
 3459,-0.00033995,-0.00008299,-0.00041958,-0.18253115,0.14495713,0.0000
 8310,-0.00001195,-0.00038105,-0.00012150,0.00069006,-0.00008404,0.0002
 2093,-0.00016720,0.00090743,0.02574065,-0.00589766,-0.01536758,-0.0290
 7638,0.02060194,-0.01656068,-0.00026100,-0.00001056,-0.00053008,0.0021
 8330,-0.01108526,0.03134339,-0.30675100,-0.04219871,-0.09467674,-0.016
 12268,-0.00417890,-0.00945805,-0.00131382,0.00217246,-0.00046718,0.000
 58570,-0.00020698,-0.00001392,0.00012306,-0.00019203,0.00017418,0.0015
 5201,0.00068334,0.00013199,-0.00017142,-0.00001929,0.00007024,0.322584
 72,-0.04018468,-0.04687142,-0.01040291,-0.01467666,0.00234104,-0.00092
 793,-0.00001515,-0.00569713,-0.00566758,0.00062789,-0.00311129,0.00013
 850,-0.00023055,0.00066930,0.00004068,0.00103448,0.00125562,0.00017778
 ,0.00002143,0.00000816,0.00010085,0.04976345,0.03868906,-0.09911326,-0
 .00748215,-0.09486602,0.01773712,0.00238475,0.01344233,0.00120790,-0.0
 0194906,-0.00139295,0.00060457,-0.00165109,0.00034733,0.00023098,0.000
 20379,-0.00033238,-0.00075682,0.00019335,-0.00012704,-0.00000230,0.000
 08052,-0.00010193,0.10325283,0.00756990,0.08716936,-0.07010031,0.01461
 179,-0.06183905,0.00938726,-0.00868591,0.02335559,-0.00410943,-0.00507
 714,-0.00101523,0.00013294,0.00101053,0.00000666,-0.00062178,0.0000717
 1,0.00077550,0.00126258,0.00137927,-0.00047122,0.00008407,0.00002297,0
 .00024191,0.00011709,0.00790834,-0.02429585,0.06349155,0.01625073,-0.0
 6936346,0.09505100,-0.00086767,0.00059457,0.01624949,-0.00510857,0.009
 34108,0.00279308,-0.00021328,-0.00338401,-0.00121141,0.00051411,0.0000
 7359,-0.00035468,0.00171730,-0.00103988,0.00066813,-0.00006312,-0.0001
 6668,-0.00015151,-0.00209505,0.00544520,-0.00366938,-0.01305564,0.0647
 3189,-0.05660055,0.09514932,-0.31252746,-0.00758117,0.00519253,-0.0086
 9993,0.00149034,0.00563097,0.00196490,0.00029489,-0.00053201,0.0005259
 5,0.00016192,0.00025201,0.00013198,0.00050163,-0.00094868,0.00085767,-
 0.00002204,-0.00017549,-0.00005918,-0.00038504,0.00423066,-0.00407520,
 0.06118180,-0.10597598,0.32349915,0.00106747,0.00029548,-0.00238871,0.
 01038078,-0.00251746,-0.00498335,-0.12882449,-0.08760484,0.05249730,0.
 00009780,-0.00047739,0.00006847,0.00014854,-0.00022669,0.00007930,-0.0
 2788151,-0.03448453,-0.01010719,-0.00012643,-0.00000622,0.00009507,0.0
 0016725,-0.00019623,-0.00053750,0.00012228,0.00075266,0.00004096,0.145
 31669,0.00191184,0.00030428,0.00453963,-0.01555624,0.00124025,0.007421
 71,-0.08363755,-0.16947969,0.06585517,0.00002104,-0.00016071,0.0000140
 9,0.00008534,-0.00006467,-0.00029411,-0.02719980,0.00216490,-0.0082474
 9,-0.00010281,0.00004107,0.00003378,-0.00012332,0.00039676,-0.00034119
 ,-0.00058045,-0.00132814,-0.00018432,0.12441544,0.16687343,-0.00251772
 ,0.00253972,-0.00384545,0.01425625,0.02401751,-0.00299011,0.04683234,0
 .06200455,-0.09406891,0.00004360,0.00033045,-0.00010460,-0.00004854,0.
 00024563,0.00015755,-0.02319503,-0.01797042,0.01630472,0.00007502,-0.0
 0001947,-0.00006360,-0.00015487,0.00034630,0.00038649,0.00142677,-0.00
 085262,-0.00130282,-0.03642967,-0.06928946,0.08596685,-0.01822600,-0.0
 0481936,-0.00922845,-0.27479857,-0.05372522,-0.10165605,-0.00212847,-0
 .00326722,0.00373284,0.00028060,0.00014404,0.00014977,-0.00005551,-0.0
 0008412,-0.00000727,0.00008055,0.00024167,-0.00222659,-0.00004775,-0.0
 0000230,-0.00005045,0.00035181,-0.00462297,0.00099539,0.00027618,0.002
 58393,0.00138470,0.00024100,0.00072897,-0.00043891,0.29397206,-0.01450
 566,0.00056181,-0.00615143,-0.05722808,-0.05513797,-0.01238111,0.01290
 932,0.00392633,0.00180289,0.00004436,-0.00055304,0.00009213,0.00045083
 ,-0.00027639,-0.00021433,-0.00084783,0.00147979,0.00386130,-0.00019555
 ,-0.00030945,-0.00015742,-0.00397993,0.00702758,0.00500199,0.00214318,
 -0.00454659,-0.00279622,-0.00025408,-0.00031046,-0.00083738,0.06272889
 ,0.04724181,0.02052453,0.00491788,0.01063342,-0.10370649,-0.01174995,-
 0.09436478,-0.02611670,-0.01125367,-0.00547994,-0.00016102,-0.00013963
 ,-0.00010653,0.00022890,-0.00013617,-0.00000630,-0.00102193,0.00441409
 ,-0.00655316,-0.00006487,-0.00022412,-0.00004358,0.00126525,0.00469912
 ,-0.00048230,0.00056677,-0.00267503,-0.00014026,0.00179358,0.00014993,
 -0.00008299,0.10743030,0.01159001,0.09684827,0.00142931,0.00287782,-0.
 00062953,-0.00375740,0.00283712,0.00194708,0.00291970,0.00122536,0.002
 44390,-0.00399930,-0.01039708,0.00839062,-0.06217699,-0.07827074,-0.00
 197916,-0.00114826,-0.00286778,-0.00111221,0.00843358,0.04449811,0.000
 87413,-0.00112272,0.00057067,0.00067694,-0.00004244,-0.00041539,-0.000
 46745,-0.00070939,0.00003753,0.00015078,0.00005410,-0.00126545,-0.0007
 3832,0.06011980,0.00777406,0.00943289,-0.00668807,-0.00710420,0.006082
 95,0.00748258,0.00254310,-0.00545194,0.00619251,-0.00807468,-0.0085711
 9,0.01596843,-0.02852566,-0.39598205,-0.03051379,-0.00114427,-0.001055
 33,-0.00164106,-0.00766205,-0.01327294,-0.00394508,0.00037495,-0.00015
 289,-0.00034144,0.00025136,-0.00035756,0.00015719,0.00030384,0.0003229
 9,-0.00051481,0.00009369,0.00089657,0.00040754,0.04116985,0.40810849,0
 .00223963,0.00121436,-0.00222812,-0.00157500,0.00327489,-0.00010742,0.
 00448265,-0.00018494,0.00818069,0.01012767,0.02526998,-0.01394982,0.00
 000655,-0.04233589,-0.02234546,-0.00348257,-0.00278994,-0.00465957,-0.
 00235629,0.00176022,0.00094088,0.00026133,-0.00030538,0.00003231,0.000
 06634,0.00012889,-0.00017479,-0.00012826,0.00034226,-0.00035714,-0.000
 08528,0.00018956,-0.00022184,-0.00955678,0.01343601,0.03489028\\-0.000
 00088,-0.00000298,-0.00000196,0.00000160,0.00000451,-0.00000211,0.0000
 0146,0.00000123,0.00000409,0.00000211,-0.00000023,-0.00000218,-0.00000
 600,-0.00000421,0.00000058,-0.00000171,0.00000013,-0.00000230,0.000000
 32,0.00000343,0.00000019,-0.00000022,0.00000158,0.00000117,0.00000050,
 0.00000037,0.00000069,0.00000024,-0.00000028,-0.00000020,0.00000030,-0
 .00000002,-0.00000027,0.00000226,-0.00000353,0.00000232\\\@


 THE MOST SERIOUS THREAT TO THE SURVIVAL OF MANKIND IS NOT NOW
 IGNORANCE IN THE TRADITIONAL SENSE,
 BUT A MORALLY NEUTRAL, AN INSENSITIVE OR INHIBITED HUMAN INTELLIGENCE.

                     -- MARGO JEFFERSON IN NEWSWEEK, SEPTEMBER 2, 1974
 Job cpu time:       0 days  0 hours  3 minutes 56.7 seconds.
 Elapsed time:       0 days  0 hours  0 minutes 15.1 seconds.
 File lengths (MBytes):  RWF=     27 Int=      0 D2E=      0 Chk=      3 Scr=      1
 Normal termination of Gaussian 16 at Wed Dec 23 22:07:22 2020.
