 Entering Gaussian System, Link 0=g16
 Initial command:
 /apps/cent7/gaussian/g16-B.01/g16-haswell/g16/l1.exe "/scratch/bell/zhao922/YARP/paper-example/KHP-network/pp_0/TS-folder/Gau-21365.inp" -scrdir="/scratch/bell/zhao922/YARP/paper-example/KHP-network/pp_0/TS-folder/"
 Entering Link 1 = /apps/cent7/gaussian/g16-B.01/g16-haswell/g16/l1.exe PID=     21381.
  
 Copyright (c) 1988-2017, Gaussian, Inc.  All Rights Reserved.
  
 This is part of the Gaussian(R) 16 program.  It is based on
 the Gaussian(R) 09 system (copyright 2009, Gaussian, Inc.),
 the Gaussian(R) 03 system (copyright 2003, Gaussian, Inc.),
 the Gaussian(R) 98 system (copyright 1998, Gaussian, Inc.),
 the Gaussian(R) 94 system (copyright 1995, Gaussian, Inc.),
 the Gaussian 92(TM) system (copyright 1992, Gaussian, Inc.),
 the Gaussian 90(TM) system (copyright 1990, Gaussian, Inc.),
 the Gaussian 88(TM) system (copyright 1988, Gaussian, Inc.),
 the Gaussian 86(TM) system (copyright 1986, Carnegie Mellon
 University), and the Gaussian 82(TM) system (copyright 1983,
 Carnegie Mellon University). Gaussian is a federally registered
 trademark of Gaussian, Inc.
  
 This software contains proprietary and confidential information,
 including trade secrets, belonging to Gaussian, Inc.
  
 This software is provided under written license and may be
 used, copied, transmitted, or stored only in accord with that
 written license.
  
 The following legend is applicable only to US Government
 contracts under FAR:
  
                    RESTRICTED RIGHTS LEGEND
  
 Use, reproduction and disclosure by the US Government is
 subject to restrictions as set forth in subparagraphs (a)
 and (c) of the Commercial Computer Software - Restricted
 Rights clause in FAR 52.227-19.
  
 Gaussian, Inc.
 340 Quinnipiac St., Bldg. 40, Wallingford CT 06492
  
  
 ---------------------------------------------------------------
 Warning -- This program may not be used in any manner that
 competes with the business of Gaussian, Inc. or will provide
 assistance to any competitor of Gaussian, Inc.  The licensee
 of this program is prohibited from giving any competitor of
 Gaussian, Inc. access to this program.  By using this program,
 the user acknowledges that Gaussian, Inc. is engaged in the
 business of creating and licensing software in the field of
 computational chemistry and represents and warrants to the
 licensee that it is not a competitor of Gaussian, Inc. and that
 it will not use this program in any manner prohibited above.
 ---------------------------------------------------------------
  

 Cite this work as:
 Gaussian 16, Revision B.01,
 M. J. Frisch, G. W. Trucks, H. B. Schlegel, G. E. Scuseria, 
 M. A. Robb, J. R. Cheeseman, G. Scalmani, V. Barone, 
 G. A. Petersson, H. Nakatsuji, X. Li, M. Caricato, A. V. Marenich, 
 J. Bloino, B. G. Janesko, R. Gomperts, B. Mennucci, H. P. Hratchian, 
 J. V. Ortiz, A. F. Izmaylov, J. L. Sonnenberg, D. Williams-Young, 
 F. Ding, F. Lipparini, F. Egidi, J. Goings, B. Peng, A. Petrone, 
 T. Henderson, D. Ranasinghe, V. G. Zakrzewski, J. Gao, N. Rega, 
 G. Zheng, W. Liang, M. Hada, M. Ehara, K. Toyota, R. Fukuda, 
 J. Hasegawa, M. Ishida, T. Nakajima, Y. Honda, O. Kitao, H. Nakai, 
 T. Vreven, K. Throssell, J. A. Montgomery, Jr., J. E. Peralta, 
 F. Ogliaro, M. J. Bearpark, J. J. Heyd, E. N. Brothers, K. N. Kudin, 
 V. N. Staroverov, T. A. Keith, R. Kobayashi, J. Normand, 
 K. Raghavachari, A. P. Rendell, J. C. Burant, S. S. Iyengar, 
 J. Tomasi, M. Cossi, J. M. Millam, M. Klene, C. Adamo, R. Cammi, 
 J. W. Ochterski, R. L. Martin, K. Morokuma, O. Farkas, 
 J. B. Foresman, and D. J. Fox, Gaussian, Inc., Wallingford CT, 2016.
 
 ******************************************
 Gaussian 16:  ES64L-G16RevB.01 20-Dec-2017
                23-Dec-2020 
 ******************************************
 %NProcShared=16
 Will use up to   16 processors via shared memory.
 %Mem=6GB
 --------------------------------------------------------------
 # B3LYP/6-31+G* OPT=(TS, CALCALL, NOEIGEN, maxcycles=100) Freq
 --------------------------------------------------------------
 1/5=1,6=100,10=4,11=1,18=20,26=3,38=1/1,3;
 2/9=110,12=2,17=6,18=5,40=1/2;
 3/5=1,6=6,7=11,11=2,25=1,30=1,71=2,74=-5,140=1/1,2,3;
 4//1;
 5/5=2,38=5/2;
 8/6=4,10=90,11=11/1;
 11/6=1,8=1,9=11,15=111,16=1/1,2,10;
 10/6=1/2;
 6/7=2,8=2,9=2,10=2,18=1,28=1/1;
 7/10=1,25=1/1,2,3,16;
 1/5=1,6=100,10=4,11=1,18=20,26=3/3(3);
 2/9=110/2;
 7/8=1,9=1,25=1,44=-1/16;
 99//99;
 2/9=110/2;
 3/5=1,6=6,7=11,11=2,25=1,30=1,71=2,74=-5,140=1/1,2,3;
 4/5=5,16=3,69=1/1;
 5/5=2,38=5/2;
 8/6=4,10=90,11=11/1;
 11/6=1,8=1,9=11,15=111,16=1/1,2,10;
 10/6=1/2;
 7/10=1,25=1/1,2,3,16;
 1/5=1,6=100,10=4,11=1,18=20,26=3/3(-8);
 2/9=110/2;
 6/7=2,8=2,9=2,10=2,18=1,19=2,28=1/1;
 7/8=1,9=1,25=1,44=-1/16;
 99//99;
 ---------
 pp_2_0 TS
 ---------
 Symbolic Z-matrix:
 Charge =  0 Multiplicity = 1
 C                     1.72078   1.38624  -2.29884 
 C                     0.44159   0.28931  -0.84602 
 C                     1.54679  -0.40655  -1.07751 
 O                     0.87224   2.48945  -2.45307 
 O                     0.84674   3.26374  -1.24807 
 O                     2.61599  -0.84415  -1.03705 
 H                     0.87874   4.17237  -1.56302 
 H                     1.75929   0.96132  -3.30352 
 H                     2.71728   1.69488  -1.96066 
 H                     0.26774  -1.21949   0.02403 
 H                     0.23811   0.92442  -0.00258 
 H                    -0.41364   0.24268  -1.49792 
 
 Add virtual bond connecting atoms H10        and C2         Dist= 3.31D+00.
 Add virtual bond connecting atoms H10        and C3         Dist= 3.54D+00.
 Add virtual bond connecting atoms C2         and C1         Dist= 4.20D+00.
 Add virtual bond connecting atoms C3         and C1         Dist= 4.11D+00.

 GradGradGradGradGradGradGradGradGradGradGradGradGradGradGradGradGradGrad
 Berny optimization.
 Initialization pass.
                           ----------------------------
                           !    Initial Parameters    !
                           ! (Angstroms and Degrees)  !
 --------------------------                            --------------------------
 ! Name  Definition              Value          Derivative Info.                !
 --------------------------------------------------------------------------------
 ! R1    R(1,2)                  2.2249         calculate D2E/DX2 analytically  !
 ! R2    R(1,3)                  2.1762         calculate D2E/DX2 analytically  !
 ! R3    R(1,4)                  1.4003         calculate D2E/DX2 analytically  !
 ! R4    R(1,8)                  1.0915         calculate D2E/DX2 analytically  !
 ! R5    R(1,9)                  1.0966         calculate D2E/DX2 analytically  !
 ! R6    R(2,3)                  1.3264         calculate D2E/DX2 analytically  !
 ! R7    R(2,10)                 1.7503         calculate D2E/DX2 analytically  !
 ! R8    R(2,11)                 1.0753         calculate D2E/DX2 analytically  !
 ! R9    R(2,12)                 1.0764         calculate D2E/DX2 analytically  !
 ! R10   R(3,6)                  1.156          calculate D2E/DX2 analytically  !
 ! R11   R(3,10)                 1.8736         calculate D2E/DX2 analytically  !
 ! R12   R(4,5)                  1.4325         calculate D2E/DX2 analytically  !
 ! R13   R(5,7)                  0.9622         calculate D2E/DX2 analytically  !
 ! A1    A(2,1,4)               96.4273         calculate D2E/DX2 analytically  !
 ! A2    A(2,1,8)              115.4279         calculate D2E/DX2 analytically  !
 ! A3    A(2,1,9)              117.376          calculate D2E/DX2 analytically  !
 ! A4    A(3,1,4)              131.4815         calculate D2E/DX2 analytically  !
 ! A5    A(3,1,8)              101.4596         calculate D2E/DX2 analytically  !
 ! A6    A(3,1,9)               97.5527         calculate D2E/DX2 analytically  !
 ! A7    A(4,1,8)              103.1029         calculate D2E/DX2 analytically  !
 ! A8    A(4,1,9)              111.2765         calculate D2E/DX2 analytically  !
 ! A9    A(8,1,9)              111.1827         calculate D2E/DX2 analytically  !
 ! A10   A(1,2,10)             143.7716         calculate D2E/DX2 analytically  !
 ! A11   A(1,2,11)             109.2563         calculate D2E/DX2 analytically  !
 ! A12   A(1,2,12)              94.7439         calculate D2E/DX2 analytically  !
 ! A13   A(3,2,11)             127.1908         calculate D2E/DX2 analytically  !
 ! A14   A(3,2,12)             122.2507         calculate D2E/DX2 analytically  !
 ! A15   A(10,2,11)             95.7651         calculate D2E/DX2 analytically  !
 ! A16   A(10,2,12)            100.6489         calculate D2E/DX2 analytically  !
 ! A17   A(11,2,12)            110.506          calculate D2E/DX2 analytically  !
 ! A18   A(1,3,6)              104.9244         calculate D2E/DX2 analytically  !
 ! A19   A(1,3,10)             137.9013         calculate D2E/DX2 analytically  !
 ! A20   A(2,3,6)              164.4032         calculate D2E/DX2 analytically  !
 ! A21   A(6,3,10)             116.5253         calculate D2E/DX2 analytically  !
 ! A22   A(1,4,5)              110.1183         calculate D2E/DX2 analytically  !
 ! A23   A(4,5,7)              103.5615         calculate D2E/DX2 analytically  !
 ! D1    D(4,1,2,10)           173.3793         calculate D2E/DX2 analytically  !
 ! D2    D(4,1,2,11)           -55.5605         calculate D2E/DX2 analytically  !
 ! D3    D(4,1,2,12)            58.1009         calculate D2E/DX2 analytically  !
 ! D4    D(8,1,2,10)            65.5512         calculate D2E/DX2 analytically  !
 ! D5    D(8,1,2,11)          -163.3886         calculate D2E/DX2 analytically  !
 ! D6    D(8,1,2,12)           -49.7272         calculate D2E/DX2 analytically  !
 ! D7    D(9,1,2,10)           -68.6157         calculate D2E/DX2 analytically  !
 ! D8    D(9,1,2,11)            62.4445         calculate D2E/DX2 analytically  !
 ! D9    D(9,1,2,12)           176.1059         calculate D2E/DX2 analytically  !
 ! D10   D(4,1,3,6)           -162.919          calculate D2E/DX2 analytically  !
 ! D11   D(4,1,3,10)             6.9468         calculate D2E/DX2 analytically  !
 ! D12   D(8,1,3,6)             77.8725         calculate D2E/DX2 analytically  !
 ! D13   D(8,1,3,10)          -112.2617         calculate D2E/DX2 analytically  !
 ! D14   D(9,1,3,6)            -35.6306         calculate D2E/DX2 analytically  !
 ! D15   D(9,1,3,10)           134.2352         calculate D2E/DX2 analytically  !
 ! D16   D(2,1,4,5)             69.1886         calculate D2E/DX2 analytically  !
 ! D17   D(3,1,4,5)             68.6538         calculate D2E/DX2 analytically  !
 ! D18   D(8,1,4,5)           -172.7861         calculate D2E/DX2 analytically  !
 ! D19   D(9,1,4,5)            -53.5257         calculate D2E/DX2 analytically  !
 ! D20   D(11,2,3,6)            -9.8409         calculate D2E/DX2 analytically  !
 ! D21   D(12,2,3,6)           173.052          calculate D2E/DX2 analytically  !
 ! D22   D(1,4,5,7)            138.0813         calculate D2E/DX2 analytically  !
 --------------------------------------------------------------------------------
 Trust Radius=3.00D-01 FncErr=1.00D-07 GrdErr=1.00D-06 EigMax=2.50D+02 EigMin=1.00D-04
 Number of steps in this run=    100 maximum allowed number of steps=    100.
 Search for a saddle point of order  1.
 GradGradGradGradGradGradGradGradGradGradGradGradGradGradGradGradGradGrad

                          Input orientation:                          
 ---------------------------------------------------------------------
 Center     Atomic      Atomic             Coordinates (Angstroms)
 Number     Number       Type             X           Y           Z
 ---------------------------------------------------------------------
      1          6           0        1.720784    1.386243   -2.298839
      2          6           0        0.441590    0.289309   -0.846017
      3          6           0        1.546788   -0.406548   -1.077508
      4          8           0        0.872238    2.489453   -2.453072
      5          8           0        0.846736    3.263740   -1.248072
      6          8           0        2.615993   -0.844154   -1.037049
      7          1           0        0.878737    4.172373   -1.563016
      8          1           0        1.759294    0.961316   -3.303517
      9          1           0        2.717280    1.694881   -1.960662
     10          1           0        0.267742   -1.219492    0.024033
     11          1           0        0.238106    0.924423   -0.002579
     12          1           0       -0.413643    0.242676   -1.497922
 ---------------------------------------------------------------------
                    Distance matrix (angstroms):
                    1          2          3          4          5
     1  C    0.000000
     2  C    2.224925   0.000000
     3  C    2.176241   1.326374   0.000000
     4  O    1.400318   2.758390   3.276281   0.000000
     5  O    2.322298   3.028701   3.740345   1.432549   0.000000
     6  O    2.714440   2.459524   1.156000   4.019793   4.477677
     7  H    3.002166   3.972829   4.652798   1.903802   0.962199
     8  H    1.091524   2.868317   2.621322   1.960951   3.218505
     9  H    1.096643   2.897729   2.562424   2.068331   2.543234
    10  H    3.781127   1.750340   1.873561   4.500860   4.696047
    11  H    2.772079   1.075250   2.153974   2.975963   2.719207
    12  H    2.550489   1.076373   2.107494   2.759313   3.282957
                    6          7          8          9         10
     6  O    0.000000
     7  H    5.334814   0.000000
     8  H    3.021677   3.757075   0.000000
     9  H    2.703705   3.110680   1.805302   0.000000
    10  H    2.604046   5.653693   4.248910   4.293346   0.000000
    11  H    3.138844   3.659857   3.634772   3.251768   2.144285
    12  H    3.251507   4.137270   2.915180   3.482199   2.217784
                   11         12
    11  H    0.000000
    12  H    1.767938   0.000000
 Stoichiometry    C3H6O3
 Framework group  C1[X(C3H6O3)]
 Deg. of freedom    30
 Full point group                 C1      NOp   1
 Largest Abelian subgroup         C1      NOp   1
 Largest concise Abelian subgroup C1      NOp   1
                         Standard orientation:                         
 ---------------------------------------------------------------------
 Center     Atomic      Atomic             Coordinates (Angstroms)
 Number     Number       Type             X           Y           Z
 ---------------------------------------------------------------------
      1          6           0       -0.330755   -0.846370    0.277549
      2          6           0        0.713296    1.118380    0.280511
      3          6           0        1.590747    0.150218    0.052451
      4          8           0       -1.615374   -0.341603    0.513884
      5          8           0       -2.079079    0.381877   -0.632305
      6          8           0        2.277376   -0.635796   -0.444599
      7          1           0       -2.998237    0.109419   -0.714420
      8          1           0       -0.147716   -1.475687    1.150407
      9          1           0       -0.297958   -1.433445   -0.648136
     10          1           0        2.287989    1.880600    0.225248
     11          1           0        0.254919    1.764622   -0.446418
     12          1           0        0.397888    1.385294    1.274418
 ---------------------------------------------------------------------
 Rotational constants (GHZ):           7.5384375           1.8980582           1.7204764
 Standard basis: 6-31+G(d) (6D, 7F)
 There are   126 symmetry adapted cartesian basis functions of A   symmetry.
 There are   126 symmetry adapted basis functions of A   symmetry.
   126 basis functions,   216 primitive gaussians,   126 cartesian basis functions
    24 alpha electrons       24 beta electrons
       nuclear repulsion energy       234.9357339778 Hartrees.
 NAtoms=   12 NActive=   12 NUniq=   12 SFac= 1.00D+00 NAtFMM=   60 NAOKFM=F Big=F
 Integral buffers will be    131072 words long.
 Raffenetti 2 integral format.
 Two-electron integral symmetry is turned on.
 One-electron integrals computed using PRISM.
 NBasis=   126 RedAO= T EigKep=  5.55D-05  NBF=   126
 NBsUse=   126 1.00D-06 EigRej= -1.00D+00 NBFU=   126
 ExpMin= 4.38D-02 ExpMax= 5.48D+03 ExpMxC= 8.25D+02 IAcc=3 IRadAn=         5 AccDes= 0.00D+00
 Harris functional with IExCor=  402 and IRadAn=       5 diagonalized for initial guess.
 HarFok:  IExCor=  402 AccDes= 0.00D+00 IRadAn=         5 IDoV= 1 UseB2=F ITyADJ=14
 ICtDFT=  3500011 ScaDFX=  1.000000  1.000000  1.000000  1.000000
 FoFCou: FMM=F IPFlag=           0 FMFlag=      100000 FMFlg1=           0
         NFxFlg=           0 DoJE=T BraDBF=F KetDBF=T FulRan=T
         wScrn=  0.000000 ICntrl=       500 IOpCl=  0 I1Cent=   200000004 NGrid=           0
         NMat0=    1 NMatS0=      1 NMatT0=    0 NMatD0=    1 NMtDS0=    0 NMtDT0=    0
 Petite list used in FoFCou.
 Keep R1 ints in memory in canonical form, NReq=47237561.
 Requested convergence on RMS density matrix=1.00D-08 within 128 cycles.
 Requested convergence on MAX density matrix=1.00D-06.
 Requested convergence on             energy=1.00D-06.
 No special actions if energy rises.
 SCF Done:  E(RB3LYP) =  -343.273828987     A.U. after   15 cycles
            NFock= 15  Conv=0.84D-08     -V/T= 2.0084
 DoSCS=F DFT=T ScalE2(SS,OS)=  1.000000  1.000000
 Range of M.O.s used for correlation:     1   126
 NBasis=   126 NAE=    24 NBE=    24 NFC=     0 NFV=     0
 NROrb=    126 NOA=    24 NOB=    24 NVA=   102 NVB=   102

 **** Warning!!: The largest alpha MO coefficient is  0.36367722D+02


 **** Warning!!: The smallest alpha delta epsilon is  0.86053754D-01

 Symmetrizing basis deriv contribution to polar:
 IMax=3 JMax=2 DiffMx= 0.00D+00
 G2DrvN: will do    13 centers at a time, making    1 passes.
 Calling FoFCou, ICntrl=  3107 FMM=F I1Cent=   0 AccDes= 0.00D+00.
 End of G2Drv F.D. properties file   721 does not exist.
 End of G2Drv F.D. properties file   722 does not exist.
 End of G2Drv F.D. properties file   788 does not exist.
          IDoAtm=111111111111
          Differentiating once with respect to electric field.
                with respect to dipole field.
          Differentiating once with respect to nuclear coordinates.
 Keep R1 ints in memory in canonical form, NReq=47193569.
          There are    39 degrees of freedom in the 1st order CPHF.  IDoFFX=6 NUNeed=     3.
     36 vectors produced by pass  0 Test12= 6.28D-15 2.56D-09 XBig12= 2.48D+02 1.29D+01.
 AX will form    36 AO Fock derivatives at one time.
     36 vectors produced by pass  1 Test12= 6.28D-15 2.56D-09 XBig12= 7.84D+01 4.04D+00.
     36 vectors produced by pass  2 Test12= 6.28D-15 2.56D-09 XBig12= 8.50D-01 1.81D-01.
     36 vectors produced by pass  3 Test12= 6.28D-15 2.56D-09 XBig12= 3.82D-03 1.26D-02.
     36 vectors produced by pass  4 Test12= 6.28D-15 2.56D-09 XBig12= 5.56D-06 2.79D-04.
     29 vectors produced by pass  5 Test12= 6.28D-15 2.56D-09 XBig12= 6.62D-09 1.12D-05.
      6 vectors produced by pass  6 Test12= 6.28D-15 2.56D-09 XBig12= 6.08D-12 3.36D-07.
      3 vectors produced by pass  7 Test12= 6.28D-15 2.56D-09 XBig12= 5.18D-15 1.10D-08.
 InvSVY:  IOpt=1 It=  1 EMax= 4.36D-15
 Solved reduced A of dimension   218 with    39 vectors.
 Isotropic polarizability for W=    0.000000       81.49 Bohr**3.
 End of Minotr F.D. properties file   721 does not exist.
 End of Minotr F.D. properties file   722 does not exist.
 End of Minotr F.D. properties file   788 does not exist.

 **********************************************************************

            Population analysis using the SCF Density.

 **********************************************************************

 Orbital symmetries:
       Occupied  (A) (A) (A) (A) (A) (A) (A) (A) (A) (A) (A) (A)
                 (A) (A) (A) (A) (A) (A) (A) (A) (A) (A) (A) (A)
       Virtual   (A) (A) (A) (A) (A) (A) (A) (A) (A) (A) (A) (A)
                 (A) (A) (A) (A) (A) (A) (A) (A) (A) (A) (A) (A)
                 (A) (A) (A) (A) (A) (A) (A) (A) (A) (A) (A) (A)
                 (A) (A) (A) (A) (A) (A) (A) (A) (A) (A) (A) (A)
                 (A) (A) (A) (A) (A) (A) (A) (A) (A) (A) (A) (A)
                 (A) (A) (A) (A) (A) (A) (A) (A) (A) (A) (A) (A)
                 (A) (A) (A) (A) (A) (A) (A) (A) (A) (A) (A) (A)
                 (A) (A) (A) (A) (A) (A) (A) (A) (A) (A) (A) (A)
                 (A) (A) (A) (A) (A) (A)
 The electronic state is 1-A.
 Alpha  occ. eigenvalues --  -19.25917 -19.23490 -19.22821 -10.36984 -10.27665
 Alpha  occ. eigenvalues --  -10.23594  -1.16423  -1.14905  -0.94010  -0.84022
 Alpha  occ. eigenvalues --   -0.66460  -0.59945  -0.55694  -0.53931  -0.52780
 Alpha  occ. eigenvalues --   -0.50645  -0.48770  -0.45824  -0.44354  -0.38839
 Alpha  occ. eigenvalues --   -0.37738  -0.33588  -0.29094  -0.17884
 Alpha virt. eigenvalues --   -0.09278  -0.03457  -0.00750   0.00245   0.01478
 Alpha virt. eigenvalues --    0.02311   0.03344   0.04074   0.05967   0.06682
 Alpha virt. eigenvalues --    0.07964   0.08701   0.11106   0.11271   0.12691
 Alpha virt. eigenvalues --    0.13612   0.13908   0.17207   0.17761   0.18941
 Alpha virt. eigenvalues --    0.20400   0.22155   0.22821   0.26188   0.26715
 Alpha virt. eigenvalues --    0.27163   0.27488   0.28445   0.30217   0.30509
 Alpha virt. eigenvalues --    0.31466   0.32661   0.33691   0.35527   0.36465
 Alpha virt. eigenvalues --    0.47928   0.60820   0.66569   0.70324   0.71556
 Alpha virt. eigenvalues --    0.72931   0.74807   0.78629   0.81427   0.85090
 Alpha virt. eigenvalues --    0.93333   0.94212   0.98252   1.01145   1.02364
 Alpha virt. eigenvalues --    1.03662   1.09778   1.10354   1.11987   1.13734
 Alpha virt. eigenvalues --    1.17997   1.20248   1.21485   1.22441   1.24566
 Alpha virt. eigenvalues --    1.25504   1.25986   1.33066   1.38359   1.44065
 Alpha virt. eigenvalues --    1.47828   1.51019   1.55775   1.61647   1.62871
 Alpha virt. eigenvalues --    1.64468   1.66327   1.70369   1.78205   1.84453
 Alpha virt. eigenvalues --    1.87320   1.91061   1.93633   1.99769   2.02624
 Alpha virt. eigenvalues --    2.08101   2.11071   2.16779   2.23979   2.24521
 Alpha virt. eigenvalues --    2.30419   2.34407   2.40770   2.52541   2.58691
 Alpha virt. eigenvalues --    2.80857   2.86448   2.90392   3.03593   3.09752
 Alpha virt. eigenvalues --    3.30309   3.97753   4.22814   4.24719   4.33395
 Alpha virt. eigenvalues --    4.40007   4.65432
          Condensed to atoms (all electrons):
               1          2          3          4          5          6
     1  C    7.270841  -1.002523  -0.169137   0.170876  -0.215787  -0.074712
     2  C   -1.002523   6.383916   0.104194  -0.039667   0.105987   0.031708
     3  C   -0.169137   0.104194   5.237198  -0.048742   0.027217   0.268001
     4  O    0.170876  -0.039667  -0.048742   8.154724  -0.028964   0.004230
     5  O   -0.215787   0.105987   0.027217  -0.028964   8.464574  -0.000661
     6  O   -0.074712   0.031708   0.268001   0.004230  -0.000661   8.093896
     7  H    0.008297   0.002886  -0.005398  -0.019938   0.185754   0.000020
     8  H    0.304336   0.022251   0.012915  -0.046228   0.014295   0.002157
     9  H    0.265309   0.072191  -0.013393  -0.057668   0.021857   0.001872
    10  H    0.156939   0.035133  -0.004217   0.000418  -0.001228  -0.013210
    11  H    0.035586   0.375052  -0.082669  -0.004981   0.000852   0.001416
    12  H   -0.091888   0.460513  -0.051680   0.001607   0.003474   0.005607
               7          8          9         10         11         12
     1  C    0.008297   0.304336   0.265309   0.156939   0.035586  -0.091888
     2  C    0.002886   0.022251   0.072191   0.035133   0.375052   0.460513
     3  C   -0.005398   0.012915  -0.013393  -0.004217  -0.082669  -0.051680
     4  O   -0.019938  -0.046228  -0.057668   0.000418  -0.004981   0.001607
     5  O    0.185754   0.014295   0.021857  -0.001228   0.000852   0.003474
     6  O    0.000020   0.002157   0.001872  -0.013210   0.001416   0.005607
     7  H    0.338082  -0.000387   0.000273   0.000002  -0.000004  -0.000044
     8  H   -0.000387   0.499898  -0.023918  -0.000324   0.000021   0.000941
     9  H    0.000273  -0.023918   0.528118  -0.000439  -0.000976   0.000893
    10  H    0.000002  -0.000324  -0.000439   0.918184   0.007841  -0.022730
    11  H   -0.000004   0.000021  -0.000976   0.007841   0.364185  -0.024607
    12  H   -0.000044   0.000941   0.000893  -0.022730  -0.024607   0.412782
 Mulliken charges:
               1
     1  C   -0.658139
     2  C   -0.551640
     3  C    0.725710
     4  O   -0.085667
     5  O   -0.577370
     6  O   -0.320325
     7  H    0.490458
     8  H    0.214045
     9  H    0.205881
    10  H   -0.076368
    11  H    0.328283
    12  H    0.305133
 Sum of Mulliken charges =  -0.00000
 Mulliken charges with hydrogens summed into heavy atoms:
               1
     1  C   -0.238213
     2  C    0.005408
     3  C    0.725710
     4  O   -0.085667
     5  O   -0.086913
     6  O   -0.320325
 APT charges:
               1
     1  C    0.327138
     2  C    0.429505
     3  C    0.945945
     4  O   -0.440756
     5  O   -0.352525
     6  O   -0.617803
     7  H    0.299581
     8  H   -0.080240
     9  H   -0.151729
    10  H   -0.608225
    11  H    0.189107
    12  H    0.060002
 Sum of APT charges =  -0.00000
 APT charges with hydrogens summed into heavy atoms:
               1
     1  C    0.095169
     2  C    0.070389
     3  C    0.945945
     4  O   -0.440756
     5  O   -0.052944
     6  O   -0.617803
 Electronic spatial extent (au):  <R**2>=            703.0141
 Charge=             -0.0000 electrons
 Dipole moment (field-independent basis, Debye):
    X=             -2.6621    Y=             -0.6605    Z=              0.1780  Tot=              2.7486
 Quadrupole moment (field-independent basis, Debye-Ang):
   XX=            -40.4400   YY=            -40.5330   ZZ=            -36.2673
   XY=             -3.5355   XZ=              3.3522   YZ=             -0.4415
 Traceless Quadrupole moment (field-independent basis, Debye-Ang):
   XX=             -1.3599   YY=             -1.4529   ZZ=              2.8128
   XY=             -3.5355   XZ=              3.3522   YZ=             -0.4415
 Octapole moment (field-independent basis, Debye-Ang**2):
  XXX=            -69.2894  YYY=            -14.9928  ZZZ=             -1.2973  XYY=            -17.2190
  XXY=            -15.2686  XXZ=             -9.8059  XZZ=             -4.4913  YZZ=             -2.2104
  YYZ=             -1.4221  XYZ=             -3.4590
 Hexadecapole moment (field-independent basis, Debye-Ang**3):
 XXXX=           -572.7631 YYYY=           -233.7286 ZZZZ=            -86.1792 XXXY=            -52.5161
 XXXZ=             32.6973 YYYX=            -52.3848 YYYZ=             -5.5814 ZZZX=             -1.6555
 ZZZY=             -1.0724 XXYY=           -179.4143 XXZZ=           -118.2562 YYZZ=            -45.9918
 XXYZ=             -5.3206 YYXZ=             -4.0834 ZZXY=             -9.0934
 N-N= 2.349357339778D+02 E-N=-1.273144764317D+03  KE= 3.403996516511D+02
  Exact polarizability: 107.731  28.144  90.642   1.279   1.344  46.086
 Approx polarizability: 196.061  72.774 175.775  -6.320   1.925  66.306
 Calling FoFJK, ICntrl=    100127 FMM=F ISym2X=0 I1Cent= 0 IOpClX= 0 NMat=1 NMatS=1 NMatT=0.
 ***** Axes restored to original set *****
 -------------------------------------------------------------------
 Center     Atomic                   Forces (Hartrees/Bohr)
 Number     Number              X              Y              Z
 -------------------------------------------------------------------
      1        6           0.009732392    0.014050067   -0.012409155
      2        6          -0.033403629   -0.032245886    0.017863713
      3        6           0.019840730    0.043835655   -0.005567232
      4        8          -0.005850101    0.002546179   -0.022691890
      5        8           0.000283833   -0.011490913    0.028223694
      6        8           0.009140263   -0.022956425    0.002633355
      7        1           0.001026721    0.007806994   -0.010974198
      8        1          -0.000999941   -0.002957072   -0.001462095
      9        1           0.000672195   -0.000822029    0.002243012
     10        1          -0.016521257    0.000830461    0.000341508
     11        1           0.016165894    0.007208541    0.010664505
     12        1          -0.000087099   -0.005805572   -0.008865217
 -------------------------------------------------------------------
 Cartesian Forces:  Max     0.043835655 RMS     0.015259250
 FormGI is forming the generalized inverse of G from B-inverse, IUseBI=4.

 GradGradGradGradGradGradGradGradGradGradGradGradGradGradGradGradGradGrad
 Berny optimization.
 Internal  Forces:  Max     0.018064738 RMS     0.006643128
 Search for a saddle point.
 Step number   1 out of a maximum of  100
 All quantities printed in internal units (Hartrees-Bohrs-Radians)
 Swapping is turned off.
 Second derivative matrix not updated -- analytic derivatives used.
 ITU=  0
     Eigenvalues ---   -0.10356  -0.01329   0.00023   0.00047   0.00156
     Eigenvalues ---    0.00488   0.01219   0.01459   0.01871   0.02008
     Eigenvalues ---    0.02430   0.03009   0.03601   0.03958   0.04777
     Eigenvalues ---    0.05316   0.06686   0.07142   0.08746   0.18713
     Eigenvalues ---    0.26034   0.30260   0.33910   0.34948   0.38375
     Eigenvalues ---    0.39496   0.40870   0.52856   0.53813   1.09640
 Eigenvectors required to have negative eigenvalues:
                          R7        R2        D20       R11       R1
   1                   -0.52215  -0.41244   0.40021   0.32456   0.32448
                          A21       A18       A15       A11       A1
   1                    0.20686  -0.16311  -0.15145   0.14762  -0.11210
 RFO step:  Lambda0=3.445669942D-03 Lambda=-2.66603934D-02.
 Linear search not attempted -- option 19 set.
 Maximum step size (   0.300) exceeded in Quadratic search.
    -- Step size scaled by   0.385
 Iteration  1 RMS(Cart)=  0.04069208 RMS(Int)=  0.01195510
 Iteration  2 RMS(Cart)=  0.01011991 RMS(Int)=  0.00257873
 Iteration  3 RMS(Cart)=  0.00043622 RMS(Int)=  0.00252931
 Iteration  4 RMS(Cart)=  0.00000342 RMS(Int)=  0.00252930
 Iteration  5 RMS(Cart)=  0.00000004 RMS(Int)=  0.00252930
 Variable       Old X    -DE/DX   Delta X   Delta X   Delta X     New X
                                 (Linear)    (Quad)   (Total)
    R1        4.20450   0.01368   0.00000   0.00958   0.01382   4.21832
    R2        4.11250   0.00565   0.00000   0.13947   0.13586   4.24836
    R3        2.64622   0.00245   0.00000   0.00489   0.00489   2.65111
    R4        2.06268   0.00246   0.00000   0.00263   0.00263   2.06531
    R5        2.07235   0.00107   0.00000   0.00294   0.00294   2.07529
    R6        2.50648   0.00299   0.00000   0.00054   0.00076   2.50725
    R7        3.30766  -0.00841   0.00000  -0.00073  -0.00576   3.30191
    R8        2.03193   0.00956   0.00000   0.00332   0.00332   2.03525
    R9        2.03405   0.00569   0.00000   0.00240   0.00240   2.03645
   R10        2.18452   0.01724   0.00000  -0.01065  -0.01065   2.17387
   R11        3.54052   0.01556   0.00000   0.10154   0.10523   3.64575
   R12        2.70712   0.01249   0.00000   0.02363   0.02363   2.73075
   R13        1.81829   0.01100   0.00000   0.00768   0.00768   1.82598
    A1        1.68297  -0.00250   0.00000   0.02042   0.02084   1.70381
    A2        2.01460  -0.00124   0.00000  -0.04476  -0.04449   1.97011
    A3        2.04860  -0.00074   0.00000   0.01253   0.01179   2.06039
    A4        2.29479  -0.00331   0.00000   0.01005   0.00960   2.30439
    A5        1.77080   0.00123   0.00000  -0.02079  -0.02073   1.75007
    A6        1.70262  -0.00207   0.00000  -0.00335  -0.00285   1.69976
    A7        1.79948   0.00084   0.00000   0.00765   0.00786   1.80734
    A8        1.94214   0.00263   0.00000  -0.00282  -0.00301   1.93914
    A9        1.94050   0.00113   0.00000   0.00986   0.00976   1.95026
   A10        2.50929   0.00621   0.00000   0.10017   0.10130   2.61059
   A11        1.90688  -0.00411   0.00000  -0.10671  -0.10633   1.80056
   A12        1.65359  -0.00377   0.00000   0.00688   0.00756   1.66115
   A13        2.21990  -0.00835   0.00000  -0.06391  -0.06302   2.15688
   A14        2.13368  -0.00049   0.00000   0.01481   0.01358   2.14726
   A15        1.67142  -0.00263   0.00000   0.01055   0.01344   1.68486
   A16        1.75666  -0.00086   0.00000  -0.04399  -0.04597   1.71068
   A17        1.92869   0.00924   0.00000   0.05064   0.05034   1.97903
   A18        1.83128  -0.00104   0.00000   0.01618   0.02662   1.85790
   A19        2.40683  -0.00532   0.00000  -0.07428  -0.07438   2.33245
   A20        2.86938   0.00744   0.00000   0.11619   0.11405   2.98343
   A21        2.03375   0.00738   0.00000   0.06908   0.05644   2.09019
   A22        1.92193  -0.01806   0.00000  -0.02557  -0.02557   1.89636
   A23        1.80749  -0.01423   0.00000  -0.02447  -0.02447   1.78302
    D1        3.02604  -0.00103   0.00000   0.02721   0.02751   3.05355
    D2       -0.96971  -0.00565   0.00000  -0.00794  -0.00875  -0.97846
    D3        1.01405   0.00182   0.00000   0.02398   0.02340   1.03745
    D4        1.14408  -0.00031   0.00000   0.01969   0.02023   1.16431
    D5       -2.85167  -0.00494   0.00000  -0.01546  -0.01603  -2.86770
    D6       -0.86790   0.00253   0.00000   0.01645   0.01611  -0.85179
    D7       -1.19757   0.00020   0.00000   0.04209   0.04273  -1.15484
    D8        1.08986  -0.00443   0.00000   0.00694   0.00647   1.09633
    D9        3.07363   0.00304   0.00000   0.03885   0.03862   3.11224
   D10       -2.84347  -0.00383   0.00000  -0.07908  -0.07870  -2.92217
   D11        0.12125   0.00504   0.00000   0.01666   0.01691   0.13815
   D12        1.35913  -0.00410   0.00000  -0.07460  -0.07413   1.28500
   D13       -1.95934   0.00478   0.00000   0.02114   0.02148  -1.93786
   D14       -0.62187  -0.00499   0.00000  -0.07915  -0.07884  -0.70071
   D15        2.34285   0.00389   0.00000   0.01659   0.01677   2.35961
   D16        1.20757  -0.00135   0.00000  -0.00310  -0.00349   1.20408
   D17        1.19824  -0.00362   0.00000  -0.02627  -0.02607   1.17217
   D18       -3.01569  -0.00325   0.00000  -0.04189  -0.04177  -3.05745
   D19       -0.93420  -0.00017   0.00000  -0.02723  -0.02716  -0.96136
   D20       -0.17176   0.01144   0.00000  -0.04825  -0.04998  -0.22173
   D21        3.02033  -0.00006   0.00000  -0.09200  -0.09390   2.92643
   D22        2.40997  -0.00080   0.00000   0.00698   0.00698   2.41695
         Item               Value     Threshold  Converged?
 Maximum Force            0.018065     0.000450     NO 
 RMS     Force            0.006643     0.000300     NO 
 Maximum Displacement     0.158167     0.001800     NO 
 RMS     Displacement     0.050697     0.001200     NO 
 Predicted change in Energy=-8.575195D-03
 GradGradGradGradGradGradGradGradGradGradGradGradGradGradGradGradGradGrad

                          Input orientation:                          
 ---------------------------------------------------------------------
 Center     Atomic      Atomic             Coordinates (Angstroms)
 Number     Number       Type             X           Y           Z
 ---------------------------------------------------------------------
      1          6           0        1.719111    1.417040   -2.302894
      2          6           0        0.459228    0.265412   -0.864373
      3          6           0        1.576319   -0.430889   -1.030542
      4          8           0        0.861496    2.515645   -2.463221
      5          8           0        0.833972    3.264669   -1.227752
      6          8           0        2.616439   -0.921862   -1.051314
      7          1           0        0.859919    4.177791   -1.542715
      8          1           0        1.747163    0.966609   -3.298279
      9          1           0        2.716234    1.738536   -1.973615
     10          1           0        0.184044   -1.183414    0.072756
     11          1           0        0.306693    0.963460   -0.058516
     12          1           0       -0.388972    0.181223   -1.523755
 ---------------------------------------------------------------------
                    Distance matrix (angstroms):
                    1          2          3          4          5
     1  C    0.000000
     2  C    2.232239   0.000000
     3  C    2.248134   1.326778   0.000000
     4  O    1.402905   2.789567   3.353447   0.000000
     5  O    2.313685   3.044343   3.774536   1.445053   0.000000
     6  O    2.800376   2.469438   1.150363   4.109715   4.553609
     7  H    2.989620   3.990916   4.692066   1.900016   0.966264
     8  H    1.092916   2.841540   2.669235   1.970087   3.225226
     9  H    1.098198   2.914547   2.625870   2.069702   2.535410
    10  H    3.842200   1.747293   1.929246   4.535764   4.679655
    11  H    2.690332   1.077007   2.121555   2.915423   2.634520
    12  H    2.564822   1.077643   2.116674   2.809945   3.330293
                    6          7          8          9         10
     6  O    0.000000
     7  H    5.416022   0.000000
     8  H    3.061178   3.765753   0.000000
     9  H    2.817501   3.095407   1.813754   0.000000
    10  H    2.692302   5.639953   4.292996   4.374632   0.000000
    11  H    3.142453   3.583410   3.545564   3.173992   2.154378
    12  H    3.236123   4.187200   2.885972   3.502841   2.177023
                   11         12
    11  H    0.000000
    12  H    1.800769   0.000000
 Stoichiometry    C3H6O3
 Framework group  C1[X(C3H6O3)]
 Deg. of freedom    30
 Full point group                 C1      NOp   1
 Largest Abelian subgroup         C1      NOp   1
 Largest concise Abelian subgroup C1      NOp   1
                         Standard orientation:                         
 ---------------------------------------------------------------------
 Center     Atomic      Atomic             Coordinates (Angstroms)
 Number     Number       Type             X           Y           Z
 ---------------------------------------------------------------------
      1          6           0       -0.367645   -0.854879    0.258946
      2          6           0        0.723595    1.091882    0.305979
      3          6           0        1.621684    0.161836    0.008002
      4          8           0       -1.652809   -0.354022    0.515142
      5          8           0       -2.089930    0.406392   -0.633280
      6          8           0        2.339498   -0.628209   -0.420840
      7          1           0       -3.014094    0.136731   -0.716169
      8          1           0       -0.158203   -1.480546    1.130232
      9          1           0       -0.348063   -1.435517   -0.672995
     10          1           0        2.229029    1.977027    0.249255
     11          1           0        0.207467    1.680316   -0.433821
     12          1           0        0.443988    1.335663    1.317762
 ---------------------------------------------------------------------
 Rotational constants (GHZ):           7.5809136           1.8383107           1.6714236
 Standard basis: 6-31+G(d) (6D, 7F)
 There are   126 symmetry adapted cartesian basis functions of A   symmetry.
 There are   126 symmetry adapted basis functions of A   symmetry.
   126 basis functions,   216 primitive gaussians,   126 cartesian basis functions
    24 alpha electrons       24 beta electrons
       nuclear repulsion energy       233.2933238968 Hartrees.
 NAtoms=   12 NActive=   12 NUniq=   12 SFac= 1.00D+00 NAtFMM=   60 NAOKFM=F Big=F
 Integral buffers will be    131072 words long.
 Raffenetti 2 integral format.
 Two-electron integral symmetry is turned on.
 One-electron integrals computed using PRISM.
 NBasis=   126 RedAO= T EigKep=  5.23D-05  NBF=   126
 NBsUse=   126 1.00D-06 EigRej= -1.00D+00 NBFU=   126
 Initial guess from the checkpoint file:  "/scratch/bell/zhao922/YARP/paper-example/KHP-network/pp_0/TS-folder/Gau-21381.chk"
 B after Tr=    -0.000000    0.000000   -0.000000
         Rot=    0.999975   -0.006858    0.001735   -0.000036 Ang=  -0.81 deg.
 ExpMin= 4.38D-02 ExpMax= 5.48D+03 ExpMxC= 8.25D+02 IAcc=3 IRadAn=         5 AccDes= 0.00D+00
 Harris functional with IExCor=  402 and IRadAn=       5 diagonalized for initial guess.
 HarFok:  IExCor=  402 AccDes= 0.00D+00 IRadAn=         5 IDoV= 1 UseB2=F ITyADJ=14
 ICtDFT=  3500011 ScaDFX=  1.000000  1.000000  1.000000  1.000000
 FoFCou: FMM=F IPFlag=           0 FMFlag=      100000 FMFlg1=           0
         NFxFlg=           0 DoJE=T BraDBF=F KetDBF=T FulRan=T
         wScrn=  0.000000 ICntrl=       500 IOpCl=  0 I1Cent=   200000004 NGrid=           0
         NMat0=    1 NMatS0=      1 NMatT0=    0 NMatD0=    1 NMtDS0=    0 NMtDT0=    0
 Petite list used in FoFCou.
 Keep R1 ints in memory in canonical form, NReq=47237561.
 Requested convergence on RMS density matrix=1.00D-08 within 128 cycles.
 Requested convergence on MAX density matrix=1.00D-06.
 Requested convergence on             energy=1.00D-06.
 No special actions if energy rises.
 SCF Done:  E(RB3LYP) =  -343.282012703     A.U. after   14 cycles
            NFock= 14  Conv=0.58D-08     -V/T= 2.0086
 DoSCS=F DFT=T ScalE2(SS,OS)=  1.000000  1.000000
 Range of M.O.s used for correlation:     1   126
 NBasis=   126 NAE=    24 NBE=    24 NFC=     0 NFV=     0
 NROrb=    126 NOA=    24 NOB=    24 NVA=   102 NVB=   102

 **** Warning!!: The largest alpha MO coefficient is  0.34965073D+02


 **** Warning!!: The smallest alpha delta epsilon is  0.86138768D-01

 Symmetrizing basis deriv contribution to polar:
 IMax=3 JMax=2 DiffMx= 0.00D+00
 G2DrvN: will do    13 centers at a time, making    1 passes.
 Calling FoFCou, ICntrl=  3107 FMM=F I1Cent=   0 AccDes= 0.00D+00.
 End of G2Drv F.D. properties file   721 does not exist.
 End of G2Drv F.D. properties file   722 does not exist.
 End of G2Drv F.D. properties file   788 does not exist.
          IDoAtm=111111111111
          Differentiating once with respect to electric field.
                with respect to dipole field.
          Differentiating once with respect to nuclear coordinates.
 Keep R1 ints in memory in canonical form, NReq=47193569.
          There are    39 degrees of freedom in the 1st order CPHF.  IDoFFX=6 NUNeed=     3.
     36 vectors produced by pass  0 Test12= 6.28D-15 2.56D-09 XBig12= 2.78D+02 1.49D+01.
 AX will form    36 AO Fock derivatives at one time.
     36 vectors produced by pass  1 Test12= 6.28D-15 2.56D-09 XBig12= 8.95D+01 3.52D+00.
     36 vectors produced by pass  2 Test12= 6.28D-15 2.56D-09 XBig12= 9.32D-01 1.69D-01.
     36 vectors produced by pass  3 Test12= 6.28D-15 2.56D-09 XBig12= 3.81D-03 1.10D-02.
     36 vectors produced by pass  4 Test12= 6.28D-15 2.56D-09 XBig12= 6.22D-06 3.27D-04.
     29 vectors produced by pass  5 Test12= 6.28D-15 2.56D-09 XBig12= 7.38D-09 1.14D-05.
      6 vectors produced by pass  6 Test12= 6.28D-15 2.56D-09 XBig12= 6.39D-12 3.65D-07.
      3 vectors produced by pass  7 Test12= 6.28D-15 2.56D-09 XBig12= 6.00D-15 1.18D-08.
 InvSVY:  IOpt=1 It=  1 EMax= 7.11D-15
 Solved reduced A of dimension   218 with    39 vectors.
 Isotropic polarizability for W=    0.000000       83.56 Bohr**3.
 End of Minotr F.D. properties file   721 does not exist.
 End of Minotr F.D. properties file   722 does not exist.
 End of Minotr F.D. properties file   788 does not exist.
 Calling FoFJK, ICntrl=    100127 FMM=F ISym2X=0 I1Cent= 0 IOpClX= 0 NMat=1 NMatS=1 NMatT=0.
 ***** Axes restored to original set *****
 -------------------------------------------------------------------
 Center     Atomic                   Forces (Hartrees/Bohr)
 Number     Number              X              Y              Z
 -------------------------------------------------------------------
      1        6           0.006903473    0.013247020   -0.009157995
      2        6          -0.028280435   -0.025770122    0.018214374
      3        6           0.017813553    0.031206512   -0.008794333
      4        8          -0.002831527    0.001455405   -0.015079038
      5        8          -0.000355292   -0.007718760    0.019049820
      6        8           0.007310796   -0.018188630    0.002002436
      7        1           0.000527837    0.004978076   -0.007151449
      8        1          -0.000933739   -0.002432073   -0.000616595
      9        1           0.000594140   -0.000965214    0.001161769
     10        1          -0.013153472    0.003341018    0.001040485
     11        1           0.011272871    0.005023699    0.006305535
     12        1           0.001131794   -0.004176932   -0.006975009
 -------------------------------------------------------------------
 Cartesian Forces:  Max     0.031206512 RMS     0.011844220
 FormGI is forming the generalized inverse of G from B-inverse, IUseBI=4.

 GradGradGradGradGradGradGradGradGradGradGradGradGradGradGradGradGradGrad
 Berny optimization.
 Internal  Forces:  Max     0.014336809 RMS     0.005073730
 Search for a saddle point.
 Step number   2 out of a maximum of  100
 All quantities printed in internal units (Hartrees-Bohrs-Radians)
 Swapping is turned off.
 Second derivative matrix not updated -- analytic derivatives used.
 ITU=  0  0
     Eigenvalues ---   -0.09307  -0.00641   0.00032   0.00087   0.00177
     Eigenvalues ---    0.00491   0.01288   0.01397   0.01806   0.01854
     Eigenvalues ---    0.02409   0.03201   0.03555   0.04395   0.04524
     Eigenvalues ---    0.05350   0.06261   0.06800   0.08397   0.18236
     Eigenvalues ---    0.25578   0.29282   0.33515   0.34623   0.38246
     Eigenvalues ---    0.39120   0.41213   0.52356   0.52670   1.14767
 Eigenvectors required to have negative eigenvalues:
                          R7        R2        R11       R1        D20
   1                    0.53781   0.40171  -0.34812  -0.33592  -0.33115
                          A21       A18       A1        A15       A4
   1                   -0.28220   0.22260   0.10582   0.09216   0.09205
 RFO step:  Lambda0=3.483527535D-03 Lambda=-1.51891920D-02.
 Linear search not attempted -- option 19 set.
 Maximum step size (   0.300) exceeded in Quadratic search.
    -- Step size scaled by   0.458
 Iteration  1 RMS(Cart)=  0.02436289 RMS(Int)=  0.02964252
 Iteration  2 RMS(Cart)=  0.02201761 RMS(Int)=  0.01079590
 Iteration  3 RMS(Cart)=  0.01326141 RMS(Int)=  0.00400073
 Iteration  4 RMS(Cart)=  0.00015778 RMS(Int)=  0.00397225
 Iteration  5 RMS(Cart)=  0.00000518 RMS(Int)=  0.00397224
 Iteration  6 RMS(Cart)=  0.00000012 RMS(Int)=  0.00397224
 Variable       Old X    -DE/DX   Delta X   Delta X   Delta X     New X
                                 (Linear)    (Quad)   (Total)
    R1        4.21832   0.01089   0.00000  -0.00065   0.00578   4.22410
    R2        4.24836   0.00434   0.00000   0.17306   0.16778   4.41613
    R3        2.65111   0.00098   0.00000  -0.00062  -0.00062   2.65048
    R4        2.06531   0.00154   0.00000   0.00110   0.00110   2.06641
    R5        2.07529   0.00061   0.00000   0.00168   0.00168   2.07698
    R6        2.50725   0.00431   0.00000   0.00710   0.00733   2.51457
    R7        3.30191  -0.00826   0.00000   0.01917   0.01184   3.31375
    R8        2.03525   0.00638   0.00000   0.00287   0.00287   2.03812
    R9        2.03645   0.00370   0.00000   0.00264   0.00264   2.03909
   R10        2.17387   0.01434   0.00000  -0.00589  -0.00589   2.16798
   R11        3.64575   0.01363   0.00000   0.08009   0.08543   3.73117
   R12        2.73075   0.00875   0.00000   0.02402   0.02402   2.75477
   R13        1.82598   0.00705   0.00000   0.00621   0.00621   1.83219
    A1        1.70381  -0.00235   0.00000   0.01984   0.02031   1.72412
    A2        1.97011  -0.00137   0.00000  -0.04397  -0.04267   1.92744
    A3        2.06039  -0.00003   0.00000   0.00519   0.00332   2.06371
    A4        2.30439  -0.00246   0.00000   0.00785   0.00736   2.31174
    A5        1.75007   0.00033   0.00000  -0.02518  -0.02520   1.72487
    A6        1.69976  -0.00142   0.00000  -0.00500  -0.00453   1.69524
    A7        1.80734   0.00097   0.00000   0.00962   0.00962   1.81697
    A8        1.93914   0.00203   0.00000   0.00199   0.00215   1.94129
    A9        1.95026   0.00074   0.00000   0.01103   0.01072   1.96099
   A10        2.61059   0.00541   0.00000   0.10205   0.10287   2.71346
   A11        1.80056  -0.00350   0.00000  -0.10090  -0.09941   1.70115
   A12        1.66115  -0.00287   0.00000   0.00849   0.01004   1.67119
   A13        2.15688  -0.00621   0.00000  -0.03817  -0.03395   2.12292
   A14        2.14726  -0.00045   0.00000  -0.00768  -0.01139   2.13587
   A15        1.68486  -0.00159   0.00000   0.01428   0.01601   1.70087
   A16        1.71068  -0.00068   0.00000  -0.04922  -0.05154   1.65914
   A17        1.97903   0.00670   0.00000   0.04588   0.04536   2.02439
   A18        1.85790  -0.00084   0.00000   0.04342   0.06017   1.91807
   A19        2.33245  -0.00546   0.00000  -0.07576  -0.07592   2.25653
   A20        2.98343   0.00664   0.00000   0.10736   0.10262   3.08604
   A21        2.09019   0.00672   0.00000   0.03735   0.01838   2.10858
   A22        1.89636  -0.01149   0.00000  -0.01989  -0.01989   1.87647
   A23        1.78302  -0.00939   0.00000  -0.02119  -0.02119   1.76183
    D1        3.05355  -0.00022   0.00000   0.04012   0.04043   3.09398
    D2       -0.97846  -0.00358   0.00000   0.00834   0.00651  -0.97195
    D3        1.03745   0.00184   0.00000   0.03763   0.03646   1.07391
    D4        1.16431   0.00022   0.00000   0.03195   0.03239   1.19670
    D5       -2.86770  -0.00313   0.00000   0.00017  -0.00153  -2.86924
    D6       -0.85179   0.00229   0.00000   0.02946   0.02841  -0.82338
    D7       -1.15484   0.00063   0.00000   0.05841   0.05875  -1.09609
    D8        1.09633  -0.00273   0.00000   0.02662   0.02483   1.12116
    D9        3.11224   0.00269   0.00000   0.05592   0.05477  -3.11617
   D10       -2.92217  -0.00370   0.00000  -0.08579  -0.08317  -3.00535
   D11        0.13815   0.00311   0.00000  -0.00542  -0.00565   0.13251
   D12        1.28500  -0.00382   0.00000  -0.07750  -0.07443   1.21058
   D13       -1.93786   0.00299   0.00000   0.00288   0.00310  -1.93476
   D14       -0.70071  -0.00430   0.00000  -0.08211  -0.07906  -0.77977
   D15        2.35961   0.00251   0.00000  -0.00173  -0.00154   2.35808
   D16        1.20408  -0.00107   0.00000  -0.02277  -0.02405   1.18003
   D17        1.17217  -0.00285   0.00000  -0.03844  -0.03768   1.13449
   D18       -3.05745  -0.00305   0.00000  -0.06032  -0.06002  -3.11747
   D19       -0.96136  -0.00059   0.00000  -0.04063  -0.04041  -1.00177
   D20       -0.22173   0.00735   0.00000  -0.16236  -0.16175  -0.38348
   D21        2.92643  -0.00214   0.00000  -0.16885  -0.17149   2.75494
   D22        2.41695  -0.00037   0.00000   0.01345   0.01345   2.43040
         Item               Value     Threshold  Converged?
 Maximum Force            0.014337     0.000450     NO 
 RMS     Force            0.005074     0.000300     NO 
 Maximum Displacement     0.224891     0.001800     NO 
 RMS     Displacement     0.059393     0.001200     NO 
 Predicted change in Energy=-5.615003D-03
 GradGradGradGradGradGradGradGradGradGradGradGradGradGradGradGradGradGrad

                          Input orientation:                          
 ---------------------------------------------------------------------
 Center     Atomic      Atomic             Coordinates (Angstroms)
 Number     Number       Type             X           Y           Z
 ---------------------------------------------------------------------
      1          6           0        1.720047    1.454759   -2.313941
      2          6           0        0.490877    0.254621   -0.883780
      3          6           0        1.604716   -0.465933   -0.987734
      4          8           0        0.855308    2.547203   -2.475217
      5          8           0        0.807612    3.260259   -1.204649
      6          8           0        2.595777   -1.040869   -1.046198
      7          1           0        0.821769    4.180565   -1.509391
      8          1           0        1.734156    0.978499   -3.298172
      9          1           0        2.719159    1.782003   -1.993504
     10          1           0        0.113808   -1.130736    0.122984
     11          1           0        0.376724    1.013495   -0.125954
     12          1           0       -0.348308    0.120353   -1.548665
 ---------------------------------------------------------------------
                    Distance matrix (angstroms):
                    1          2          3          4          5
     1  C    0.000000
     2  C    2.235297   0.000000
     3  C    2.336917   1.330655   0.000000
     4  O    1.402575   2.814501   3.442849   0.000000
     5  O    2.307140   3.039266   3.816665   1.457762   0.000000
     6  O    2.932957   2.476949   1.147245   4.236224   4.660723
     7  H    2.980642   3.989225   4.740788   1.897846   0.969553
     8  H    1.093496   2.810522   2.727868   1.977488   3.232298
     9  H    1.099088   2.920552   2.703104   2.071598   2.541957
    10  H    3.899152   1.753558   1.974452   4.563738   4.639483
    11  H    2.605095   1.078528   2.106973   2.846110   2.529267
    12  H    2.577669   1.079042   2.114870   2.863004   3.363556
                    6          7          8          9         10
     6  O    0.000000
     7  H    5.533988   0.000000
     8  H    3.145096   3.779605   0.000000
     9  H    2.980138   3.096377   1.821540   0.000000
    10  H    2.745037   5.601408   4.333441   4.444257   0.000000
    11  H    3.160926   3.484580   3.450626   3.092790   2.174585
    12  H    3.204457   4.225630   2.851990   3.516862   2.138501
                   11         12
    11  H    0.000000
    12  H    1.829613   0.000000
 Stoichiometry    C3H6O3
 Framework group  C1[X(C3H6O3)]
 Deg. of freedom    30
 Full point group                 C1      NOp   1
 Largest Abelian subgroup         C1      NOp   1
 Largest concise Abelian subgroup C1      NOp   1
                         Standard orientation:                         
 ---------------------------------------------------------------------
 Center     Atomic      Atomic             Coordinates (Angstroms)
 Number     Number       Type             X           Y           Z
 ---------------------------------------------------------------------
      1          6           0       -0.417407   -0.878246    0.219881
      2          6           0        0.721594    1.041324    0.340211
      3          6           0        1.657111    0.169035   -0.026614
      4          8           0       -1.699568   -0.384586    0.501982
      5          8           0       -2.102394    0.456050   -0.618790
      6          8           0        2.434659   -0.587677   -0.399413
      7          1           0       -3.033549    0.202994   -0.713362
      8          1           0       -0.182809   -1.515730    1.076800
      9          1           0       -0.404209   -1.432202   -0.729304
     10          1           0        2.155270    2.050462    0.305847
     11          1           0        0.145470    1.591979   -0.386481
     12          1           0        0.490457    1.239519    1.375404
 ---------------------------------------------------------------------
 Rotational constants (GHZ):           7.7270872           1.7636847           1.6092518
 Standard basis: 6-31+G(d) (6D, 7F)
 There are   126 symmetry adapted cartesian basis functions of A   symmetry.
 There are   126 symmetry adapted basis functions of A   symmetry.
   126 basis functions,   216 primitive gaussians,   126 cartesian basis functions
    24 alpha electrons       24 beta electrons
       nuclear repulsion energy       231.4156553020 Hartrees.
 NAtoms=   12 NActive=   12 NUniq=   12 SFac= 1.00D+00 NAtFMM=   60 NAOKFM=F Big=F
 Integral buffers will be    131072 words long.
 Raffenetti 2 integral format.
 Two-electron integral symmetry is turned on.
 One-electron integrals computed using PRISM.
 NBasis=   126 RedAO= T EigKep=  5.12D-05  NBF=   126
 NBsUse=   126 1.00D-06 EigRej= -1.00D+00 NBFU=   126
 Initial guess from the checkpoint file:  "/scratch/bell/zhao922/YARP/paper-example/KHP-network/pp_0/TS-folder/Gau-21381.chk"
 B after Tr=    -0.000000    0.000000   -0.000000
         Rot=    0.999810   -0.019244    0.002836   -0.000970 Ang=  -2.23 deg.
 ExpMin= 4.38D-02 ExpMax= 5.48D+03 ExpMxC= 8.25D+02 IAcc=3 IRadAn=         5 AccDes= 0.00D+00
 Harris functional with IExCor=  402 and IRadAn=       5 diagonalized for initial guess.
 HarFok:  IExCor=  402 AccDes= 0.00D+00 IRadAn=         5 IDoV= 1 UseB2=F ITyADJ=14
 ICtDFT=  3500011 ScaDFX=  1.000000  1.000000  1.000000  1.000000
 FoFCou: FMM=F IPFlag=           0 FMFlag=      100000 FMFlg1=           0
         NFxFlg=           0 DoJE=T BraDBF=F KetDBF=T FulRan=T
         wScrn=  0.000000 ICntrl=       500 IOpCl=  0 I1Cent=   200000004 NGrid=           0
         NMat0=    1 NMatS0=      1 NMatT0=    0 NMatD0=    1 NMtDS0=    0 NMtDT0=    0
 Petite list used in FoFCou.
 Keep R1 ints in memory in canonical form, NReq=47237561.
 Requested convergence on RMS density matrix=1.00D-08 within 128 cycles.
 Requested convergence on MAX density matrix=1.00D-06.
 Requested convergence on             energy=1.00D-06.
 No special actions if energy rises.
 EnCoef did     2 forward-backward iterations
 SCF Done:  E(RB3LYP) =  -343.287115040     A.U. after   15 cycles
            NFock= 15  Conv=0.29D-08     -V/T= 2.0088
 DoSCS=F DFT=T ScalE2(SS,OS)=  1.000000  1.000000
 Range of M.O.s used for correlation:     1   126
 NBasis=   126 NAE=    24 NBE=    24 NFC=     0 NFV=     0
 NROrb=    126 NOA=    24 NOB=    24 NVA=   102 NVB=   102

 **** Warning!!: The largest alpha MO coefficient is  0.33104299D+02


 **** Warning!!: The smallest alpha delta epsilon is  0.85155111D-01

 Symmetrizing basis deriv contribution to polar:
 IMax=3 JMax=2 DiffMx= 0.00D+00
 G2DrvN: will do    13 centers at a time, making    1 passes.
 Calling FoFCou, ICntrl=  3107 FMM=F I1Cent=   0 AccDes= 0.00D+00.
 End of G2Drv F.D. properties file   721 does not exist.
 End of G2Drv F.D. properties file   722 does not exist.
 End of G2Drv F.D. properties file   788 does not exist.
          IDoAtm=111111111111
          Differentiating once with respect to electric field.
                with respect to dipole field.
          Differentiating once with respect to nuclear coordinates.
 Keep R1 ints in memory in canonical form, NReq=47193583.
          There are    39 degrees of freedom in the 1st order CPHF.  IDoFFX=6 NUNeed=     3.
     36 vectors produced by pass  0 Test12= 6.28D-15 2.56D-09 XBig12= 3.12D+02 1.62D+01.
 AX will form    36 AO Fock derivatives at one time.
     36 vectors produced by pass  1 Test12= 6.28D-15 2.56D-09 XBig12= 9.92D+01 3.82D+00.
     36 vectors produced by pass  2 Test12= 6.28D-15 2.56D-09 XBig12= 9.98D-01 1.81D-01.
     36 vectors produced by pass  3 Test12= 6.28D-15 2.56D-09 XBig12= 3.67D-03 1.14D-02.
     36 vectors produced by pass  4 Test12= 6.28D-15 2.56D-09 XBig12= 6.78D-06 4.14D-04.
     29 vectors produced by pass  5 Test12= 6.28D-15 2.56D-09 XBig12= 8.36D-09 1.32D-05.
      7 vectors produced by pass  6 Test12= 6.28D-15 2.56D-09 XBig12= 6.43D-12 3.49D-07.
      3 vectors produced by pass  7 Test12= 6.28D-15 2.56D-09 XBig12= 5.84D-15 1.26D-08.
 InvSVY:  IOpt=1 It=  1 EMax= 3.66D-15
 Solved reduced A of dimension   219 with    39 vectors.
 Isotropic polarizability for W=    0.000000       85.46 Bohr**3.
 End of Minotr F.D. properties file   721 does not exist.
 End of Minotr F.D. properties file   722 does not exist.
 End of Minotr F.D. properties file   788 does not exist.
 Calling FoFJK, ICntrl=    100127 FMM=F ISym2X=0 I1Cent= 0 IOpClX= 0 NMat=1 NMatS=1 NMatT=0.
 ***** Axes restored to original set *****
 -------------------------------------------------------------------
 Center     Atomic                   Forces (Hartrees/Bohr)
 Number     Number              X              Y              Z
 -------------------------------------------------------------------
      1        6           0.004825773    0.009857291   -0.007135473
      2        6          -0.020253367   -0.015497498    0.016148034
      3        6           0.010289765    0.016025059   -0.009312854
      4        8          -0.000497045    0.000410431   -0.008562146
      5        8          -0.000891734   -0.004686777    0.011507514
      6        8           0.007153917   -0.011010850    0.001837052
      7        1           0.000162275    0.002845366   -0.004036645
      8        1          -0.000752949   -0.001515784   -0.000181374
      9        1           0.000371789   -0.000950442    0.000408752
     10        1          -0.008601858    0.004211886    0.000884301
     11        1           0.006411070    0.002683357    0.003706626
     12        1           0.001782364   -0.002372039   -0.005263786
 -------------------------------------------------------------------
 Cartesian Forces:  Max     0.020253367 RMS     0.007739153
 FormGI is forming the generalized inverse of G from B-inverse, IUseBI=4.

 GradGradGradGradGradGradGradGradGradGradGradGradGradGradGradGradGradGrad
 Berny optimization.
 Internal  Forces:  Max     0.011604426 RMS     0.003503862
 Search for a saddle point.
 Step number   3 out of a maximum of  100
 All quantities printed in internal units (Hartrees-Bohrs-Radians)
 Swapping is turned off.
 Second derivative matrix not updated -- analytic derivatives used.
 ITU=  0  0  0
     Eigenvalues ---   -0.09534  -0.00173   0.00018   0.00130   0.00215
     Eigenvalues ---    0.00508   0.01219   0.01317   0.01812   0.01975
     Eigenvalues ---    0.02499   0.02867   0.03819   0.04292   0.04858
     Eigenvalues ---    0.05523   0.05710   0.06711   0.08313   0.17483
     Eigenvalues ---    0.24994   0.28442   0.33275   0.34492   0.38061
     Eigenvalues ---    0.38701   0.41701   0.51227   0.51365   1.18091
 Eigenvectors required to have negative eigenvalues:
                          R7        R2        R1        R11       A21
   1                    0.52120   0.39398  -0.37514  -0.35466  -0.26393
                          D20       A18       D21       A20       A1
   1                   -0.23914   0.22653   0.17912  -0.14360   0.10741
 RFO step:  Lambda0=2.258916859D-03 Lambda=-7.03714433D-03.
 Linear search not attempted -- option 19 set.
 Maximum step size (   0.300) exceeded in Quadratic search.
    -- Step size scaled by   0.671
 Iteration  1 RMS(Cart)=  0.00942184 RMS(Int)=  0.07217982
 Iteration  2 RMS(Cart)=  0.00845816 RMS(Int)=  0.06394913
 Iteration  3 RMS(Cart)=  0.00726836 RMS(Int)=  0.05628502
 Iteration  4 RMS(Cart)=  0.00633549 RMS(Int)=  0.04899126
 Iteration  5 RMS(Cart)=  0.00559402 RMS(Int)=  0.04190870
 Iteration  6 RMS(Cart)=  0.00477955 RMS(Int)=  0.03558540
 Iteration  7 RMS(Cart)=  0.00378101 RMS(Int)=  0.03075299
 Iteration  8 RMS(Cart)=  0.00317863 RMS(Int)=  0.02678817
 Iteration  9 RMS(Cart)=  0.00280713 RMS(Int)=  0.02335069
 Iteration 10 RMS(Cart)=  0.00259045 RMS(Int)=  0.02022532
 Iteration 11 RMS(Cart)=  0.00248495 RMS(Int)=  0.01726613
 Iteration 12 RMS(Cart)=  0.00246240 RMS(Int)=  0.01437322
 Iteration 13 RMS(Cart)=  0.00249786 RMS(Int)=  0.01149229
 Iteration 14 RMS(Cart)=  0.00256792 RMS(Int)=  0.00863152
 Iteration 15 RMS(Cart)=  0.00263087 RMS(Int)=  0.00594835
 Iteration 16 RMS(Cart)=  0.00261041 RMS(Int)=  0.00396483
 Iteration 17 RMS(Cart)=  0.00224365 RMS(Int)=  0.00335366
 Iteration 18 RMS(Cart)=  0.00058783 RMS(Int)=  0.00332181
 Iteration 19 RMS(Cart)=  0.00001433 RMS(Int)=  0.00332176
 Iteration 20 RMS(Cart)=  0.00000013 RMS(Int)=  0.00332176
 Variable       Old X    -DE/DX   Delta X   Delta X   Delta X     New X
                                 (Linear)    (Quad)   (Total)
    R1        4.22410   0.00833   0.00000   0.01094   0.01561   4.23971
    R2        4.41613   0.00238   0.00000   0.21772   0.21384   4.62998
    R3        2.65048  -0.00023   0.00000  -0.00923  -0.00923   2.64125
    R4        2.06641   0.00081   0.00000  -0.00052  -0.00052   2.06589
    R5        2.07698   0.00017   0.00000  -0.00010  -0.00010   2.07688
    R6        2.51457   0.00427   0.00000   0.01337   0.01386   2.52844
    R7        3.31375  -0.00703   0.00000   0.03906   0.03393   3.34767
    R8        2.03812   0.00381   0.00000   0.00351   0.00351   2.04163
    R9        2.03909   0.00215   0.00000   0.00240   0.00240   2.04150
   R10        2.16798   0.01160   0.00000   0.00053   0.00053   2.16851
   R11        3.73117   0.01009   0.00000   0.05236   0.05607   3.78725
   R12        2.75477   0.00563   0.00000   0.03062   0.03062   2.78539
   R13        1.83219   0.00397   0.00000   0.00543   0.00543   1.83762
    A1        1.72412  -0.00242   0.00000   0.01043   0.01092   1.73505
    A2        1.92744  -0.00066   0.00000  -0.02996  -0.02804   1.89940
    A3        2.06371   0.00006   0.00000  -0.01458  -0.01704   2.04667
    A4        2.31174  -0.00209   0.00000  -0.00671  -0.00717   2.30457
    A5        1.72487   0.00009   0.00000  -0.01269  -0.01292   1.71196
    A6        1.69524  -0.00089   0.00000  -0.01633  -0.01586   1.67938
    A7        1.81697   0.00087   0.00000   0.01030   0.01004   1.82700
    A8        1.94129   0.00170   0.00000   0.01274   0.01313   1.95442
    A9        1.96099   0.00035   0.00000   0.01475   0.01422   1.97520
   A10        2.71346   0.00344   0.00000   0.09608   0.09643   2.80988
   A11        1.70115  -0.00156   0.00000  -0.06289  -0.06076   1.64039
   A12        1.67119  -0.00230   0.00000  -0.01204  -0.01074   1.66046
   A13        2.12292  -0.00345   0.00000  -0.02073  -0.01599   2.10693
   A14        2.13587  -0.00074   0.00000  -0.02652  -0.03063   2.10523
   A15        1.70087  -0.00127   0.00000  -0.01055  -0.00976   1.69111
   A16        1.65914   0.00006   0.00000  -0.03027  -0.03150   1.62764
   A17        2.02439   0.00417   0.00000   0.04732   0.04641   2.07080
   A18        1.91807  -0.00069   0.00000   0.07248   0.08544   2.00351
   A19        2.25653  -0.00408   0.00000  -0.07062  -0.07048   2.18605
   A20        3.08604   0.00384   0.00000   0.05709   0.05301   3.13905
   A21        2.10858   0.00478   0.00000  -0.00175  -0.01522   2.09336
   A22        1.87647  -0.00614   0.00000  -0.01379  -0.01379   1.86268
   A23        1.76183  -0.00539   0.00000  -0.02095  -0.02095   1.74088
    D1        3.09398  -0.00003   0.00000   0.04693   0.04682   3.14080
    D2       -0.97195  -0.00204   0.00000   0.01086   0.00910  -0.96285
    D3        1.07391   0.00150   0.00000   0.04558   0.04475   1.11866
    D4        1.19670   0.00028   0.00000   0.03956   0.03922   1.23592
    D5       -2.86924  -0.00173   0.00000   0.00349   0.00151  -2.86773
    D6       -0.82338   0.00180   0.00000   0.03822   0.03716  -0.78623
    D7       -1.09609   0.00039   0.00000   0.06295   0.06228  -1.03381
    D8        1.12116  -0.00162   0.00000   0.02688   0.02456   1.14573
    D9       -3.11617   0.00191   0.00000   0.06161   0.06021  -3.05596
   D10       -3.00535  -0.00224   0.00000  -0.03841  -0.03327  -3.03861
   D11        0.13251   0.00137   0.00000  -0.00239  -0.00458   0.12793
   D12        1.21058  -0.00225   0.00000  -0.03521  -0.02926   1.18131
   D13       -1.93476   0.00136   0.00000   0.00081  -0.00057  -1.93533
   D14       -0.77977  -0.00242   0.00000  -0.04413  -0.03795  -0.81773
   D15        2.35808   0.00118   0.00000  -0.00811  -0.00926   2.34881
   D16        1.18003  -0.00123   0.00000  -0.08091  -0.08281   1.09722
   D17        1.13449  -0.00212   0.00000  -0.09378  -0.09254   1.04195
   D18       -3.11747  -0.00252   0.00000  -0.10647  -0.10619   3.05952
   D19       -1.00177  -0.00068   0.00000  -0.07584  -0.07546  -1.07723
   D20       -0.38348   0.00400   0.00000  -0.35914  -0.35735  -0.74084
   D21        2.75494  -0.00296   0.00000  -0.32934  -0.33120   2.42373
   D22        2.43040   0.00000   0.00000   0.03871   0.03871   2.46911
         Item               Value     Threshold  Converged?
 Maximum Force            0.011604     0.000450     NO 
 RMS     Force            0.003504     0.000300     NO 
 Maximum Displacement     0.253290     0.001800     NO 
 RMS     Displacement     0.072224     0.001200     NO 
 Predicted change in Energy=-2.758200D-03
 GradGradGradGradGradGradGradGradGradGradGradGradGradGradGradGradGradGrad

                          Input orientation:                          
 ---------------------------------------------------------------------
 Center     Atomic      Atomic             Coordinates (Angstroms)
 Number     Number       Type             X           Y           Z
 ---------------------------------------------------------------------
      1          6           0        1.730713    1.495533   -2.353918
      2          6           0        0.535018    0.267554   -0.906182
      3          6           0        1.622813   -0.510208   -0.950978
      4          8           0        0.866774    2.584785   -2.497707
      5          8           0        0.759521    3.219039   -1.171509
      6          8           0        2.557449   -1.174904   -0.989030
      7          1           0        0.744754    4.154380   -1.437094
      8          1           0        1.718799    1.001849   -3.329246
      9          1           0        2.736582    1.807055   -2.039175
     10          1           0        0.054581   -1.052807    0.172743
     11          1           0        0.455352    1.063728   -0.180237
     12          1           0       -0.290710    0.098216   -1.581887
 ---------------------------------------------------------------------
                    Distance matrix (angstroms):
                    1          2          3          4          5
     1  C    0.000000
     2  C    2.243559   0.000000
     3  C    2.450078   1.337991   0.000000
     4  O    1.397689   2.830649   3.541603   0.000000
     5  O    2.304729   2.971878   3.834213   1.473967   0.000000
     6  O    3.110892   2.485514   1.147525   4.389733   4.751061
     7  H    2.980293   3.928520   4.771339   1.898267   0.972428
     8  H    1.093220   2.794953   2.819873   1.980680   3.239131
     9  H    1.099037   2.915582   2.791838   2.076366   2.579789
    10  H    3.960741   1.771512   2.004124   4.585089   4.533500
    11  H    2.556929   1.080386   2.105773   2.802418   2.391758
    12  H    2.575787   1.080314   2.104708   2.891630   3.318273
                    6          7          8          9         10
     6  O    0.000000
     7  H    5.646937   0.000000
     8  H    3.304269   3.803611   0.000000
     9  H    3.166540   3.136848   1.829897   0.000000
    10  H    2.762059   5.493880   4.388070   4.501613   0.000000
    11  H    3.175600   3.348966   3.393579   3.035160   2.182873
    12  H    3.175582   4.188750   2.812106   3.506243   2.126689
                   11         12
    11  H    0.000000
    12  H    1.858344   0.000000
 Stoichiometry    C3H6O3
 Framework group  C1[X(C3H6O3)]
 Deg. of freedom    30
 Full point group                 C1      NOp   1
 Largest Abelian subgroup         C1      NOp   1
 Largest concise Abelian subgroup C1      NOp   1
                         Standard orientation:                         
 ---------------------------------------------------------------------
 Center     Atomic      Atomic             Coordinates (Angstroms)
 Number     Number       Type             X           Y           Z
 ---------------------------------------------------------------------
      1          6           0       -0.486031   -0.933153    0.161450
      2          6           0        0.698465    0.958461    0.390190
      3          6           0        1.693765    0.169023   -0.029794
      4          8           0       -1.760927   -0.441437    0.455376
      5          8           0       -2.080714    0.555341   -0.582290
      6          8           0        2.545683   -0.509025   -0.392148
      7          1           0       -3.024664    0.360973   -0.711895
      8          1           0       -0.248136   -1.601177    0.993483
      9          1           0       -0.453251   -1.432514   -0.817042
     10          1           0        2.065745    2.084213    0.428674
     11          1           0        0.095982    1.510309   -0.316714
     12          1           0        0.494792    1.073185    1.444910
 ---------------------------------------------------------------------
 Rotational constants (GHZ):           7.8549340           1.6982259           1.5485445
 Standard basis: 6-31+G(d) (6D, 7F)
 There are   126 symmetry adapted cartesian basis functions of A   symmetry.
 There are   126 symmetry adapted basis functions of A   symmetry.
   126 basis functions,   216 primitive gaussians,   126 cartesian basis functions
    24 alpha electrons       24 beta electrons
       nuclear repulsion energy       229.5364548435 Hartrees.
 NAtoms=   12 NActive=   12 NUniq=   12 SFac= 1.00D+00 NAtFMM=   60 NAOKFM=F Big=F
 Integral buffers will be    131072 words long.
 Raffenetti 2 integral format.
 Two-electron integral symmetry is turned on.
 One-electron integrals computed using PRISM.
 NBasis=   126 RedAO= T EigKep=  5.14D-05  NBF=   126
 NBsUse=   126 1.00D-06 EigRej= -1.00D+00 NBFU=   126
 Initial guess from the checkpoint file:  "/scratch/bell/zhao922/YARP/paper-example/KHP-network/pp_0/TS-folder/Gau-21381.chk"
 B after Tr=    -0.000000   -0.000000   -0.000000
         Rot=    0.999235   -0.038695    0.005631   -0.000039 Ang=  -4.48 deg.
 ExpMin= 4.38D-02 ExpMax= 5.48D+03 ExpMxC= 8.25D+02 IAcc=3 IRadAn=         5 AccDes= 0.00D+00
 Harris functional with IExCor=  402 and IRadAn=       5 diagonalized for initial guess.
 HarFok:  IExCor=  402 AccDes= 0.00D+00 IRadAn=         5 IDoV= 1 UseB2=F ITyADJ=14
 ICtDFT=  3500011 ScaDFX=  1.000000  1.000000  1.000000  1.000000
 FoFCou: FMM=F IPFlag=           0 FMFlag=      100000 FMFlg1=           0
         NFxFlg=           0 DoJE=T BraDBF=F KetDBF=T FulRan=T
         wScrn=  0.000000 ICntrl=       500 IOpCl=  0 I1Cent=   200000004 NGrid=           0
         NMat0=    1 NMatS0=      1 NMatT0=    0 NMatD0=    1 NMtDS0=    0 NMtDT0=    0
 Petite list used in FoFCou.
 Keep R1 ints in memory in canonical form, NReq=47237561.
 Requested convergence on RMS density matrix=1.00D-08 within 128 cycles.
 Requested convergence on MAX density matrix=1.00D-06.
 Requested convergence on             energy=1.00D-06.
 No special actions if energy rises.
 SCF Done:  E(RB3LYP) =  -343.289573264     A.U. after   15 cycles
            NFock= 15  Conv=0.48D-08     -V/T= 2.0090
 DoSCS=F DFT=T ScalE2(SS,OS)=  1.000000  1.000000
 Range of M.O.s used for correlation:     1   126
 NBasis=   126 NAE=    24 NBE=    24 NFC=     0 NFV=     0
 NROrb=    126 NOA=    24 NOB=    24 NVA=   102 NVB=   102

 **** Warning!!: The largest alpha MO coefficient is  0.38324224D+02


 **** Warning!!: The smallest alpha delta epsilon is  0.83120354D-01

 Symmetrizing basis deriv contribution to polar:
 IMax=3 JMax=2 DiffMx= 0.00D+00
 G2DrvN: will do    13 centers at a time, making    1 passes.
 Calling FoFCou, ICntrl=  3107 FMM=F I1Cent=   0 AccDes= 0.00D+00.
 End of G2Drv F.D. properties file   721 does not exist.
 End of G2Drv F.D. properties file   722 does not exist.
 End of G2Drv F.D. properties file   788 does not exist.
          IDoAtm=111111111111
          Differentiating once with respect to electric field.
                with respect to dipole field.
          Differentiating once with respect to nuclear coordinates.
 Keep R1 ints in memory in canonical form, NReq=47193583.
          There are    39 degrees of freedom in the 1st order CPHF.  IDoFFX=6 NUNeed=     3.
     36 vectors produced by pass  0 Test12= 6.28D-15 2.56D-09 XBig12= 3.59D+02 1.72D+01.
 AX will form    36 AO Fock derivatives at one time.
     36 vectors produced by pass  1 Test12= 6.28D-15 2.56D-09 XBig12= 1.08D+02 4.39D+00.
     36 vectors produced by pass  2 Test12= 6.28D-15 2.56D-09 XBig12= 1.05D+00 1.80D-01.
     36 vectors produced by pass  3 Test12= 6.28D-15 2.56D-09 XBig12= 3.82D-03 9.17D-03.
     36 vectors produced by pass  4 Test12= 6.28D-15 2.56D-09 XBig12= 5.61D-06 3.29D-04.
     29 vectors produced by pass  5 Test12= 6.28D-15 2.56D-09 XBig12= 6.15D-09 1.32D-05.
      6 vectors produced by pass  6 Test12= 6.28D-15 2.56D-09 XBig12= 4.49D-12 4.11D-07.
      3 vectors produced by pass  7 Test12= 6.28D-15 2.56D-09 XBig12= 4.23D-15 1.41D-08.
 InvSVY:  IOpt=1 It=  1 EMax= 3.55D-15
 Solved reduced A of dimension   218 with    39 vectors.
 Isotropic polarizability for W=    0.000000       87.69 Bohr**3.
 End of Minotr F.D. properties file   721 does not exist.
 End of Minotr F.D. properties file   722 does not exist.
 End of Minotr F.D. properties file   788 does not exist.
 Calling FoFJK, ICntrl=    100127 FMM=F ISym2X=0 I1Cent= 0 IOpClX= 0 NMat=1 NMatS=1 NMatT=0.
 ***** Axes restored to original set *****
 -------------------------------------------------------------------
 Center     Atomic                   Forces (Hartrees/Bohr)
 Number     Number              X              Y              Z
 -------------------------------------------------------------------
      1        6           0.001985655    0.004794850   -0.004988611
      2        6          -0.009196956   -0.005216045    0.008362893
      3        6           0.002231179    0.001993783   -0.002959737
      4        8           0.001258792   -0.000032935   -0.003090813
      5        8          -0.001134068   -0.001590125    0.004900108
      6        8           0.005260930   -0.002776639    0.000198791
      7        1          -0.000118682    0.001070814   -0.001347387
      8        1          -0.000474857   -0.000909907    0.000105162
      9        1           0.000085393   -0.000383925   -0.000048175
     10        1          -0.003891088    0.002876676   -0.000054405
     11        1           0.002822783    0.000661389    0.001499171
     12        1           0.001170918   -0.000487935   -0.002576998
 -------------------------------------------------------------------
 Cartesian Forces:  Max     0.009196956 RMS     0.003215297
 FormGI is forming the generalized inverse of G from B-inverse, IUseBI=4.

 GradGradGradGradGradGradGradGradGradGradGradGradGradGradGradGradGradGrad
 Berny optimization.
 Internal  Forces:  Max     0.005886747 RMS     0.001677704
 Search for a saddle point.
 Step number   4 out of a maximum of  100
 All quantities printed in internal units (Hartrees-Bohrs-Radians)
 Swapping is turned off.
 Second derivative matrix not updated -- analytic derivatives used.
 ITU=  0  0  0  0
     Eigenvalues ---   -0.10610  -0.00004   0.00002   0.00178   0.00240
     Eigenvalues ---    0.00544   0.01053   0.01341   0.01956   0.02141
     Eigenvalues ---    0.02454   0.02791   0.03981   0.04118   0.04873
     Eigenvalues ---    0.05215   0.05832   0.06652   0.08718   0.16025
     Eigenvalues ---    0.23933   0.27865   0.33233   0.34585   0.37808
     Eigenvalues ---    0.38227   0.42835   0.49150   0.50337   1.17995
 Eigenvectors required to have negative eigenvalues:
                          R7        R1        R2        R11       A20
   1                    0.49643  -0.43583   0.37332  -0.37228  -0.22166
                          D21       D20       A21       A18       D10
   1                    0.21398  -0.20938  -0.15985   0.14950   0.12678
 RFO step:  Lambda0=4.835265971D-04 Lambda=-2.70660231D-03.
 Linear search not attempted -- option 19 set.
 Iteration  1 RMS(Cart)=  0.07852409 RMS(Int)=  0.00902790
 Iteration  2 RMS(Cart)=  0.00610488 RMS(Int)=  0.00145069
 Iteration  3 RMS(Cart)=  0.00009637 RMS(Int)=  0.00144621
[...]
   D22        1.52828   0.00000   0.00000  -0.00022  -0.00022   1.52806
         Item               Value     Threshold  Converged?
 Maximum Force            0.000012     0.000450     YES
 RMS     Force            0.000004     0.000300     YES
 Maximum Displacement     0.001362     0.001800     YES
 RMS     Displacement     0.000326     0.001200     YES
 Predicted change in Energy=-4.228359D-09
 Optimization completed.
    -- Stationary point found.
                           ----------------------------
                           !   Optimized Parameters   !
                           ! (Angstroms and Degrees)  !
 --------------------------                            --------------------------
 ! Name  Definition              Value          Derivative Info.                !
 --------------------------------------------------------------------------------
 ! R1    R(1,2)                  1.4906         -DE/DX =    0.0                 !
 ! R2    R(1,3)                  2.5387         -DE/DX =    0.0                 !
 ! R3    R(1,4)                  1.3909         -DE/DX =    0.0                 !
 ! R4    R(1,8)                  1.1155         -DE/DX =    0.0                 !
 ! R5    R(1,9)                  1.0967         -DE/DX =    0.0                 !
 ! R6    R(2,3)                  1.4474         -DE/DX =    0.0                 !
 ! R7    R(2,10)                 2.1629         -DE/DX =    0.0                 !
 ! R8    R(2,11)                 1.6104         -DE/DX =    0.0                 !
 ! R9    R(2,12)                 1.0909         -DE/DX =    0.0                 !
 ! R10   R(3,6)                  1.2335         -DE/DX =    0.0                 !
 ! R11   R(3,10)                 1.1111         -DE/DX =    0.0                 !
 ! R12   R(4,5)                  1.8196         -DE/DX =    0.0                 !
 ! R13   R(5,7)                  0.9756         -DE/DX =    0.0                 !
 ! A1    A(2,1,4)              113.4004         -DE/DX =    0.0                 !
 ! A2    A(2,1,8)              109.181          -DE/DX =    0.0                 !
 ! A3    A(2,1,9)              111.945          -DE/DX =    0.0                 !
 ! A4    A(3,1,4)              135.3681         -DE/DX =    0.0                 !
 ! A5    A(3,1,8)              115.6256         -DE/DX =    0.0                 !
 ! A6    A(3,1,9)               82.9755         -DE/DX =    0.0                 !
 ! A7    A(4,1,8)               97.8956         -DE/DX =    0.0                 !
 ! A8    A(4,1,9)              113.4428         -DE/DX =    0.0                 !
 ! A9    A(8,1,9)              110.0291         -DE/DX =    0.0                 !
 ! A10   A(1,2,10)             146.8879         -DE/DX =    0.0                 !
 ! A11   A(1,2,11)              81.5511         -DE/DX =    0.0                 !
 ! A12   A(1,2,12)             117.9331         -DE/DX =    0.0                 !
 ! A13   A(3,2,11)             111.4492         -DE/DX =    0.0                 !
 ! A14   A(3,2,12)             116.7889         -DE/DX =    0.0                 !
 ! A15   A(10,2,11)            111.6746         -DE/DX =    0.0                 !
 ! A16   A(10,2,12)             90.2584         -DE/DX =    0.0                 !
 ! A17   A(11,2,12)            100.5994         -DE/DX =    0.0                 !
 ! A18   A(1,3,6)               95.5702         -DE/DX =    0.0                 !
 ! A19   A(1,3,10)             145.0023         -DE/DX =    0.0                 !
 ! A20   A(2,3,6)              125.7625         -DE/DX =    0.0                 !
 ! A21   A(6,3,10)             119.3509         -DE/DX =    0.0                 !
 ! A22   A(1,4,5)              101.5473         -DE/DX =    0.0                 !
 ! A23   A(4,5,7)               94.5514         -DE/DX =    0.0                 !
 ! D1    D(4,1,2,10)          -150.8769         -DE/DX =    0.0                 !
 ! D2    D(4,1,2,11)           -33.7631         -DE/DX =    0.0                 !
 ! D3    D(4,1,2,12)            63.8062         -DE/DX =    0.0                 !
 ! D4    D(8,1,2,10)           101.1233         -DE/DX =    0.0                 !
 ! D5    D(8,1,2,11)          -141.763          -DE/DX =    0.0                 !
 ! D6    D(8,1,2,12)           -44.1937         -DE/DX =    0.0                 !
 ! D7    D(9,1,2,10)           -20.9575         -DE/DX =    0.0                 !
 ! D8    D(9,1,2,11)            96.1562         -DE/DX =    0.0                 !
 ! D9    D(9,1,2,12)          -166.2745         -DE/DX =    0.0                 !
 ! D10   D(4,1,3,6)           -119.5619         -DE/DX =    0.0                 !
 ! D11   D(4,1,3,10)            64.0994         -DE/DX =    0.0                 !
 ! D12   D(8,1,3,6)            105.7915         -DE/DX =    0.0                 !
 ! D13   D(8,1,3,10)           -70.5472         -DE/DX =    0.0                 !
 ! D14   D(9,1,3,6)             -3.0911         -DE/DX =    0.0                 !
 ! D15   D(9,1,3,10)          -179.4298         -DE/DX =    0.0                 !
 ! D16   D(2,1,4,5)             39.8294         -DE/DX =    0.0                 !
 ! D17   D(3,1,4,5)             15.117          -DE/DX =    0.0                 !
 ! D18   D(8,1,4,5)            154.7549         -DE/DX =    0.0                 !
 ! D19   D(9,1,4,5)            -89.3311         -DE/DX =    0.0                 !
 ! D20   D(11,2,3,6)           -80.3676         -DE/DX =    0.0                 !
 ! D21   D(12,2,3,6)           164.8132         -DE/DX =    0.0                 !
 ! D22   D(1,4,5,7)             87.5641         -DE/DX =    0.0                 !
 --------------------------------------------------------------------------------
 GradGradGradGradGradGradGradGradGradGradGradGradGradGradGradGradGradGrad


 ----------------------------------------------------------------------

 Electric dipole moment (input orientation):
 (Debye = 10**-18 statcoulomb cm , SI units = C m)
                  (au)            (Debye)         (10**-30 SI)
   Tot        0.703727D+00      0.178870D+01      0.596645D+01
   x         -0.465973D+00     -0.118439D+01     -0.395068D+01
   y          0.473633D+00      0.120386D+01      0.401563D+01
   z         -0.231889D+00     -0.589403D+00     -0.196604D+01

 Dipole polarizability, Alpha (input orientation).
 (esu units = cm**3 , SI units = C**2 m**2 J**-1)
 Alpha(0;0):
               (au)            (10**-24 esu)      (10**-40 SI)
   iso        0.682766D+02      0.101175D+02      0.112573D+02
   aniso      0.447108D+02      0.662546D+01      0.737182D+01
   xx         0.532489D+02      0.789067D+01      0.877955D+01
   yx        -0.811692D+01     -0.120280D+01     -0.133830D+01
   yy         0.917982D+02      0.136031D+02      0.151355D+02
   zx        -0.115643D+00     -0.171365D-01     -0.190670D-01
   zy        -0.132224D+02     -0.195936D+01     -0.218009D+01
   zz         0.597827D+02      0.885888D+01      0.985684D+01

 ----------------------------------------------------------------------

 Dipole orientation:
     6          5.80239707          0.38941690          1.21516086
     6          3.09111484          0.93352292          0.67947462
     6          2.11172144          0.55130799         -1.84561672
     8          6.20993238         -0.63452978          3.60132168
     8          3.53860672         -2.77959493          3.89526234
     8          3.20289716         -0.56741313         -3.57516275
     1          4.39914251         -4.19634587          3.08829660
     1          6.83032064          2.20744173          1.50079188
     1          6.69062440         -0.69608658         -0.31052352
     1          0.15878730          1.25997533         -2.14910935
     1          2.71726878         -1.54516470          2.40512450
     1          2.14291081          2.34956401          1.83931788

 Electric dipole moment (dipole orientation):
 (Debye = 10**-18 statcoulomb cm , SI units = C m)
                  (au)            (Debye)         (10**-30 SI)
   Tot        0.703727D+00      0.178870D+01      0.596645D+01
   x          0.000000D+00      0.000000D+00      0.000000D+00
   y          0.000000D+00      0.000000D+00      0.000000D+00
   z          0.703727D+00      0.178870D+01      0.596645D+01

 Dipole polarizability, Alpha (dipole orientation).
 (esu units = cm**3 , SI units = C**2 m**2 J**-1)
 Alpha(0;0):
               (au)            (10**-24 esu)      (10**-40 SI)
   iso        0.682766D+02      0.101175D+02      0.112573D+02
   aniso      0.447108D+02      0.662546D+01      0.737182D+01
   xx         0.627700D+02      0.930155D+01      0.103494D+02
   yx        -0.387145D+01     -0.573690D+00     -0.638316D+00
   yy         0.575906D+02      0.853404D+01      0.949540D+01
   zx         0.155904D+02      0.231025D+01      0.257050D+01
   zy        -0.143160D+02     -0.212141D+01     -0.236038D+01
   zz         0.844692D+02      0.125171D+02      0.139271D+02

 ----------------------------------------------------------------------
 1\1\GINC-BELL-A064\Freq\RB3LYP\6-31+G(d)\C3H6O3\ZHAO922\23-Dec-2020\0\
 \#N Geom=AllCheck Guess=TCheck SCRF=Check GenChk RB3LYP/6-31+G(d) Freq
 \\pp_2_0 TS\\0,1\C,1.5630593909,1.3261480852,-2.3837121818\C,0.6926453
 033,0.4646074366,-1.5340706124\C,1.2978621171,-0.4750923793,-0.6144629
 221\O,1.0531272652,2.6055163013,-2.5779066447\O,0.3831899256,2.9847429
 536,-0.9291675767\O,2.4893276202,-0.5072254431,-0.296782225\H,1.222451
 9925,3.3442581679,-0.5853993716\H,1.5050672093,0.9759324563,-3.4411959
 834\H,2.6052216175,1.3190335681,-2.042297875\H,0.585860068,-1.17683363
 94,-0.1296399512\H,0.3950628035,1.8776640062,-0.8211851199\H,-0.301230
 3132,0.2154684867,-1.9083995363\\Version=ES64L-G16RevB.01\State=1-A\HF
 =-343.4043709\RMSD=8.802e-09\RMSF=7.388e-06\ZeroPoint=0.0859534\Therma
 l=0.0925048\Dipole=-0.465973,0.4736335,-0.2318892\DipoleDeriv=0.295362
 4,0.153454,-0.0726132,0.0830799,-0.4028105,-0.2470111,0.1643253,-0.239
 4208,-0.0882025,-0.149848,-0.0091227,0.1987087,0.319455,-0.5481537,0.1
 86813,-0.0387555,0.6083864,-0.3677149,1.1636154,-0.3845591,0.2940004,-
 0.1170289,1.0437353,-0.5414004,0.2681268,-0.8437948,0.7089029,-0.16906
 28,-0.8009227,0.0452671,-0.1972878,0.4599592,0.3904493,-0.3233011,1.54
 08832,-0.210858,-0.1923526,0.5960367,-0.1570976,0.2007557,-0.7891697,-
 0.2148427,0.3554119,-1.8082523,-0.1583499,-1.1360606,0.4980037,-0.3718
 9,0.0428762,-0.5529916,0.1252311,-0.2152528,0.2998728,-0.5725339,0.151
 4909,0.1581389,0.0382821,0.011695,0.4386936,0.0215268,-0.0210032,0.151
 5656,0.2543551,0.0864476,0.117613,0.0122247,0.0147128,0.2448756,-0.071
 0655,-0.0472147,-0.0421026,0.1597834,-0.0675909,-0.0190778,-0.0128985,
 -0.0050321,0.0796342,-0.0451217,-0.069309,0.0077468,0.0914736,-0.12843
 57,-0.1891492,0.1030135,-0.1435428,-0.1085135,0.0935145,0.073889,0.117
 7359,-0.0108839,0.2012632,-0.1022534,-0.0294405,-0.1123582,0.0880182,0
 .2632876,-0.078964,0.2232087,0.1431506,-0.0548289,-0.0181614,-0.047556
 8,-0.0973248,0.0467229,0.0386192,-0.0679526,-0.0158289,0.0508776\Polar
 =53.248879,-8.1169198,91.7981689,-0.1156432,-13.2224441,59.7827154\Qua
 drupole=-1.4580355,-0.4218813,1.8799168,6.0735071,-2.694755,5.2899074\
 PG=C01 [X(C3H6O3)]\NImag=1\\0.57470684,0.00075882,0.35014720,0.0655629
 9,-0.00095177,0.49677527,-0.14527667,-0.03592275,0.02110662,0.57146626
 ,-0.05305197,-0.07742272,0.05518879,0.08933964,0.34203513,0.01911828,0
 .05570059,-0.08231693,0.13121441,-0.20177980,0.35029181,0.02331935,-0.
 01317098,0.00802557,-0.11017810,-0.00167241,-0.03085238,0.83575276,0.0
 0126512,-0.00823803,0.00936354,0.03148288,-0.15241958,0.09785029,0.063
 71250,0.40953856,0.00395291,0.02654171,-0.01862396,-0.04648453,0.07543
 865,-0.14960964,0.11106676,-0.18839092,0.38196829,-0.10086495,0.022831
 94,-0.02510768,0.01838392,0.00410457,0.01995454,-0.01006111,0.00640085
 ,-0.00018662,0.08827463,0.05862562,-0.14886981,0.09844223,0.00540790,-
 0.05872088,0.00461303,-0.00135152,-0.01336181,-0.00419006,-0.06312819,
 0.27712891,-0.03451539,0.07730752,-0.03915883,0.01976977,-0.00320658,-
 0.05186348,-0.00047694,-0.01060718,0.00840700,0.03600922,-0.13552865,0
 .07929926,-0.00342748,0.03014244,0.01507187,0.00859596,-0.01339074,-0.
 00883552,0.00230658,-0.00593147,0.00128689,-0.00664722,-0.00801351,-0.
 03312081,0.42917593,0.00123000,-0.00648425,-0.01578059,0.02738500,-0.0
 8063014,-0.03613338,-0.01933585,0.00870966,-0.01814037,0.01374186,-0.0
 3366675,-0.01804464,0.10396188,0.27208231,0.02024408,-0.07459686,-0.03
 941908,-0.01228545,0.03045982,0.03991963,0.00163699,0.01607496,-0.0086
 3452,-0.02738756,0.03445403,0.04124652,0.16187739,0.10574608,0.0675424
 9,-0.00920603,-0.00300835,0.00322610,-0.04169970,0.04409797,-0.0374483
 0,-0.60723942,-0.01354537,-0.12561689,0.00671857,-0.00185494,-0.002984
 61,-0.00209879,0.01392089,0.00527819,0.70004717,-0.00066547,-0.0001252
 7,-0.00164180,0.03191531,0.01195694,0.01287098,0.00272869,-0.08523600,
 0.01875388,0.00045618,0.00092891,0.00423268,0.00035550,0.00073768,-0.0
 0448346,-0.01377721,0.05775557,-0.00102095,-0.00322298,0.00128415,-0.0
 3820691,0.01501169,-0.00093674,-0.13526524,0.01803312,-0.11147104,0.00
 047766,-0.00087510,-0.00373626,-0.00078441,0.00606804,0.00490343,0.172
 69730,-0.03314723,0.09512126,0.00076278,0.00387123,0.00503370,0.000614
 76,-0.00086506,-0.00201303,0.00108707,-0.00137250,0.00083106,0.0064859
 1,0.00057536,-0.00013249,-0.37932260,-0.16237111,-0.14363314,-0.001136
 17,0.00018214,-0.00061815,0.37195786,-0.00125428,0.00101097,-0.0003500
 5,0.00335410,-0.00593693,-0.00196505,-0.00100881,-0.00119338,-0.000868
 16,-0.00098127,-0.00388334,-0.00829641,-0.12304698,-0.09678755,-0.0456
 1336,0.00070994,0.00069554,0.00036998,0.15122735,0.10228317,0.00115182
 ,0.00009110,-0.00379433,-0.00331532,0.00256397,-0.00079215,0.00186068,
 -0.00162210,0.00247140,-0.00603076,-0.00347530,-0.01130588,-0.13711939
 ,-0.06232086,-0.06589265,-0.00201432,0.00018842,-0.00126447,0.13990187
 ,0.06742692,0.07748319,-0.03848905,0.00559649,-0.01991565,-0.00193624,
 -0.00245574,0.01396723,0.00142731,-0.00007262,-0.00164970,0.00220938,-
 0.00127170,0.00937341,-0.00261034,0.00165654,0.00786732,-0.00052295,0.
 00047199,0.00037759,-0.00134808,0.00001802,0.00054306,0.04134954,-0.00
 101956,-0.02806707,-0.08617039,-0.00623230,-0.00455459,0.01999884,-0.0
 0231937,0.00059761,-0.00037091,0.01628278,-0.03007963,-0.02922089,-0.0
 0484656,-0.00632201,0.00873150,0.00106045,0.00000803,-0.00006780,0.000
 26243,-0.00060332,-0.00164172,-0.00142271,0.06576564,-0.02346478,-0.07
 848207,-0.23267910,0.00429550,0.00298885,-0.01908934,0.00250538,-0.000
 22136,-0.00045011,0.00281088,-0.01229149,-0.01172485,0.00057810,0.0023
 6935,0.00223819,-0.00038547,0.00001352,0.00008166,-0.00043578,0.000333
 06,0.00120021,0.01386831,0.08841648,0.26759773,-0.28312824,-0.01526776
 ,-0.07605320,-0.01809430,-0.00508763,-0.00308748,-0.00275484,0.0015074
 5,-0.00214275,-0.00554426,0.01763367,-0.00153107,-0.00007930,-0.000168
 59,-0.00260524,0.00265182,0.00171631,-0.00084905,-0.00042666,0.0005278
 0,-0.00026813,-0.00038570,-0.00112689,0.00041958,0.30884692,-0.0152176
 6,-0.05034249,-0.00540675,-0.01537829,0.00102289,-0.00994798,-0.002232
 42,-0.00142645,-0.00029161,0.04119082,-0.01504068,0.01236536,-0.002148
 38,0.00034635,0.00388318,0.00165542,0.00035975,-0.00015879,0.00014020,
 -0.00025189,-0.00033043,-0.01029264,0.00035602,-0.00280818,0.00393672,
 0.06230694,-0.07789240,-0.00461150,-0.07954717,0.01882197,0.00186360,0
 .00608787,0.00097412,0.00013030,-0.00005639,-0.00399870,-0.00178208,-0
 .00041299,0.00272869,0.00106666,0.00356193,-0.00083731,0.00015306,-0.0
 0086643,-0.00061288,0.00007919,0.00118507,-0.02423548,-0.00034760,-0.0
 0852915,0.08412913,-0.00143725,0.07903159,0.00040509,0.00315746,-0.002
 47203,0.00842248,0.00315119,-0.00580175,-0.11957862,-0.08049698,0.0588
 7202,0.00052674,-0.00006064,0.00176036,0.00012753,-0.00078335,-0.00177
 784,-0.04906184,-0.02492289,0.00706982,0.00006441,0.00010496,0.0001354
 8,-0.00038109,-0.00021353,-0.00003684,-0.00004177,0.00057772,-0.000284
 24,0.15899177,0.00241465,-0.00247028,0.00429562,-0.01401342,-0.0053556
 7,0.01693641,-0.07704944,-0.15433642,0.07134205,-0.00233393,0.00093136
 ,0.00060479,0.00124629,0.00034209,-0.00151047,-0.01217553,0.01670809,-
 0.00153082,0.00011083,0.00018688,0.00035460,0.00040845,0.00022629,0.00
 006691,0.00009072,0.00008377,-0.00040297,0.09998579,0.14465200,-0.0043
 6929,0.00128339,0.00365140,0.01367472,0.01890656,-0.00222817,0.0516671
 6,0.07012902,-0.11009142,-0.00023255,0.00371174,-0.00137010,0.00069268
 ,0.00102607,-0.00067884,-0.00347814,-0.00327694,0.02053184,0.00003214,
 -0.00001495,0.00003548,0.00009518,-0.00007749,0.00005754,0.00014515,-0
 .00013563,0.00007088,-0.05902391,-0.08951671,0.09149139,-0.00358270,0.
 00206142,0.00983271,-0.01625777,-0.00090274,-0.00278988,-0.00295249,0.
 00391426,0.00061850,-0.00129332,-0.00412203,0.00997961,-0.04527908,0.0
 2320601,-0.01267380,0.00021291,-0.00040174,-0.00072097,0.00168717,-0.0
 2948500,0.00468930,-0.00006505,-0.00118343,0.00039560,-0.00037398,0.00
 042775,-0.00022046,-0.00020589,-0.00015772,0.00019069,0.06736317,0.018
 64656,-0.02700254,-0.04239159,-0.03920270,0.08300084,0.04801321,0.0256
 8018,-0.00923586,0.01460326,-0.03941780,0.02114043,0.10293338,0.018999
 34,-0.06010368,-0.06783483,-0.01649623,-0.00145651,-0.00506623,0.00777
 279,0.00343955,-0.00071258,0.00708007,0.00331610,-0.00172014,-0.002199
 27,0.00256113,0.00205062,0.00009768,-0.00043436,-0.00052072,0.01442388
 ,-0.00638451,0.00827622,-0.00260998,-0.00938611,-0.00560625,0.00969949
 ,-0.01321287,0.00318156,0.00106357,0.00825697,0.00626342,0.01439900,-0
 .01689080,-0.00497896,0.03206030,-0.03873438,-0.00507756,0.00059583,-0
 .00280557,0.00102069,-0.01176868,0.00130197,-0.00012782,0.00179825,-0.
 00045690,-0.00019663,-0.00023371,0.00050326,0.00083059,-0.00037409,-0.
 00096771,-0.00409336,-0.04095717,0.07512521,-0.01521893,-0.00104997,-0
 .00431100,-0.27404061,-0.06326709,-0.09342613,-0.01112848,-0.00686412,
 -0.00054765,0.00181172,-0.00244001,-0.00413106,-0.00074119,-0.00244329
 ,0.00345905,0.00133444,0.00194119,-0.00315669,-0.00042644,-0.00016582,
 0.00046572,0.00075226,0.00075871,-0.00055047,-0.00066970,-0.00265924,0
 .00142756,0.00073119,0.00147331,0.00060616,0.00074704,0.00461551,0.000
 50809,0.29684870,-0.01173183,-0.00213571,-0.01459723,-0.07813538,-0.05
 297527,-0.00615714,0.02601943,0.00660170,0.00557249,0.00085221,0.00349
 329,0.00746063,0.00267220,0.00177629,-0.00531061,-0.00058706,-0.002332
 72,0.00458612,0.00046635,0.00104030,-0.00052202,0.00028385,-0.00064308
 ,0.00133507,-0.00156252,0.00002467,0.00323797,-0.00059741,-0.00053373,
 -0.00151434,-0.00778067,-0.00884058,-0.00367283,0.07010082,0.05452485,
 0.02295651,0.00355085,0.00321470,-0.10298454,-0.00713504,-0.07624998,-
 0.01432365,-0.01180324,-0.00216658,-0.00257186,0.00252265,0.00751040,0
 .00260346,0.00208335,-0.00605272,-0.00335899,0.00574105,-0.00084183,0.
 00062600,0.00066752,-0.00062785,-0.00016346,-0.00104827,0.00175412,0.0
 0203969,0.00450178,-0.00102847,0.00072835,-0.00026533,-0.00050229,-0.0
 0520793,-0.00839720,-0.00273307,0.09965641,0.00958189,0.07772355\\-0.0
 0001127,0.00001029,0.00001155,0.00000335,-0.00001746,-0.00000612,0.000
 01243,-0.00000532,-0.00000406,0.00001155,-0.00000346,-0.00002123,-0.00
 000637,0.00000259,0.00001067,0.00000082,-0.00000259,0.00000371,-0.0000
 0065,-0.00000252,-0.00000127,-0.00000045,0.00000097,-0.00000151,-0.000
 00073,-0.00000160,0.00000013,-0.00000513,0.00000053,0.00000101,-0.0000
 0136,0.00001243,0.00000286,-0.00000219,0.00000612,0.00000424\\\@


 REVOLUTIONS HAVE NEVER LIGHTENED THE BURDEN OF TYRANNY:
 THEY HAVE MERELY SHIFTED IT TO OTHER SHOULDERS.
                                   -- G. B. SHAW (1903)
 Job cpu time:       0 days  0 hours  5 minutes 23.8 seconds.
 Elapsed time:       0 days  0 hours  0 minutes 47.9 seconds.
 File lengths (MBytes):  RWF=     28 Int=      0 D2E=      0 Chk=      3 Scr=      1
 Normal termination of Gaussian 16 at Wed Dec 23 23:26:02 2020.
