 Entering Gaussian System, Link 0=g16
 Initial command:
 /apps/cent7/gaussian/g16-B.01/g16-haswell/g16/l1.exe "/scratch/bell/zhao922/YARP/paper-example/KHP-network/pp_0/TS-folder/Gau-107206.inp" -scrdir="/scratch/bell/zhao922/YARP/paper-example/KHP-network/pp_0/TS-folder/"
 Entering Link 1 = /apps/cent7/gaussian/g16-B.01/g16-haswell/g16/l1.exe PID=    107208.
  
 Copyright (c) 1988-2017, Gaussian, Inc.  All Rights Reserved.
  
 This is part of the Gaussian(R) 16 program.  It is based on
 the Gaussian(R) 09 system (copyright 2009, Gaussian, Inc.),
 the Gaussian(R) 03 system (copyright 2003, Gaussian, Inc.),
 the Gaussian(R) 98 system (copyright 1998, Gaussian, Inc.),
 the Gaussian(R) 94 system (copyright 1995, Gaussian, Inc.),
 the Gaussian 92(TM) system (copyright 1992, Gaussian, Inc.),
 the Gaussian 90(TM) system (copyright 1990, Gaussian, Inc.),
 the Gaussian 88(TM) system (copyright 1988, Gaussian, Inc.),
 the Gaussian 86(TM) system (copyright 1986, Carnegie Mellon
 University), and the Gaussian 82(TM) system (copyright 1983,
 Carnegie Mellon University). Gaussian is a federally registered
 trademark of Gaussian, Inc.
  
 This software contains proprietary and confidential information,
 including trade secrets, belonging to Gaussian, Inc.
  
 This software is provided under written license and may be
 used, copied, transmitted, or stored only in accord with that
 written license.
  
 The following legend is applicable only to US Government
 contracts under FAR:
  
                    RESTRICTED RIGHTS LEGEND
  
 Use, reproduction and disclosure by the US Government is
 subject to restrictions as set forth in subparagraphs (a)
 and (c) of the Commercial Computer Software - Restricted
 Rights clause in FAR 52.227-19.
  
 Gaussian, Inc.
 340 Quinnipiac St., Bldg. 40, Wallingford CT 06492
  
  
 ---------------------------------------------------------------
 Warning -- This program may not be used in any manner that
 competes with the business of Gaussian, Inc. or will provide
 assistance to any competitor of Gaussian, Inc.  The licensee
 of this program is prohibited from giving any competitor of
 Gaussian, Inc. access to this program.  By using this program,
 the user acknowledges that Gaussian, Inc. is engaged in the
 business of creating and licensing software in the field of
 computational chemistry and represents and warrants to the
 licensee that it is not a competitor of Gaussian, Inc. and that
 it will not use this program in any manner prohibited above.
 ---------------------------------------------------------------
  

 Cite this work as:
 Gaussian 16, Revision B.01,
 M. J. Frisch, G. W. Trucks, H. B. Schlegel, G. E. Scuseria, 
 M. A. Robb, J. R. Cheeseman, G. Scalmani, V. Barone, 
 G. A. Petersson, H. Nakatsuji, X. Li, M. Caricato, A. V. Marenich, 
 J. Bloino, B. G. Janesko, R. Gomperts, B. Mennucci, H. P. Hratchian, 
 J. V. Ortiz, A. F. Izmaylov, J. L. Sonnenberg, D. Williams-Young, 
 F. Ding, F. Lipparini, F. Egidi, J. Goings, B. Peng, A. Petrone, 
 T. Henderson, D. Ranasinghe, V. G. Zakrzewski, J. Gao, N. Rega, 
 G. Zheng, W. Liang, M. Hada, M. Ehara, K. Toyota, R. Fukuda, 
 J. Hasegawa, M. Ishida, T. Nakajima, Y. Honda, O. Kitao, H. Nakai, 
 T. Vreven, K. Throssell, J. A. Montgomery, Jr., J. E. Peralta, 
 F. Ogliaro, M. J. Bearpark, J. J. Heyd, E. N. Brothers, K. N. Kudin, 
 V. N. Staroverov, T. A. Keith, R. Kobayashi, J. Normand, 
 K. Raghavachari, A. P. Rendell, J. C. Burant, S. S. Iyengar, 
 J. Tomasi, M. Cossi, J. M. Millam, M. Klene, C. Adamo, R. Cammi, 
 J. W. Ochterski, R. L. Martin, K. Morokuma, O. Farkas, 
 J. B. Foresman, and D. J. Fox, Gaussian, Inc., Wallingford CT, 2016.
 
 ******************************************
 Gaussian 16:  ES64L-G16RevB.01 20-Dec-2017
                23-Dec-2020 
 ******************************************
 %NProcShared=16
 Will use up to   16 processors via shared memory.
 %Mem=6GB
 --------------------------------------------------------------
 # B3LYP/6-31+G* OPT=(TS, CALCALL, NOEIGEN, maxcycles=100) Freq
 --------------------------------------------------------------
 1/5=1,6=100,10=4,11=1,18=20,26=3,38=1/1,3;
 2/9=110,12=2,17=6,18=5,40=1/2;
 3/5=1,6=6,7=11,11=2,25=1,30=1,71=2,74=-5,140=1/1,2,3;
 4//1;
 5/5=2,38=5/2;
 8/6=4,10=90,11=11/1;
 11/6=1,8=1,9=11,15=111,16=1/1,2,10;
 10/6=1/2;
 6/7=2,8=2,9=2,10=2,18=1,28=1/1;
 7/10=1,25=1/1,2,3,16;
 1/5=1,6=100,10=4,11=1,18=20,26=3/3(3);
 2/9=110/2;
 7/8=1,9=1,25=1,44=-1/16;
 99//99;
 2/9=110/2;
 3/5=1,6=6,7=11,11=2,25=1,30=1,71=2,74=-5,140=1/1,2,3;
 4/5=5,16=3,69=1/1;
 5/5=2,38=5/2;
 8/6=4,10=90,11=11/1;
 11/6=1,8=1,9=11,15=111,16=1/1,2,10;
 10/6=1/2;
 7/10=1,25=1/1,2,3,16;
 1/5=1,6=100,10=4,11=1,18=20,26=3/3(-8);
 2/9=110/2;
 6/7=2,8=2,9=2,10=2,18=1,19=2,28=1/1;
 7/8=1,9=1,25=1,44=-1/16;
 99//99;
 ----------
 pp_24_0 TS
 ----------
 Symbolic Z-matrix:
 Charge =  0 Multiplicity = 1
 C                     1.16051   0.95926  -3.22728 
 C                     0.64773   0.64671  -0.9757 
 C                     1.35869   0.85617  -0.20918 
 O                     0.50655   2.22372  -3.03685 
 O                     1.96743   2.1685   -0.43638 
 O                     1.59681   0.47711   0.88408 
 H                     1.35913   2.78913  -0.63061 
 H                     2.23178   0.33465  -3.23511 
 H                     1.15822   2.01593  -4.24467 
 H                     1.35191   0.13961  -2.1557 
 H                     0.25294  -0.34092  -0.79562 
 H                    -0.10734   1.49285  -0.97574 
 
 Add virtual bond connecting atoms H10        and C1         Dist= 2.57D+00.
 Add virtual bond connecting atoms H10        and H8         Dist= 2.66D+00.
 Add virtual bond connecting atoms H9         and C1         Dist= 2.77D+00.
 Add virtual bond connecting atoms H9         and O4         Dist= 2.62D+00.
 Add virtual bond connecting atoms H10        and C2         Dist= 2.77D+00.

 GradGradGradGradGradGradGradGradGradGradGradGradGradGradGradGradGradGrad
 Berny optimization.
 Initialization pass.
                           ----------------------------
                           !    Initial Parameters    !
                           ! (Angstroms and Degrees)  !
 --------------------------                            --------------------------
 ! Name  Definition              Value          Derivative Info.                !
 --------------------------------------------------------------------------------
 ! R1    R(1,4)                  1.4362         calculate D2E/DX2 analytically  !
 ! R2    R(1,8)                  1.2401         calculate D2E/DX2 analytically  !
 ! R3    R(1,9)                  1.4668         calculate D2E/DX2 analytically  !
 ! R4    R(1,10)                 1.3626         calculate D2E/DX2 analytically  !
 ! R5    R(2,3)                  1.0663         calculate D2E/DX2 analytically  !
 ! R6    R(2,10)                 1.4647         calculate D2E/DX2 analytically  !
 ! R7    R(2,11)                 1.0787         calculate D2E/DX2 analytically  !
 ! R8    R(2,12)                 1.1341         calculate D2E/DX2 analytically  !
 ! R9    R(3,5)                  1.4644         calculate D2E/DX2 analytically  !
 ! R10   R(3,6)                  1.1814         calculate D2E/DX2 analytically  !
 ! R11   R(4,9)                  1.3881         calculate D2E/DX2 analytically  !
 ! R12   R(5,7)                  0.8905         calculate D2E/DX2 analytically  !
 ! R13   R(8,10)                 1.4062         calculate D2E/DX2 analytically  !
 ! A1    A(4,1,8)              146.8895         calculate D2E/DX2 analytically  !
 ! A2    A(4,1,10)             119.2919         calculate D2E/DX2 analytically  !
 ! A3    A(8,1,9)              111.0883         calculate D2E/DX2 analytically  !
 ! A4    A(3,2,10)             109.0624         calculate D2E/DX2 analytically  !
 ! A5    A(3,2,11)             107.6899         calculate D2E/DX2 analytically  !
 ! A6    A(3,2,12)             107.3016         calculate D2E/DX2 analytically  !
 ! A7    A(10,2,11)             89.6257         calculate D2E/DX2 analytically  !
 ! A8    A(10,2,12)            125.3368         calculate D2E/DX2 analytically  !
 ! A9    A(11,2,12)            116.0678         calculate D2E/DX2 analytically  !
 ! A10   A(2,3,5)              109.9803         calculate D2E/DX2 analytically  !
 ! A11   A(2,3,6)              137.4466         calculate D2E/DX2 analytically  !
 ! A12   A(5,3,6)              110.325          calculate D2E/DX2 analytically  !
 ! A13   A(3,5,7)              111.9916         calculate D2E/DX2 analytically  !
 ! A14   A(1,10,2)             110.963          calculate D2E/DX2 analytically  !
 ! A15   A(2,10,8)             150.5988         calculate D2E/DX2 analytically  !
 ! A16   L(9,1,10,7,-1)        171.0018         calculate D2E/DX2 analytically  !
 ! A17   L(9,1,10,7,-2)        187.7998         calculate D2E/DX2 analytically  !
 ! D1    D(4,1,10,2)             8.4557         calculate D2E/DX2 analytically  !
 ! D2    D(10,2,3,5)            81.8335         calculate D2E/DX2 analytically  !
 ! D3    D(10,2,3,6)          -117.6829         calculate D2E/DX2 analytically  !
 ! D4    D(11,2,3,5)           177.7429         calculate D2E/DX2 analytically  !
 ! D5    D(11,2,3,6)           -21.7735         calculate D2E/DX2 analytically  !
 ! D6    D(12,2,3,5)           -56.6337         calculate D2E/DX2 analytically  !
 ! D7    D(12,2,3,6)           103.8499         calculate D2E/DX2 analytically  !
 ! D8    D(3,2,10,1)          -118.7105         calculate D2E/DX2 analytically  !
 ! D9    D(3,2,10,8)           -67.5537         calculate D2E/DX2 analytically  !
 ! D10   D(11,2,10,1)          132.6722         calculate D2E/DX2 analytically  !
 ! D11   D(11,2,10,8)         -176.171          calculate D2E/DX2 analytically  !
 ! D12   D(12,2,10,1)           10.3922         calculate D2E/DX2 analytically  !
 ! D13   D(12,2,10,8)           61.549          calculate D2E/DX2 analytically  !
 ! D14   D(2,3,5,7)             46.1836         calculate D2E/DX2 analytically  !
 ! D15   D(6,3,5,7)           -119.8751         calculate D2E/DX2 analytically  !
 --------------------------------------------------------------------------------
 Trust Radius=3.00D-01 FncErr=1.00D-07 GrdErr=1.00D-06 EigMax=2.50D+02 EigMin=1.00D-04
 Number of steps in this run=    100 maximum allowed number of steps=    100.
 Search for a saddle point of order  1.
 GradGradGradGradGradGradGradGradGradGradGradGradGradGradGradGradGradGrad

                          Input orientation:                          
 ---------------------------------------------------------------------
 Center     Atomic      Atomic             Coordinates (Angstroms)
 Number     Number       Type             X           Y           Z
 ---------------------------------------------------------------------
      1          6           0        1.160512    0.959258   -3.227283
      2          6           0        0.647728    0.646709   -0.975704
      3          6           0        1.358687    0.856173   -0.209184
      4          8           0        0.506547    2.223718   -3.036850
      5          8           0        1.967427    2.168499   -0.436382
      6          8           0        1.596808    0.477109    0.884079
      7          1           0        1.359127    2.789131   -0.630607
      8          1           0        2.231781    0.334652   -3.235111
      9          1           0        1.158221    2.015928   -4.244672
     10          1           0        1.351906    0.139612   -2.155698
     11          1           0        0.252941   -0.340916   -0.795618
     12          1           0       -0.107337    1.492847   -0.975741
 ---------------------------------------------------------------------
                    Distance matrix (angstroms):
                    1          2          3          4          5
     1  C    0.000000
     2  C    2.330288   0.000000
     3  C    3.026354   1.066251   0.000000
     4  O    1.436243   2.599079   3.254538   0.000000
     5  O    3.146824   2.085262   1.464371   2.983229   0.000000
     6  O    4.162466   2.094829   1.181362   4.428656   2.177562
     7  H    3.182862   2.283671   1.978364   2.614687   0.890470
     8  H    1.240085   2.776963   3.192258   2.565991   3.356451
     9  H    1.466846   3.580714   4.203615   1.388052   3.896301
    10  H    1.362625   1.464718   2.074228   2.415483   2.729706
    11  H    2.902952   1.078745   1.731936   3.415375   3.060339
    12  H    2.638484   1.134051   1.772622   2.271386   2.247679
                    6          7          8          9         10
     6  O    0.000000
     7  H    2.774205   0.000000
     8  H    4.170277   3.683671   0.000000
     9  H    5.372561   3.701307   2.235718   0.000000
    10  H    3.068245   3.057107   1.406184   2.814585   0.000000
    11  H    2.301418   3.323864   3.212993   4.274368   1.813408
    12  H    2.719332   1.987457   3.452194   3.544173   2.313641
                   11         12
    11  H    0.000000
    12  H    1.877480   0.000000
 Stoichiometry    C3H6O3
 Framework group  C1[X(C3H6O3)]
 Deg. of freedom    30
 Full point group                 C1      NOp   1
 Largest Abelian subgroup         C1      NOp   1
 Largest concise Abelian subgroup C1      NOp   1
                         Standard orientation:                         
 ---------------------------------------------------------------------
 Center     Atomic      Atomic             Coordinates (Angstroms)
 Number     Number       Type             X           Y           Z
 ---------------------------------------------------------------------
      1          6           0        1.856896   -0.620194    0.479125
      2          6           0       -0.279850   -0.681873   -0.448643
      3          6           0       -1.097089   -0.166675    0.002559
      4          8           0        2.065805    0.437349   -0.469956
      5          8           0       -0.702926    1.204259    0.333556
      6          8           0       -2.271111   -0.282472    0.064847
      7          1           0       -0.272917    1.599146   -0.338823
      8          1           0        1.537087   -0.928695    1.636864
      9          1           0        3.063102    0.214438    0.469405
     10          1           0        0.616337   -1.170365    0.601891
     11          1           0       -0.596554   -1.695201   -0.639838
     12          1           0        0.039055   -0.079957   -1.355323
 ---------------------------------------------------------------------
 Rotational constants (GHZ):           8.1650877           2.0711071           1.8455361
 Standard basis: 6-31+G(d) (6D, 7F)
 There are   126 symmetry adapted cartesian basis functions of A   symmetry.
 There are   126 symmetry adapted basis functions of A   symmetry.
   126 basis functions,   216 primitive gaussians,   126 cartesian basis functions
    24 alpha electrons       24 beta electrons
       nuclear repulsion energy       243.9493368045 Hartrees.
 NAtoms=   12 NActive=   12 NUniq=   12 SFac= 1.00D+00 NAtFMM=   60 NAOKFM=F Big=F
 Integral buffers will be    131072 words long.
 Raffenetti 2 integral format.
 Two-electron integral symmetry is turned on.
 One-electron integrals computed using PRISM.
 NBasis=   126 RedAO= T EigKep=  2.07D-05  NBF=   126
 NBsUse=   126 1.00D-06 EigRej= -1.00D+00 NBFU=   126
 ExpMin= 4.38D-02 ExpMax= 5.48D+03 ExpMxC= 8.25D+02 IAcc=3 IRadAn=         5 AccDes= 0.00D+00
 Harris functional with IExCor=  402 and IRadAn=       5 diagonalized for initial guess.
 HarFok:  IExCor=  402 AccDes= 0.00D+00 IRadAn=         5 IDoV= 1 UseB2=F ITyADJ=14
 ICtDFT=  3500011 ScaDFX=  1.000000  1.000000  1.000000  1.000000
 FoFCou: FMM=F IPFlag=           0 FMFlag=      100000 FMFlg1=           0
         NFxFlg=           0 DoJE=T BraDBF=F KetDBF=T FulRan=T
         wScrn=  0.000000 ICntrl=       500 IOpCl=  0 I1Cent=   200000004 NGrid=           0
         NMat0=    1 NMatS0=      1 NMatT0=    0 NMatD0=    1 NMtDS0=    0 NMtDT0=    0
 Petite list used in FoFCou.
 Keep R1 ints in memory in canonical form, NReq=47237537.
 Requested convergence on RMS density matrix=1.00D-08 within 128 cycles.
 Requested convergence on MAX density matrix=1.00D-06.
 Requested convergence on             energy=1.00D-06.
 No special actions if energy rises.
 EnCoef did     5 forward-backward iterations
 EnCoef did     5 forward-backward iterations
 EnCoef did     6 forward-backward iterations
 EnCoef did     6 forward-backward iterations
 EnCoef did     2 forward-backward iterations
 EnCoef did     3 forward-backward iterations
 SCF Done:  E(RB3LYP) =  -342.991125354     A.U. after   23 cycles
            NFock= 23  Conv=0.49D-08     -V/T= 2.0040
 DoSCS=F DFT=T ScalE2(SS,OS)=  1.000000  1.000000
 Range of M.O.s used for correlation:     1   126
 NBasis=   126 NAE=    24 NBE=    24 NFC=     0 NFV=     0
 NROrb=    126 NOA=    24 NOB=    24 NVA=   102 NVB=   102

 **** Warning!!: The largest alpha MO coefficient is  0.68513676D+02


 **** Warning!!: The smallest alpha delta epsilon is  0.46192713D-01

 Symmetrizing basis deriv contribution to polar:
 IMax=3 JMax=2 DiffMx= 0.00D+00
 G2DrvN: will do    13 centers at a time, making    1 passes.
 Calling FoFCou, ICntrl=  3107 FMM=F I1Cent=   0 AccDes= 0.00D+00.
 End of G2Drv F.D. properties file   721 does not exist.
 End of G2Drv F.D. properties file   722 does not exist.
 End of G2Drv F.D. properties file   788 does not exist.
          IDoAtm=111111111111
          Differentiating once with respect to electric field.
                with respect to dipole field.
          Differentiating once with respect to nuclear coordinates.
 Keep R1 ints in memory in canonical form, NReq=47193559.
          There are    39 degrees of freedom in the 1st order CPHF.  IDoFFX=6 NUNeed=     3.
     36 vectors produced by pass  0 Test12= 6.28D-15 2.56D-09 XBig12= 5.81D+02 1.89D+01.
 AX will form    36 AO Fock derivatives at one time.
     36 vectors produced by pass  1 Test12= 6.28D-15 2.56D-09 XBig12= 1.40D+02 2.65D+00.
     36 vectors produced by pass  2 Test12= 6.28D-15 2.56D-09 XBig12= 1.59D+00 1.96D-01.
     36 vectors produced by pass  3 Test12= 6.28D-15 2.56D-09 XBig12= 5.58D-03 1.33D-02.
     36 vectors produced by pass  4 Test12= 6.28D-15 2.56D-09 XBig12= 1.20D-05 5.55D-04.
     29 vectors produced by pass  5 Test12= 6.28D-15 2.56D-09 XBig12= 1.44D-08 1.81D-05.
      7 vectors produced by pass  6 Test12= 6.28D-15 2.56D-09 XBig12= 1.33D-11 4.32D-07.
      3 vectors produced by pass  7 Test12= 6.28D-15 2.56D-09 XBig12= 1.02D-14 1.28D-08.
 InvSVY:  IOpt=1 It=  1 EMax= 2.66D-15
 Solved reduced A of dimension   219 with    39 vectors.
 Isotropic polarizability for W=    0.000000       80.16 Bohr**3.
 End of Minotr F.D. properties file   721 does not exist.
 End of Minotr F.D. properties file   722 does not exist.
 End of Minotr F.D. properties file   788 does not exist.

 **********************************************************************

            Population analysis using the SCF Density.

 **********************************************************************

 Orbital symmetries:
       Occupied  (A) (A) (A) (A) (A) (A) (A) (A) (A) (A) (A) (A)
                 (A) (A) (A) (A) (A) (A) (A) (A) (A) (A) (A) (A)
       Virtual   (A) (A) (A) (A) (A) (A) (A) (A) (A) (A) (A) (A)
                 (A) (A) (A) (A) (A) (A) (A) (A) (A) (A) (A) (A)
                 (A) (A) (A) (A) (A) (A) (A) (A) (A) (A) (A) (A)
                 (A) (A) (A) (A) (A) (A) (A) (A) (A) (A) (A) (A)
                 (A) (A) (A) (A) (A) (A) (A) (A) (A) (A) (A) (A)
                 (A) (A) (A) (A) (A) (A) (A) (A) (A) (A) (A) (A)
                 (A) (A) (A) (A) (A) (A) (A) (A) (A) (A) (A) (A)
                 (A) (A) (A) (A) (A) (A) (A) (A) (A) (A) (A) (A)
                 (A) (A) (A) (A) (A) (A)
 The electronic state is 1-A.
 Alpha  occ. eigenvalues --  -19.22587 -19.17176 -19.15990 -10.33580 -10.31200
 Alpha  occ. eigenvalues --  -10.24265  -1.12743  -1.03630  -1.02795  -0.89751
 Alpha  occ. eigenvalues --   -0.69952  -0.62335  -0.57342  -0.55089  -0.51421
 Alpha  occ. eigenvalues --   -0.48835  -0.46578  -0.41209  -0.39661  -0.38320
 Alpha  occ. eigenvalues --   -0.33878  -0.32712  -0.28962  -0.21471
 Alpha virt. eigenvalues --   -0.16852  -0.06351  -0.03783  -0.02610   0.01854
 Alpha virt. eigenvalues --    0.02759   0.04114   0.05373   0.06289   0.07111
 Alpha virt. eigenvalues --    0.07773   0.09435   0.09737   0.10789   0.12117
 Alpha virt. eigenvalues --    0.13093   0.14691   0.16799   0.18017   0.19219
 Alpha virt. eigenvalues --    0.21111   0.22119   0.23660   0.25256   0.26672
 Alpha virt. eigenvalues --    0.27078   0.27691   0.28359   0.29896   0.30179
 Alpha virt. eigenvalues --    0.32184   0.33091   0.36512   0.36971   0.44703
 Alpha virt. eigenvalues --    0.49674   0.61967   0.65641   0.68922   0.70783
 Alpha virt. eigenvalues --    0.71158   0.73542   0.77147   0.80037   0.83481
 Alpha virt. eigenvalues --    0.85165   0.92968   0.93355   0.97361   1.02766
 Alpha virt. eigenvalues --    1.08822   1.11450   1.13875   1.15276   1.17192
 Alpha virt. eigenvalues --    1.17644   1.23131   1.25652   1.27999   1.28380
 Alpha virt. eigenvalues --    1.32165   1.36259   1.36666   1.44654   1.45976
 Alpha virt. eigenvalues --    1.50833   1.58144   1.60164   1.64406   1.69426
 Alpha virt. eigenvalues --    1.73221   1.75588   1.79963   1.82122   1.83912
 Alpha virt. eigenvalues --    1.85660   1.86090   1.91374   1.93421   2.01619
 Alpha virt. eigenvalues --    2.05326   2.11230   2.17084   2.24174   2.30263
 Alpha virt. eigenvalues --    2.36274   2.39516   2.44730   2.62028   2.67259
 Alpha virt. eigenvalues --    2.82975   2.87624   2.90647   3.16124   3.17879
 Alpha virt. eigenvalues --    3.68154   4.08353   4.11446   4.15694   4.34565
 Alpha virt. eigenvalues --    4.34979   4.82679
          Condensed to atoms (all electrons):
               1          2          3          4          5          6
     1  C    5.900512  -0.101433   0.053520  -0.083591   0.017602   0.003483
     2  C   -0.101433  11.666935  -4.951580   0.093120  -0.444119  -0.036818
     3  C    0.053520  -4.951580   9.343737  -0.160403   0.433295   0.345802
     4  O   -0.083591   0.093120  -0.160403   8.532614  -0.004798   0.002162
     5  O    0.017602  -0.444119   0.433295  -0.004798   8.683127  -0.181760
     6  O    0.003483  -0.036818   0.345802   0.002162  -0.181760   8.300686
     7  H   -0.009712  -0.010474   0.024403   0.013780   0.163697   0.003410
     8  H    0.180014  -0.302686   0.221371   0.025802   0.006293  -0.000854
     9  H    0.295605   0.062892  -0.046669  -0.087340  -0.003836   0.000189
    10  H    0.101826  -0.181713   0.297515  -0.036496  -0.010320  -0.003574
    11  H   -0.004490   0.344396  -0.068898   0.006094   0.021209  -0.005402
    12  H   -0.006228   0.286709   0.069555  -0.015445  -0.029319  -0.010389
               7          8          9         10         11         12
     1  C   -0.009712   0.180014   0.295605   0.101826  -0.004490  -0.006228
     2  C   -0.010474  -0.302686   0.062892  -0.181713   0.344396   0.286709
     3  C    0.024403   0.221371  -0.046669   0.297515  -0.068898   0.069555
     4  O    0.013780   0.025802  -0.087340  -0.036496   0.006094  -0.015445
     5  O    0.163697   0.006293  -0.003836  -0.010320   0.021209  -0.029319
     6  O    0.003410  -0.000854   0.000189  -0.003574  -0.005402  -0.010389
     7  H    0.337678  -0.000411   0.000549  -0.001353   0.000043   0.006069
     8  H   -0.000411   0.653536  -0.039362   0.017785   0.002781  -0.000017
     9  H    0.000549  -0.039362   0.548146  -0.001557  -0.000174   0.000749
    10  H   -0.001353   0.017785  -0.001557   0.673557  -0.034348  -0.002243
    11  H    0.000043   0.002781  -0.000174  -0.034348   0.498013  -0.016947
    12  H    0.006069  -0.000017   0.000749  -0.002243  -0.016947   0.447531
 Mulliken charges:
               1
     1  C   -0.347109
     2  C   -0.425229
     3  C    0.438350
     4  O   -0.285499
     5  O   -0.651073
     6  O   -0.416936
     7  H    0.472320
     8  H    0.235748
     9  H    0.270809
    10  H    0.180921
    11  H    0.257723
    12  H    0.269975
 Sum of Mulliken charges =   0.00000
 Mulliken charges with hydrogens summed into heavy atoms:
               1
     1  C    0.069560
     2  C    0.102469
     3  C    0.438350
     4  O   -0.014690
     5  O   -0.178753
     6  O   -0.416936
 APT charges:
               1
     1  C    0.371788
     2  C   -0.470942
     3  C    1.280969
     4  O   -0.573637
     5  O   -0.702262
     6  O   -0.815746
     7  H    0.247310
     8  H    0.144411
     9  H    0.225999
    10  H    0.180613
    11  H   -0.032107
    12  H    0.143604
 Sum of APT charges =  -0.00000
 APT charges with hydrogens summed into heavy atoms:
               1
     1  C    0.696812
     2  C   -0.359445
     3  C    1.280969
     4  O   -0.347638
     5  O   -0.454952
     6  O   -0.815746
 Electronic spatial extent (au):  <R**2>=            653.1143
 Charge=             -0.0000 electrons
 Dipole moment (field-independent basis, Debye):
    X=              2.0980    Y=             -1.6163    Z=             -0.2829  Tot=              2.6635
 Quadrupole moment (field-independent basis, Debye-Ang):
   XX=            -49.1921   YY=            -36.7974   ZZ=            -33.8410
   XY=              2.5524   XZ=              5.2932   YZ=             -3.4179
 Traceless Quadrupole moment (field-independent basis, Debye-Ang):
   XX=             -9.2486   YY=              3.1461   ZZ=              6.1025
   XY=              2.5524   XZ=              5.2932   YZ=             -3.4179
 Octapole moment (field-independent basis, Debye-Ang**2):
  XXX=              7.5833  YYY=              6.0157  ZZZ=             -2.1645  XYY=             -5.1871
  XXY=             12.3747  XXZ=              5.1505  XZZ=             -2.5258  YZZ=             -0.2254
  YYZ=             -3.5957  XYZ=              1.9162
 Hexadecapole moment (field-independent basis, Debye-Ang**3):
 XXXX=           -664.0601 YYYY=           -151.3409 ZZZZ=            -79.0667 XXXY=             35.9030
 XXXZ=             10.5994 YYYX=             17.3630 YYYZ=             -6.6274 ZZZX=             -0.5404
 ZZZY=             -5.3240 XXYY=           -147.3172 XXZZ=           -114.3327 YYZZ=            -39.5276
 XXYZ=              4.6062 YYXZ=              1.5692 ZZXY=              1.1882
 N-N= 2.439493368045D+02 E-N=-1.292216812309D+03  KE= 3.416411650273D+02
  Exact polarizability: 130.645  -5.709  59.435  13.361  -5.641  50.398
 Approx polarizability: 253.285  -2.654 100.747  27.749 -20.169  84.176
 Calling FoFJK, ICntrl=    100127 FMM=F ISym2X=0 I1Cent= 0 IOpClX= 0 NMat=1 NMatS=1 NMatT=0.
 ***** Axes restored to original set *****
 -------------------------------------------------------------------
 Center     Atomic                   Forces (Hartrees/Bohr)
 Number     Number              X              Y              Z
 -------------------------------------------------------------------
      1        6          -0.005494139    0.043483791   -0.070364591
      2        6          -0.554943464   -0.217447703   -0.564378620
      3        6           0.530119465    0.260878736    0.538528400
      4        8           0.067997460   -0.056483482    0.000757072
      5        8           0.095982184   -0.061135046    0.025636873
      6        8           0.022960937   -0.059070519    0.067377915
      7        1          -0.068055101    0.071176997   -0.032004521
      8        1          -0.024682927    0.041518704    0.012855702
      9        1          -0.021164307   -0.026605901    0.021842323
     10        1          -0.023352789    0.040706785    0.031387651
     11        1          -0.026341596   -0.008450509   -0.005238412
     12        1           0.006974275   -0.028571853   -0.026399792
 -------------------------------------------------------------------
 Cartesian Forces:  Max     0.564378620 RMS     0.195086308
 FormGI is forming the generalized inverse of G from B-inverse, IUseBI=4.

 GradGradGradGradGradGradGradGradGradGradGradGradGradGradGradGradGradGrad
 Berny optimization.
 Internal  Forces:  Max     0.859601928 RMS     0.132017046
 Search for a saddle point.
 Step number   1 out of a maximum of  100
 All quantities printed in internal units (Hartrees-Bohrs-Radians)
 Swapping is turned off.
 Second derivative matrix not updated -- analytic derivatives used.
 ITU=  0
     Eigenvalues ---   -0.40210  -0.16730  -0.02207  -0.01366  -0.00645
     Eigenvalues ---   -0.00096   0.00647   0.01677   0.02640   0.03238
     Eigenvalues ---    0.03961   0.04288   0.05719   0.06032   0.07297
     Eigenvalues ---    0.07879   0.10287   0.11170   0.12022   0.14278
     Eigenvalues ---    0.14635   0.18307   0.26547   0.35496   0.36263
     Eigenvalues ---    0.38246   0.43571   0.88003   1.05246   2.60097
 Eigenvectors required to have negative eigenvalues:
                          R11       A1        R3        R6        D1
   1                    0.48485   0.42011  -0.37188   0.33661  -0.29923
                          A15       A2        R1        A14       R4
   1                    0.23215  -0.23082  -0.22484   0.14199  -0.13863
 RFO step:  Lambda0=1.204099832D-03 Lambda=-3.42371512D-01.
 Linear search not attempted -- option 19 set.
 Maximum step size (   0.300) exceeded in Quadratic search.
    -- Step size scaled by   0.311
 Iteration  1 RMS(Cart)=  0.05679072 RMS(Int)=  0.00317659
 Iteration  2 RMS(Cart)=  0.00277553 RMS(Int)=  0.00093764
 Iteration  3 RMS(Cart)=  0.00000587 RMS(Int)=  0.00093762
 Iteration  4 RMS(Cart)=  0.00000002 RMS(Int)=  0.00093762
 Variable       Old X    -DE/DX   Delta X   Delta X   Delta X     New X
                                 (Linear)    (Quad)   (Total)
    R1        2.71411  -0.07944   0.00000  -0.09468  -0.09443   2.61967
    R2        2.34342  -0.05121   0.00000  -0.01546  -0.01400   2.32942
    R3        2.77194  -0.03305   0.00000  -0.08815  -0.08789   2.68405
    R4        2.57499   0.03173   0.00000   0.14421   0.14360   2.71859
    R5        2.01492   0.85960   0.00000   0.09663   0.09665   2.11157
    R6        2.76792  -0.01466   0.00000  -0.13118  -0.13121   2.63671
    R7        2.03853   0.01650   0.00000   0.00816   0.00816   2.04670
    R8        2.14305  -0.02596   0.00000  -0.01511  -0.01511   2.12793
    R9        2.76726   0.02104   0.00000  -0.01446  -0.01444   2.75282
   R10        2.23245   0.08594   0.00000   0.00847   0.00847   2.24092
   R11        2.62304  -0.00249   0.00000   0.10824   0.10775   2.73079
   R12        1.68274   0.10344   0.00000   0.02559   0.02557   1.70831
   R13        2.65730   0.00272   0.00000  -0.03157  -0.03224   2.62506
    A1        2.56371  -0.05246   0.00000  -0.03928  -0.04282   2.52089
    A2        2.08204  -0.01939   0.00000  -0.04522  -0.04562   2.03642
    A3        1.93886   0.00927   0.00000   0.02202   0.02229   1.96115
    A4        1.90350  -0.01094   0.00000   0.00511   0.00505   1.90854
    A5        1.87954   0.01280   0.00000  -0.00752  -0.00761   1.87193
    A6        1.87277   0.02648   0.00000   0.00718   0.00721   1.87998
    A7        1.56426   0.01018   0.00000   0.01969   0.01973   1.58399
    A8        2.18754  -0.02575   0.00000  -0.00655  -0.00657   2.18097
    A9        2.02577  -0.01240   0.00000  -0.01851  -0.01851   2.00725
   A10        1.91952   0.02938   0.00000   0.01771   0.01778   1.93729
   A11        2.39890  -0.03291   0.00000  -0.02622  -0.02629   2.37261
   A12        1.92553   0.00880   0.00000   0.01167   0.01168   1.93721
   A13        1.95462   0.00213   0.00000   0.00263   0.00268   1.95731
   A14        1.93667   0.03484   0.00000   0.03447   0.03644   1.97311
   A15        2.62844  -0.00471   0.00000   0.03804   0.03998   2.66843
   A16        2.98454   0.01902   0.00000   0.05016   0.05120   3.03574
   A17        3.27772  -0.04536   0.00000   0.01734   0.01816   3.29589
    D1        0.14758   0.03813   0.00000   0.09869   0.09539   0.24297
    D2        1.42826  -0.02741   0.00000  -0.01506  -0.01503   1.41323
    D3       -2.05395   0.00041   0.00000   0.00330   0.00326  -2.05069
    D4        3.10220  -0.01508   0.00000   0.00588   0.00587   3.10807
    D5       -0.38002   0.01275   0.00000   0.02423   0.02416  -0.35586
    D6       -0.98844  -0.00601   0.00000  -0.01679  -0.01678  -1.00523
    D7        1.81252   0.02181   0.00000   0.00157   0.00151   1.81403
    D8       -2.07189  -0.00103   0.00000  -0.00186  -0.00111  -2.07300
    D9       -1.17903   0.00890   0.00000  -0.02804  -0.02872  -1.20776
   D10        2.31557  -0.01714   0.00000  -0.00155  -0.00089   2.31468
   D11       -3.07476  -0.00721   0.00000  -0.02773  -0.02849  -3.10326
   D12        0.18138   0.00185   0.00000   0.00901   0.00970   0.19108
   D13        1.07423   0.01178   0.00000  -0.01717  -0.01791   1.05633
   D14        0.80606  -0.00244   0.00000  -0.03956  -0.03936   0.76670
   D15       -2.09221  -0.01222   0.00000  -0.04426  -0.04448  -2.13670
         Item               Value     Threshold  Converged?
 Maximum Force            0.859602     0.000450     NO 
 RMS     Force            0.132017     0.000300     NO 
 Maximum Displacement     0.170350     0.001800     NO 
 RMS     Displacement     0.057343     0.001200     NO 
 Predicted change in Energy=-1.086234D-01
 GradGradGradGradGradGradGradGradGradGradGradGradGradGradGradGradGradGrad

                          Input orientation:                          
 ---------------------------------------------------------------------
 Center     Atomic      Atomic             Coordinates (Angstroms)
 Number     Number       Type             X           Y           Z
 ---------------------------------------------------------------------
      1          6           0        1.133858    1.011321   -3.272055
      2          6           0        0.648017    0.629397   -0.990296
      3          6           0        1.382553    0.865730   -0.182103
      4          8           0        0.573854    2.259377   -3.047324
      5          8           0        1.977702    2.179690   -0.385507
      6          8           0        1.606996    0.462132    0.910123
      7          1           0        1.362569    2.800205   -0.617433
      8          1           0        2.174015    0.352858   -3.208826
      9          1           0        1.154337    1.953381   -4.334817
     10          1           0        1.332039    0.175067   -2.118356
     11          1           0        0.270621   -0.367765   -0.799852
     12          1           0       -0.132215    1.441327   -0.992325
 ---------------------------------------------------------------------
                    Distance matrix (angstroms):
                    1          2          3          4          5
     1  C    0.000000
     2  C    2.363965   0.000000
     3  C    3.103361   1.117396   0.000000
     4  O    1.386272   2.625585   3.287208   0.000000
     5  O    3.226348   2.130080   1.456732   3.010384   0.000000
     6  O    4.244535   2.135231   1.185843   4.467534   2.183137
     7  H    3.209272   2.315603   1.982954   2.611309   0.904001
     8  H    1.232678   2.706846   3.170253   2.494275   3.368529
     9  H    1.420339   3.632508   4.298849   1.445072   4.040569
    10  H    1.438616   1.395286   2.056367   2.404615   2.727300
    11  H    2.959534   1.083065   1.771869   3.470584   3.094405
    12  H    2.642917   1.126053   1.811710   2.321801   2.316281
                    6          7          8          9         10
     6  O    0.000000
     7  H    2.803526   0.000000
     8  H    4.159230   3.655580   0.000000
     9  H    5.471574   3.818300   2.206643   0.000000
    10  H    3.054455   3.024079   1.389121   2.847223   0.000000
    11  H    2.323498   3.355840   3.153627   4.320261   1.777563
    12  H    2.757351   2.054622   3.378807   3.617965   2.239509
                   11         12
    11  H    0.000000
    12  H    1.863367   0.000000
 Stoichiometry    C3H6O3
 Framework group  C1[X(C3H6O3)]
 Deg. of freedom    30
 Full point group                 C1      NOp   1
 Largest Abelian subgroup         C1      NOp   1
 Largest concise Abelian subgroup C1      NOp   1
                         Standard orientation:                         
 ---------------------------------------------------------------------
 Center     Atomic      Atomic             Coordinates (Angstroms)
 Number     Number       Type             X           Y           Z
 ---------------------------------------------------------------------
      1          6           0        1.921406   -0.596296    0.450413
      2          6           0       -0.267576   -0.722247   -0.433227
      3          6           0       -1.119535   -0.155376    0.015544
      4          8           0        2.078248    0.457071   -0.437037
      5          8           0       -0.739141    1.222313    0.297223
      6          8           0       -2.295791   -0.292503    0.077536
      7          1           0       -0.272518    1.592799   -0.382646
      8          1           0        1.534071   -0.907972    1.578387
      9          1           0        3.145096    0.124207    0.479079
     10          1           0        0.595526   -1.139140    0.580714
     11          1           0       -0.603860   -1.740489   -0.585297
     12          1           0        0.049385   -0.180944   -1.368387
 ---------------------------------------------------------------------
 Rotational constants (GHZ):           8.1808452           2.0221952           1.7884636
 Standard basis: 6-31+G(d) (6D, 7F)
 There are   126 symmetry adapted cartesian basis functions of A   symmetry.
 There are   126 symmetry adapted basis functions of A   symmetry.
   126 basis functions,   216 primitive gaussians,   126 cartesian basis functions
    24 alpha electrons       24 beta electrons
       nuclear repulsion energy       241.9283808152 Hartrees.
 NAtoms=   12 NActive=   12 NUniq=   12 SFac= 1.00D+00 NAtFMM=   60 NAOKFM=F Big=F
 Integral buffers will be    131072 words long.
 Raffenetti 2 integral format.
 Two-electron integral symmetry is turned on.
 One-electron integrals computed using PRISM.
 NBasis=   126 RedAO= T EigKep=  2.69D-05  NBF=   126
 NBsUse=   126 1.00D-06 EigRej= -1.00D+00 NBFU=   126
 Initial guess from the checkpoint file:  "/scratch/bell/zhao922/YARP/paper-example/KHP-network/pp_0/TS-folder/Gau-107208.chk"
 B after Tr=     0.000000    0.000000   -0.000000
         Rot=    0.999959    0.008495   -0.000057   -0.003102 Ang=   1.04 deg.
 ExpMin= 4.38D-02 ExpMax= 5.48D+03 ExpMxC= 8.25D+02 IAcc=3 IRadAn=         5 AccDes= 0.00D+00
 Harris functional with IExCor=  402 and IRadAn=       5 diagonalized for initial guess.
 HarFok:  IExCor=  402 AccDes= 0.00D+00 IRadAn=         5 IDoV= 1 UseB2=F ITyADJ=14
 ICtDFT=  3500011 ScaDFX=  1.000000  1.000000  1.000000  1.000000
 FoFCou: FMM=F IPFlag=           0 FMFlag=      100000 FMFlg1=           0
         NFxFlg=           0 DoJE=T BraDBF=F KetDBF=T FulRan=T
         wScrn=  0.000000 ICntrl=       500 IOpCl=  0 I1Cent=   200000004 NGrid=           0
         NMat0=    1 NMatS0=      1 NMatT0=    0 NMatD0=    1 NMtDS0=    0 NMtDT0=    0
 Petite list used in FoFCou.
 Keep R1 ints in memory in canonical form, NReq=47237537.
 Requested convergence on RMS density matrix=1.00D-08 within 128 cycles.
 Requested convergence on MAX density matrix=1.00D-06.
 Requested convergence on             energy=1.00D-06.
 No special actions if energy rises.
 SCF Done:  E(RB3LYP) =  -343.099859918     A.U. after   16 cycles
            NFock= 16  Conv=0.55D-08     -V/T= 2.0052
 DoSCS=F DFT=T ScalE2(SS,OS)=  1.000000  1.000000
 Range of M.O.s used for correlation:     1   126
 NBasis=   126 NAE=    24 NBE=    24 NFC=     0 NFV=     0
 NROrb=    126 NOA=    24 NOB=    24 NVA=   102 NVB=   102

 **** Warning!!: The largest alpha MO coefficient is  0.57664864D+02


 **** Warning!!: The smallest alpha delta epsilon is  0.68242495D-01

 Symmetrizing basis deriv contribution to polar:
 IMax=3 JMax=2 DiffMx= 0.00D+00
 G2DrvN: will do    13 centers at a time, making    1 passes.
 Calling FoFCou, ICntrl=  3107 FMM=F I1Cent=   0 AccDes= 0.00D+00.
 End of G2Drv F.D. properties file   721 does not exist.
 End of G2Drv F.D. properties file   722 does not exist.
 End of G2Drv F.D. properties file   788 does not exist.
          IDoAtm=111111111111
          Differentiating once with respect to electric field.
                with respect to dipole field.
          Differentiating once with respect to nuclear coordinates.
 Keep R1 ints in memory in canonical form, NReq=47193559.
          There are    39 degrees of freedom in the 1st order CPHF.  IDoFFX=6 NUNeed=     3.
     36 vectors produced by pass  0 Test12= 6.28D-15 2.56D-09 XBig12= 2.25D+02 6.78D+00.
 AX will form    36 AO Fock derivatives at one time.
     36 vectors produced by pass  1 Test12= 6.28D-15 2.56D-09 XBig12= 5.89D+01 1.38D+00.
     36 vectors produced by pass  2 Test12= 6.28D-15 2.56D-09 XBig12= 6.68D-01 1.47D-01.
     36 vectors produced by pass  3 Test12= 6.28D-15 2.56D-09 XBig12= 2.08D-03 8.45D-03.
     36 vectors produced by pass  4 Test12= 6.28D-15 2.56D-09 XBig12= 3.85D-06 2.80D-04.
     29 vectors produced by pass  5 Test12= 6.28D-15 2.56D-09 XBig12= 4.00D-09 8.67D-06.
      7 vectors produced by pass  6 Test12= 6.28D-15 2.56D-09 XBig12= 3.43D-12 2.47D-07.
      3 vectors produced by pass  7 Test12= 6.28D-15 2.56D-09 XBig12= 2.85D-15 1.04D-08.
 InvSVY:  IOpt=1 It=  1 EMax= 1.78D-15
 Solved reduced A of dimension   219 with    39 vectors.
 Isotropic polarizability for W=    0.000000       70.50 Bohr**3.
 End of Minotr F.D. properties file   721 does not exist.
 End of Minotr F.D. properties file   722 does not exist.
 End of Minotr F.D. properties file   788 does not exist.
 Calling FoFJK, ICntrl=    100127 FMM=F ISym2X=0 I1Cent= 0 IOpClX= 0 NMat=1 NMatS=1 NMatT=0.
 ***** Axes restored to original set *****
 -------------------------------------------------------------------
 Center     Atomic                   Forces (Hartrees/Bohr)
 Number     Number              X              Y              Z
 -------------------------------------------------------------------
      1        6          -0.002722689    0.075922977   -0.092261142
      2        6          -0.397369223   -0.192105082   -0.433013822
      3        6           0.389141317    0.221852820    0.410688511
      4        8           0.051858933   -0.058882732    0.024578474
      5        8           0.074811768   -0.050858432    0.024870561
      6        8           0.019150831   -0.052095390    0.049525165
      7        1          -0.053185091    0.054490208   -0.030783824
      8        1          -0.020957892    0.040482479    0.012820564
      9        1          -0.010756619   -0.044986342    0.011430330
     10        1          -0.032929053    0.035779955    0.047554874
     11        1          -0.024534710   -0.005699116   -0.001281297
     12        1           0.007492428   -0.023901345   -0.024128396
 -------------------------------------------------------------------
 Cartesian Forces:  Max     0.433013822 RMS     0.149511411
 FormGI is forming the generalized inverse of G from B-inverse, IUseBI=4.

 GradGradGradGradGradGradGradGradGradGradGradGradGradGradGradGradGradGrad
 Berny optimization.
 Internal  Forces:  Max     0.647984089 RMS     0.101093611
 Search for a saddle point.
 Step number   2 out of a maximum of  100
 All quantities printed in internal units (Hartrees-Bohrs-Radians)
 Swapping is turned off.
 Second derivative matrix not updated -- analytic derivatives used.
 ITU=  0  0
     Eigenvalues ---   -0.31846  -0.06015  -0.02327  -0.01119  -0.00420
     Eigenvalues ---    0.00113   0.00724   0.01228   0.02830   0.03629
     Eigenvalues ---    0.04126   0.04959   0.06179   0.06366   0.07446
     Eigenvalues ---    0.08466   0.10866   0.11462   0.12190   0.14186
     Eigenvalues ---    0.15149   0.23471   0.28030   0.33110   0.35397
     Eigenvalues ---    0.37704   0.41055   0.80254   1.02756   2.04118
 Eigenvectors required to have negative eigenvalues:
                          R11       R3        A1        D1        R1
   1                    0.61788  -0.45879   0.32338  -0.27466  -0.25803
                          A2        A15       A16       A14       R4
   1                   -0.24760   0.16307   0.15269   0.12621   0.11925
 RFO step:  Lambda0=6.886086945D-03 Lambda=-2.77389829D-01.
 Linear search not attempted -- option 19 set.
 Maximum step size (   0.300) exceeded in Quadratic search.
    -- Step size scaled by   0.250
 Iteration  1 RMS(Cart)=  0.06026550 RMS(Int)=  0.00270119
 Iteration  2 RMS(Cart)=  0.00288028 RMS(Int)=  0.00070292
 Iteration  3 RMS(Cart)=  0.00000446 RMS(Int)=  0.00070291
 Iteration  4 RMS(Cart)=  0.00000001 RMS(Int)=  0.00070291
 Variable       Old X    -DE/DX   Delta X   Delta X   Delta X     New X
                                 (Linear)    (Quad)   (Total)
    R1        2.61967  -0.08167   0.00000  -0.04954  -0.04979   2.56989
    R2        2.32942  -0.04905   0.00000  -0.02306  -0.02240   2.30702
    R3        2.68405  -0.05105   0.00000  -0.01734  -0.01761   2.66644
    R4        2.71859   0.04479   0.00000   0.16332   0.16209   2.88068
    R5        2.11157   0.64798   0.00000   0.07578   0.07579   2.18736
    R6        2.63671  -0.02665   0.00000  -0.17122  -0.17124   2.46547
    R7        2.04670   0.01357   0.00000   0.00689   0.00689   2.05359
    R8        2.12793  -0.02238   0.00000  -0.00933  -0.00933   2.11860
    R9        2.75282   0.01272   0.00000  -0.00989  -0.00987   2.74296
   R10        2.24092   0.06697   0.00000   0.00296   0.00296   2.24387
   R11        2.73079   0.02351   0.00000   0.00354   0.00404   2.73483
   R12        1.70831   0.08123   0.00000   0.01890   0.01890   1.72722
   R13        2.62506   0.00427   0.00000   0.01339   0.01415   2.63921
    A1        2.52089  -0.04981   0.00000  -0.12679  -0.12808   2.39281
    A2        2.03642  -0.02480   0.00000  -0.00854  -0.00708   2.02934
    A3        1.96115   0.01213   0.00000   0.02663   0.02919   1.99033
    A4        1.90854  -0.00923   0.00000   0.01346   0.01341   1.92195
    A5        1.87193   0.00978   0.00000  -0.00383  -0.00412   1.86781
    A6        1.87998   0.02369   0.00000   0.00208   0.00211   1.88209
    A7        1.58399   0.01268   0.00000   0.02908   0.02906   1.61305
    A8        2.18097  -0.02454   0.00000  -0.01897  -0.01894   2.16203
    A9        2.00725  -0.01148   0.00000  -0.01851  -0.01845   1.98880
   A10        1.93729   0.02391   0.00000   0.00434   0.00435   1.94165
   A11        2.37261  -0.02933   0.00000  -0.01540  -0.01544   2.35717
   A12        1.93721   0.01027   0.00000   0.01404   0.01404   1.95125
   A13        1.95731   0.00162   0.00000   0.00173   0.00176   1.95907
   A14        1.97311   0.03548   0.00000   0.02122   0.02296   1.99607
   A15        2.66843  -0.00511   0.00000  -0.05994  -0.05992   2.60850
   A16        3.03574   0.03061   0.00000   0.02754   0.02715   3.06289
   A17        3.29589  -0.03764   0.00000  -0.01590  -0.01405   3.28184
    D1        0.24297   0.03057   0.00000   0.07123   0.07030   0.31327
    D2        1.41323  -0.02674   0.00000  -0.02816  -0.02815   1.38509
    D3       -2.05069  -0.00093   0.00000  -0.01155  -0.01158  -2.06227
    D4        3.10807  -0.01201   0.00000   0.00766   0.00766   3.11573
    D5       -0.35586   0.01380   0.00000   0.02427   0.02423  -0.33163
    D6       -1.00523  -0.00593   0.00000  -0.01573  -0.01571  -1.02094
    D7        1.81403   0.01988   0.00000   0.00088   0.00085   1.81489
    D8       -2.07300  -0.00165   0.00000  -0.00359  -0.00298  -2.07599
    D9       -1.20776   0.00883   0.00000   0.00216   0.00184  -1.20591
   D10        2.31468  -0.01564   0.00000  -0.01218  -0.01188   2.30279
   D11       -3.10326  -0.00516   0.00000  -0.00643  -0.00706  -3.11032
   D12        0.19108  -0.00026   0.00000  -0.00377  -0.00330   0.18778
   D13        1.05633   0.01021   0.00000   0.00198   0.00153   1.05785
   D14        0.76670  -0.00275   0.00000   0.00017   0.00027   0.76697
   D15       -2.13670  -0.01321   0.00000  -0.00674  -0.00686  -2.14355
         Item               Value     Threshold  Converged?
 Maximum Force            0.647984     0.000450     NO 
 RMS     Force            0.101094     0.000300     NO 
 Maximum Displacement     0.182205     0.001800     NO 
 RMS     Displacement     0.060584     0.001200     NO 
 Predicted change in Energy=-8.042396D-02
 GradGradGradGradGradGradGradGradGradGradGradGradGradGradGradGradGradGrad

                          Input orientation:                          
 ---------------------------------------------------------------------
 Center     Atomic      Atomic             Coordinates (Angstroms)
 Number     Number       Type             X           Y           Z
 ---------------------------------------------------------------------
      1          6           0        1.103746    1.039652   -3.302115
      2          6           0        0.656097    0.600383   -1.005673
      3          6           0        1.399886    0.860162   -0.157677
      4          8           0        0.619010    2.293597   -3.097055
      5          8           0        2.005318    2.162253   -0.369563
      6          8           0        1.594909    0.456893    0.941994
      7          1           0        1.393894    2.790019   -0.629319
      8          1           0        2.158334    0.449277   -3.129748
      9          1           0        1.111064    1.919109   -4.405509
     10          1           0        1.303719    0.181719   -2.058039
     11          1           0        0.266290   -0.391676   -0.793983
     12          1           0       -0.127919    1.401333   -1.032084
 ---------------------------------------------------------------------
                    Distance matrix (angstroms):
                    1          2          3          4          5
     1  C    0.000000
     2  C    2.380544   0.000000
     3  C    3.163448   1.157500   0.000000
     4  O    1.359925   2.691139   3.362209   0.000000
     5  O    3.266944   2.159738   1.451511   3.062403   0.000000
     6  O    4.311996   2.166879   1.187407   4.543102   2.190176
     7  H    3.208085   2.341046   1.986664   2.633742   0.914004
     8  H    1.220822   2.606001   3.094718   2.402520   3.252126
     9  H    1.411020   3.674904   4.387353   1.447208   4.140974
    10  H    1.524389   1.304671   2.020127   2.451206   2.695498
    11  H    3.006785   1.086712   1.804723   3.555172   3.118798
    12  H    2.607844   1.121115   1.841641   2.370262   2.359795
                    6          7          8          9         10
     6  O    0.000000
     7  H    2.820091   0.000000
     8  H    4.110547   3.509357   0.000000
     9  H    5.564887   3.885626   2.210146   0.000000
    10  H    3.026667   2.975333   1.396608   2.926816   0.000000
    11  H    2.344976   3.379614   3.121351   4.369954   1.732882
    12  H    2.785155   2.099187   3.245544   3.630863   2.142341
                   11         12
    11  H    0.000000
    12  H    1.851209   0.000000
 Stoichiometry    C3H6O3
 Framework group  C1[X(C3H6O3)]
 Deg. of freedom    30
 Full point group                 C1      NOp   1
 Largest Abelian subgroup         C1      NOp   1
 Largest concise Abelian subgroup C1      NOp   1
                         Standard orientation:                         
 ---------------------------------------------------------------------
 Center     Atomic      Atomic             Coordinates (Angstroms)
 Number     Number       Type             X           Y           Z
 ---------------------------------------------------------------------
      1          6           0        1.955681   -0.584645    0.438454
      2          6           0       -0.268448   -0.768083   -0.390155
      3          6           0       -1.149649   -0.143685    0.026279
      4          8           0        2.128451    0.455092   -0.420904
      5          8           0       -0.753578    1.232519    0.263075
      6          8           0       -2.329021   -0.276010    0.065111
      7          1           0       -0.256413    1.572682   -0.424326
      8          1           0        1.474671   -0.758133    1.547029
      9          1           0        3.212482    0.056656    0.451184
     10          1           0        0.533357   -1.114768    0.578909
     11          1           0       -0.630653   -1.784895   -0.516029
     12          1           0        0.074238   -0.285873   -1.342489
 ---------------------------------------------------------------------
 Rotational constants (GHZ):           8.2706720           1.9633755           1.7306899
 Standard basis: 6-31+G(d) (6D, 7F)
 There are   126 symmetry adapted cartesian basis functions of A   symmetry.
 There are   126 symmetry adapted basis functions of A   symmetry.
   126 basis functions,   216 primitive gaussians,   126 cartesian basis functions
    24 alpha electrons       24 beta electrons
       nuclear repulsion energy       240.1989024637 Hartrees.
 NAtoms=   12 NActive=   12 NUniq=   12 SFac= 1.00D+00 NAtFMM=   60 NAOKFM=F Big=F
 Integral buffers will be    131072 words long.
 Raffenetti 2 integral format.
 Two-electron integral symmetry is turned on.
 One-electron integrals computed using PRISM.
 NBasis=   126 RedAO= T EigKep=  3.28D-05  NBF=   126
 NBsUse=   126 1.00D-06 EigRej= -1.00D+00 NBFU=   126
 Initial guess from the checkpoint file:  "/scratch/bell/zhao922/YARP/paper-example/KHP-network/pp_0/TS-folder/Gau-107208.chk"
 B after Tr=    -0.000000   -0.000000    0.000000
         Rot=    0.999877    0.015500    0.001888    0.001422 Ang=   1.80 deg.
 ExpMin= 4.38D-02 ExpMax= 5.48D+03 ExpMxC= 8.25D+02 IAcc=3 IRadAn=         5 AccDes= 0.00D+00
 Harris functional with IExCor=  402 and IRadAn=       5 diagonalized for initial guess.
 HarFok:  IExCor=  402 AccDes= 0.00D+00 IRadAn=         5 IDoV= 1 UseB2=F ITyADJ=14
 ICtDFT=  3500011 ScaDFX=  1.000000  1.000000  1.000000  1.000000
 FoFCou: FMM=F IPFlag=           0 FMFlag=      100000 FMFlg1=           0
         NFxFlg=           0 DoJE=T BraDBF=F KetDBF=T FulRan=T
         wScrn=  0.000000 ICntrl=       500 IOpCl=  0 I1Cent=   200000004 NGrid=           0
         NMat0=    1 NMatS0=      1 NMatT0=    0 NMatD0=    1 NMtDS0=    0 NMtDT0=    0
 Petite list used in FoFCou.
 Keep R1 ints in memory in canonical form, NReq=47237537.
 Requested convergence on RMS density matrix=1.00D-08 within 128 cycles.
 Requested convergence on MAX density matrix=1.00D-06.
 Requested convergence on             energy=1.00D-06.
 No special actions if energy rises.
 SCF Done:  E(RB3LYP) =  -343.179151724     A.U. after   15 cycles
            NFock= 15  Conv=0.52D-08     -V/T= 2.0059
 DoSCS=F DFT=T ScalE2(SS,OS)=  1.000000  1.000000
 Range of M.O.s used for correlation:     1   126
 NBasis=   126 NAE=    24 NBE=    24 NFC=     0 NFV=     0
 NROrb=    126 NOA=    24 NOB=    24 NVA=   102 NVB=   102

 **** Warning!!: The largest alpha MO coefficient is  0.48375767D+02


 **** Warning!!: The smallest alpha delta epsilon is  0.83643858D-01

 Symmetrizing basis deriv contribution to polar:
 IMax=3 JMax=2 DiffMx= 0.00D+00
 G2DrvN: will do    13 centers at a time, making    1 passes.
 Calling FoFCou, ICntrl=  3107 FMM=F I1Cent=   0 AccDes= 0.00D+00.
 End of G2Drv F.D. properties file   721 does not exist.
 End of G2Drv F.D. properties file   722 does not exist.
 End of G2Drv F.D. properties file   788 does not exist.
          IDoAtm=111111111111
          Differentiating once with respect to electric field.
                with respect to dipole field.
          Differentiating once with respect to nuclear coordinates.
 Keep R1 ints in memory in canonical form, NReq=47193559.
          There are    39 degrees of freedom in the 1st order CPHF.  IDoFFX=6 NUNeed=     3.
     36 vectors produced by pass  0 Test12= 6.28D-15 2.56D-09 XBig12= 1.33D+02 5.37D+00.
 AX will form    36 AO Fock derivatives at one time.
     36 vectors produced by pass  1 Test12= 6.28D-15 2.56D-09 XBig12= 3.44D+01 1.04D+00.
     36 vectors produced by pass  2 Test12= 6.28D-15 2.56D-09 XBig12= 3.80D-01 1.24D-01.
     36 vectors produced by pass  3 Test12= 6.28D-15 2.56D-09 XBig12= 1.12D-03 4.75D-03.
     36 vectors produced by pass  4 Test12= 6.28D-15 2.56D-09 XBig12= 1.98D-06 2.23D-04.
     29 vectors produced by pass  5 Test12= 6.28D-15 2.56D-09 XBig12= 2.19D-09 6.50D-06.
      6 vectors produced by pass  6 Test12= 6.28D-15 2.56D-09 XBig12= 1.80D-12 1.85D-07.
      3 vectors produced by pass  7 Test12= 6.28D-15 2.56D-09 XBig12= 1.75D-15 7.72D-09.
 InvSVY:  IOpt=1 It=  1 EMax= 2.00D-15
 Solved reduced A of dimension   218 with    39 vectors.
 Isotropic polarizability for W=    0.000000       64.06 Bohr**3.
 End of Minotr F.D. properties file   721 does not exist.
 End of Minotr F.D. properties file   722 does not exist.
 End of Minotr F.D. properties file   788 does not exist.
 Calling FoFJK, ICntrl=    100127 FMM=F ISym2X=0 I1Cent= 0 IOpClX= 0 NMat=1 NMatS=1 NMatT=0.
 ***** Axes restored to original set *****
 -------------------------------------------------------------------
 Center     Atomic                   Forces (Hartrees/Bohr)
 Number     Number              X              Y              Z
 -------------------------------------------------------------------
      1        6           0.002795634    0.072806299   -0.092971690
      2        6          -0.299816746   -0.174186271   -0.351849449
      3        6           0.300902910    0.195437118    0.332299140
      4        8           0.046638136   -0.052526896    0.025968032
      5        8           0.060795501   -0.044746470    0.023105665
      6        8           0.015439077   -0.046079578    0.039507356
      7        1          -0.042605734    0.044167599   -0.028602866
      8        1          -0.019719803    0.040990344    0.006539361
      9        1          -0.011484447   -0.043884573    0.013747967
     10        1          -0.036890864    0.032624226    0.052952900
     11        1          -0.023050886   -0.003361367    0.000652856
     12        1           0.006997220   -0.021240432   -0.021349273
 -------------------------------------------------------------------
 Cartesian Forces:  Max     0.351849449 RMS     0.121172111
 FormGI is forming the generalized inverse of G from B-inverse, IUseBI=4.

 GradGradGradGradGradGradGradGradGradGradGradGradGradGradGradGradGradGrad
 Berny optimization.
 Internal  Forces:  Max     0.516919502 RMS     0.081739689
 Search for a saddle point.
 Step number   3 out of a maximum of  100
 All quantities printed in internal units (Hartrees-Bohrs-Radians)
 Swapping is turned off.
 Second derivative matrix not updated -- analytic derivatives used.
 ITU=  0  0  0
     Eigenvalues ---   -0.29982  -0.02276  -0.01405  -0.00564   0.00049
     Eigenvalues ---    0.00658   0.00793   0.02332   0.03837   0.04080
     Eigenvalues ---    0.04266   0.05520   0.06451   0.07298   0.08177
     Eigenvalues ---    0.09340   0.11665   0.12184   0.13159   0.14153
     Eigenvalues ---    0.15417   0.25265   0.29013   0.30572   0.34720
     Eigenvalues ---    0.36760   0.39383   0.74940   1.01620   1.68960
 Eigenvectors required to have negative eigenvalues:
                          R11       R3        R1        A2        A1
   1                   -0.65532   0.47729   0.24836   0.24410  -0.23796
                          D1        A16       R4        A15       A14
   1                    0.21919  -0.20656  -0.18282  -0.14007  -0.10374
 RFO step:  Lambda0=1.118192335D-02 Lambda=-2.22065899D-01.
 Linear search not attempted -- option 19 set.
 Maximum step size (   0.300) exceeded in Quadratic search.
    -- Step size scaled by   0.309
 Iteration  1 RMS(Cart)=  0.09016708 RMS(Int)=  0.00859257
 Iteration  2 RMS(Cart)=  0.00832399 RMS(Int)=  0.00307594
 Iteration  3 RMS(Cart)=  0.00007207 RMS(Int)=  0.00307537
 Iteration  4 RMS(Cart)=  0.00000146 RMS(Int)=  0.00307537
 Iteration  5 RMS(Cart)=  0.00000002 RMS(Int)=  0.00307537
 Variable       Old X    -DE/DX   Delta X   Delta X   Delta X     New X
                                 (Linear)    (Quad)   (Total)
    R1        2.56989  -0.07236   0.00000   0.00309   0.00245   2.57234
    R2        2.30702  -0.04668   0.00000  -0.04923  -0.04487   2.26215
    R3        2.66644  -0.05054   0.00000  -0.05264  -0.05330   2.61314
    R4        2.88068   0.04562   0.00000  -0.04535  -0.05042   2.83026
    R5        2.18736   0.51692   0.00000   0.08687   0.08682   2.27417
    R6        2.46547  -0.03044   0.00000  -0.05110  -0.05105   2.41442
    R7        2.05359   0.01146   0.00000   0.00297   0.00297   2.05655
    R8        2.11860  -0.01956   0.00000  -0.01190  -0.01190   2.10670
    R9        2.74296   0.00775   0.00000  -0.02806  -0.02808   2.71488
   R10        2.24387   0.05477   0.00000   0.00819   0.00819   2.25206
   R11        2.73483   0.02261   0.00000  -0.03431  -0.03307   2.70175
   R12        1.72722   0.06660   0.00000   0.02282   0.02289   1.75011
   R13        2.63921   0.00957   0.00000   0.07223   0.07385   2.71306
    A1        2.39281  -0.05247   0.00000  -0.12946  -0.13563   2.25718
    A2        2.02934  -0.02055   0.00000   0.07790   0.08180   2.11114
    A3        1.99033   0.01545   0.00000  -0.01846  -0.00861   1.98172
    A4        1.92195  -0.00756   0.00000  -0.01069  -0.01072   1.91123
    A5        1.86781   0.00827   0.00000   0.01766   0.01770   1.88551
    A6        1.88209   0.02077   0.00000   0.01339   0.01295   1.89504
    A7        1.61305   0.01361   0.00000   0.01953   0.01958   1.63263
    A8        2.16203  -0.02308   0.00000  -0.02666  -0.02667   2.13536
    A9        1.98880  -0.01073   0.00000  -0.00766  -0.00770   1.98110
   A10        1.94165   0.02021   0.00000   0.01010   0.00995   1.95160
   A11        2.35717  -0.02657   0.00000  -0.02933  -0.02932   2.32785
   A12        1.95125   0.01080   0.00000   0.02274   0.02282   1.97408
   A13        1.95907   0.00129   0.00000   0.00807   0.00799   1.96706
   A14        1.99607   0.03538   0.00000   0.00008   0.00791   2.00398
   A15        2.60850  -0.00820   0.00000  -0.11238  -0.10883   2.49968
   A16        3.06289   0.03074   0.00000   0.12871   0.12752   3.19041
   A17        3.28184  -0.03131   0.00000  -0.09338  -0.08559   3.19625
    D1        0.31327   0.02639   0.00000   0.01878   0.01365   0.32692
    D2        1.38509  -0.02595   0.00000  -0.05467  -0.05457   1.33051
    D3       -2.06227  -0.00186   0.00000  -0.03307  -0.03318  -2.09545
    D4        3.11573  -0.00993   0.00000  -0.02918  -0.02911   3.08662
    D5       -0.33163   0.01417   0.00000  -0.00758  -0.00772  -0.33934
    D6       -1.02094  -0.00605   0.00000  -0.02038  -0.02010  -1.04105
    D7        1.81489   0.01805   0.00000   0.00122   0.00129   1.81617
    D8       -2.07599  -0.00068   0.00000   0.01370   0.01685  -2.05914
    D9       -1.20591   0.00880   0.00000   0.06487   0.06157  -1.14434
   D10        2.30279  -0.01378   0.00000  -0.01137  -0.00813   2.29467
   D11       -3.11032  -0.00430   0.00000   0.03980   0.03659  -3.07373
   D12        0.18778  -0.00047   0.00000  -0.00519  -0.00174   0.18604
   D13        1.05785   0.00901   0.00000   0.04598   0.04298   1.10083
   D14        0.76697  -0.00261   0.00000  -0.07911  -0.07886   0.68811
   D15       -2.14355  -0.01328   0.00000  -0.08615  -0.08636  -2.22991
         Item               Value     Threshold  Converged?
 Maximum Force            0.516920     0.000450     NO 
 RMS     Force            0.081740     0.000300     NO 
 Maximum Displacement     0.359373     0.001800     NO 
 RMS     Displacement     0.089458     0.001200     NO 
 Predicted change in Energy=-6.522921D-02
 GradGradGradGradGradGradGradGradGradGradGradGradGradGradGradGradGradGrad

                          Input orientation:                          
 ---------------------------------------------------------------------
 Center     Atomic      Atomic             Coordinates (Angstroms)
 Number     Number       Type             X           Y           Z
 ---------------------------------------------------------------------
      1          6           0        1.110249    1.060750   -3.258854
      2          6           0        0.637269    0.584791   -1.015695
      3          6           0        1.408160    0.854697   -0.131870
      4          8           0        0.639408    2.333436   -3.151567
      5          8           0        2.048975    2.121759   -0.350691
      6          8           0        1.567692    0.434338    0.971800
      7          1           0        1.472381    2.759085   -0.695730
      8          1           0        2.211657    0.639449   -3.052928
      9          1           0        1.009818    1.797998   -4.424423
     10          1           0        1.287362    0.199969   -2.046084
     11          1           0        0.231774   -0.405635   -0.818245
     12          1           0       -0.140399    1.382080   -1.064484
 ---------------------------------------------------------------------
                    Distance matrix (angstroms):
                    1          2          3          4          5
     1  C    0.000000
     2  C    2.341369   0.000000
     3  C    3.147894   1.203440   0.000000
     4  O    1.361224   2.760382   3.449089   0.000000
     5  O    3.234866   2.190300   1.436653   3.142704   0.000000
     6  O    4.301172   2.199650   1.191739   4.633621   2.197273
     7  H    3.095979   2.351030   1.987148   2.627956   0.926119
     8  H    1.197080   2.575267   3.037189   2.313285   3.086388
     9  H    1.382813   3.637319   4.412993   1.429706   4.216629
    10  H    1.497707   1.277657   2.026690   2.488698   2.673516
    11  H    2.979694   1.088282   1.855649   3.621197   3.147785
    12  H    2.546102   1.114818   1.883066   2.422621   2.418674
                    6          7          8          9         10
     6  O    0.000000
     7  H    2.862550   0.000000
     8  H    4.081078   3.255114   0.000000
     9  H    5.593748   3.878247   2.160476   0.000000
    10  H    3.039924   2.899441   1.435688   2.878755   0.000000
    11  H    2.386314   3.401407   3.163218   4.297194   1.728760
    12  H    2.821745   2.152483   3.168214   3.575637   2.097481
                   11         12
    11  H    0.000000
    12  H    1.842573   0.000000
 Stoichiometry    C3H6O3
 Framework group  C1[X(C3H6O3)]
 Deg. of freedom    30
 Full point group                 C1      NOp   1
 Largest Abelian subgroup         C1      NOp   1
 Largest concise Abelian subgroup C1      NOp   1
                         Standard orientation:                         
 ---------------------------------------------------------------------
 Center     Atomic      Atomic             Coordinates (Angstroms)
 Number     Number       Type             X           Y           Z
 ---------------------------------------------------------------------
      1          6           0        1.915286   -0.553644    0.466130
      2          6           0       -0.262678   -0.810788   -0.353846
      3          6           0       -1.172319   -0.122688    0.030001
      4          8           0        2.200891    0.432211   -0.427991
      5          8           0       -0.765031    1.241272    0.224176
      6          8           0       -2.355514   -0.264246    0.045891
      7          1           0       -0.183285    1.537579   -0.432689
      8          1           0        1.429775   -0.470937    1.557203
      9          1           0        3.224346   -0.111738    0.409098
     10          1           0        0.518211   -1.069875    0.623648
     11          1           0       -0.622445   -1.835352   -0.425904
     12          1           0        0.108900   -0.400850   -1.321679
 ---------------------------------------------------------------------
 Rotational constants (GHZ):           8.3237494           1.9218877           1.6970039
 Standard basis: 6-31+G(d) (6D, 7F)
 There are   126 symmetry adapted cartesian basis functions of A   symmetry.
 There are   126 symmetry adapted basis functions of A   symmetry.
   126 basis functions,   216 primitive gaussians,   126 cartesian basis functions
    24 alpha electrons       24 beta electrons
       nuclear repulsion energy       238.7955808511 Hartrees.
 NAtoms=   12 NActive=   12 NUniq=   12 SFac= 1.00D+00 NAtFMM=   60 NAOKFM=F Big=F
 Integral buffers will be    131072 words long.
 Raffenetti 2 integral format.
 Two-electron integral symmetry is turned on.
 One-electron integrals computed using PRISM.
 NBasis=   126 RedAO= T EigKep=  4.17D-05  NBF=   126
 NBsUse=   126 1.00D-06 EigRej= -1.00D+00 NBFU=   126
 Initial guess from the checkpoint file:  "/scratch/bell/zhao922/YARP/paper-example/KHP-network/pp_0/TS-folder/Gau-107208.chk"
 B after Tr=     0.000000   -0.000000   -0.000000
         Rot=    0.999703    0.023854    0.004034    0.002920 Ang=   2.79 deg.
 ExpMin= 4.38D-02 ExpMax= 5.48D+03 ExpMxC= 8.25D+02 IAcc=3 IRadAn=         5 AccDes= 0.00D+00
 Harris functional with IExCor=  402 and IRadAn=       5 diagonalized for initial guess.
 HarFok:  IExCor=  402 AccDes= 0.00D+00 IRadAn=         5 IDoV= 1 UseB2=F ITyADJ=14
 ICtDFT=  3500011 ScaDFX=  1.000000  1.000000  1.000000  1.000000
 FoFCou: FMM=F IPFlag=           0 FMFlag=      100000 FMFlg1=           0
         NFxFlg=           0 DoJE=T BraDBF=F KetDBF=T FulRan=T
         wScrn=  0.000000 ICntrl=       500 IOpCl=  0 I1Cent=   200000004 NGrid=           0
         NMat0=    1 NMatS0=      1 NMatT0=    0 NMatD0=    1 NMtDS0=    0 NMtDT0=    0
 Petite list used in FoFCou.
 Keep R1 ints in memory in canonical form, NReq=47237537.
 Requested convergence on RMS density matrix=1.00D-08 within 128 cycles.
 Requested convergence on MAX density matrix=1.00D-06.
 Requested convergence on             energy=1.00D-06.
 No special actions if energy rises.
 SCF Done:  E(RB3LYP) =  -343.244191397     A.U. after   14 cycles
            NFock= 14  Conv=0.90D-08     -V/T= 2.0067
 DoSCS=F DFT=T ScalE2(SS,OS)=  1.000000  1.000000
 Range of M.O.s used for correlation:     1   126
 NBasis=   126 NAE=    24 NBE=    24 NFC=     0 NFV=     0
 NROrb=    126 NOA=    24 NOB=    24 NVA=   102 NVB=   102

 **** Warning!!: The largest alpha MO coefficient is  0.57361505D+02


 **** Warning!!: The smallest alpha delta epsilon is  0.92474169D-01

 Symmetrizing basis deriv contribution to polar:
 IMax=3 JMax=2 DiffMx= 0.00D+00
 G2DrvN: will do    13 centers at a time, making    1 passes.
 Calling FoFCou, ICntrl=  3107 FMM=F I1Cent=   0 AccDes= 0.00D+00.
 End of G2Drv F.D. properties file   721 does not exist.
 End of G2Drv F.D. properties file   722 does not exist.
 End of G2Drv F.D. properties file   788 does not exist.
          IDoAtm=111111111111
          Differentiating once with respect to electric field.
                with respect to dipole field.
          Differentiating once with respect to nuclear coordinates.
 Keep R1 ints in memory in canonical form, NReq=47193559.
          There are    39 degrees of freedom in the 1st order CPHF.  IDoFFX=6 NUNeed=     3.
     36 vectors produced by pass  0 Test12= 6.28D-15 2.56D-09 XBig12= 1.24D+02 5.26D+00.
 AX will form    36 AO Fock derivatives at one time.
     36 vectors produced by pass  1 Test12= 6.28D-15 2.56D-09 XBig12= 3.24D+01 9.45D-01.
     36 vectors produced by pass  2 Test12= 6.28D-15 2.56D-09 XBig12= 3.83D-01 1.08D-01.
     36 vectors produced by pass  3 Test12= 6.28D-15 2.56D-09 XBig12= 1.29D-03 6.00D-03.
     36 vectors produced by pass  4 Test12= 6.28D-15 2.56D-09 XBig12= 2.17D-06 1.76D-04.
     29 vectors produced by pass  5 Test12= 6.28D-15 2.56D-09 XBig12= 2.43D-09 5.50D-06.
      4 vectors produced by pass  6 Test12= 6.28D-15 2.56D-09 XBig12= 1.98D-12 1.69D-07.
      3 vectors produced by pass  7 Test12= 6.28D-15 2.56D-09 XBig12= 1.63D-15 7.08D-09.
 InvSVY:  IOpt=1 It=  1 EMax= 6.66D-15
 Solved reduced A of dimension   216 with    39 vectors.
 Isotropic polarizability for W=    0.000000       61.33 Bohr**3.
 End of Minotr F.D. properties file   721 does not exist.
 End of Minotr F.D. properties file   722 does not exist.
 End of Minotr F.D. properties file   788 does not exist.
 Calling FoFJK, ICntrl=    100127 FMM=F ISym2X=0 I1Cent= 0 IOpClX= 0 NMat=1 NMatS=1 NMatT=0.
 ***** Axes restored to original set *****
 -------------------------------------------------------------------
 Center     Atomic                   Forces (Hartrees/Bohr)
 Number     Number              X              Y              Z
 -------------------------------------------------------------------
      1        6           0.007946627    0.060546284   -0.086850070
      2        6          -0.218574204   -0.142831341   -0.265548461
      3        6           0.226318449    0.159871658    0.252878882
      4        8           0.042379981   -0.040649751    0.021569249
      5        8           0.043927593   -0.037373192    0.024333196
      6        8           0.011271045   -0.039298644    0.027890805
      7        1          -0.029627580    0.032844608   -0.028849312
      8        1          -0.018661583    0.036768930    0.001219889
      9        1          -0.011100788   -0.037737719    0.021793666
     10        1          -0.039928722    0.027066859    0.049406483
     11        1          -0.019912355   -0.001446822    0.001166865
     12        1           0.005961537   -0.017760871   -0.019011193
 -------------------------------------------------------------------
 Cartesian Forces:  Max     0.265548461 RMS     0.093298323
 FormGI is forming the generalized inverse of G from B-inverse, IUseBI=4.

 GradGradGradGradGradGradGradGradGradGradGradGradGradGradGradGradGradGrad
 Berny optimization.
 Internal  Forces:  Max     0.390554457 RMS     0.062709645
 Search for a saddle point.
 Step number   4 out of a maximum of  100
 All quantities printed in internal units (Hartrees-Bohrs-Radians)
 Swapping is turned off.
 Second derivative matrix not updated -- analytic derivatives used.
 ITU=  0  0  0  0
     Eigenvalues ---   -0.26395  -0.02057  -0.00861  -0.00169   0.00081
     Eigenvalues ---    0.00486   0.01232   0.02976   0.04096   0.04559
     Eigenvalues ---    0.05530   0.06152   0.06393   0.07676   0.09722
     Eigenvalues ---    0.11102   0.11814   0.13122   0.13964   0.14459
     Eigenvalues ---    0.16016   0.22280   0.30383   0.31505   0.34531
     Eigenvalues ---    0.35424   0.38388   0.68878   0.98445   1.35658
 Eigenvectors required to have negative eigenvalues:
                          R11       R3        A16       R1        A2
   1                    0.68696  -0.48365   0.28446  -0.23503  -0.21761
                          R4        A1        A15       D1        A14
   1                    0.18511   0.18416   0.11814  -0.11771   0.06968
 RFO step:  Lambda0=1.079888244D-02 Lambda=-1.69122367D-01.
 Linear search not attempted -- option 19 set.
 Maximum step size (   0.300) exceeded in Quadratic search.
    -- Step size scaled by   0.465
 Iteration  1 RMS(Cart)=  0.12513242 RMS(Int)=  0.01689325
 Iteration  2 RMS(Cart)=  0.01525077 RMS(Int)=  0.00299884
 Iteration  3 RMS(Cart)=  0.00031596 RMS(Int)=  0.00298720
 Iteration  4 RMS(Cart)=  0.00000221 RMS(Int)=  0.00298720
 Iteration  5 RMS(Cart)=  0.00000003 RMS(Int)=  0.00298720
 Variable       Old X    -DE/DX   Delta X   Delta X   Delta X     New X
                                 (Linear)    (Quad)   (Total)
    R1        2.57234  -0.05884   0.00000   0.00160  -0.00078   2.57156
    R2        2.26215  -0.04083   0.00000  -0.04762  -0.04345   2.21870
    R3        2.61314  -0.04590   0.00000  -0.04576  -0.04813   2.56501
    R4        2.83026   0.03740   0.00000  -0.00279  -0.00557   2.82468
    R5        2.27417   0.39055   0.00000   0.12436   0.12441   2.39859
    R6        2.41442  -0.02975   0.00000  -0.05304  -0.05311   2.36132
    R7        2.05655   0.00895   0.00000   0.00483   0.00483   2.06138
    R8        2.10670  -0.01603   0.00000  -0.01583  -0.01583   2.09087
    R9        2.71488   0.00322   0.00000  -0.05140  -0.05136   2.66352
   R10        2.25206   0.04120   0.00000   0.01421   0.01421   2.26627
   R11        2.70175   0.01544   0.00000  -0.12814  -0.12340   2.57835
   R12        1.75011   0.05143   0.00000   0.03212   0.03207   1.78218
   R13        2.71306   0.01472   0.00000   0.02641   0.02592   2.73897
    A1        2.25718  -0.04984   0.00000  -0.08286  -0.08450   2.17268
    A2        2.11114  -0.01537   0.00000  -0.01252  -0.00169   2.10945
    A3        1.98172   0.02012   0.00000   0.08123   0.08427   2.06599
    A4        1.91123  -0.00577   0.00000   0.00104   0.00089   1.91213
    A5        1.88551   0.00710   0.00000   0.01255   0.01244   1.89795
    A6        1.89504   0.01713   0.00000   0.01380   0.01387   1.90891
    A7        1.63263   0.01313   0.00000   0.01608   0.01608   1.64871
    A8        2.13536  -0.02110   0.00000  -0.02151  -0.02151   2.11386
    A9        1.98110  -0.00948   0.00000  -0.01935  -0.01942   1.96168
   A10        1.95160   0.01661   0.00000   0.02602   0.02615   1.97775
   A11        2.32785  -0.02327   0.00000  -0.05069  -0.05088   2.27697
   A12        1.97408   0.01055   0.00000   0.02934   0.02935   2.00342
   A13        1.96706   0.00084   0.00000   0.00460   0.00473   1.97179
   A14        2.00398   0.03411   0.00000  -0.00036   0.00885   2.01282
   A15        2.49968  -0.01003   0.00000   0.10343   0.10045   2.60012
   A16        3.19041   0.02807   0.00000  -0.00795  -0.01748   3.17293
   A17        3.19625  -0.02378   0.00000  -0.11980  -0.11862   3.07763
    D1        0.32692   0.02096   0.00000   0.23913   0.23707   0.56398
    D2        1.33051  -0.02404   0.00000  -0.06098  -0.06097   1.26955
    D3       -2.09545  -0.00251   0.00000  -0.03136  -0.03160  -2.12705
    D4        3.08662  -0.00846   0.00000  -0.03706  -0.03698   3.04964
    D5       -0.33934   0.01306   0.00000  -0.00744  -0.00761  -0.34696
    D6       -1.04105  -0.00513   0.00000  -0.04445  -0.04434  -1.08538
    D7        1.81617   0.01639   0.00000  -0.01483  -0.01497   1.80120
    D8       -2.05914   0.00118   0.00000   0.09709   0.09897  -1.96017
    D9       -1.14434   0.00797   0.00000   0.01218   0.01021  -1.13414
   D10        2.29467  -0.01061   0.00000   0.07688   0.07877   2.37343
   D11       -3.07373  -0.00382   0.00000  -0.00803  -0.01000  -3.08372
   D12        0.18604   0.00072   0.00000   0.09861   0.10047   0.28651
   D13        1.10083   0.00751   0.00000   0.01370   0.01171   1.11254
   D14        0.68811  -0.00307   0.00000  -0.20335  -0.20277   0.48534
   D15       -2.22991  -0.01379   0.00000  -0.21265  -0.21333  -2.44324
         Item               Value     Threshold  Converged?
 Maximum Force            0.390554     0.000450     NO 
 RMS     Force            0.062710     0.000300     NO 
 Maximum Displacement     0.506525     0.001800     NO 
 RMS     Displacement     0.130434     0.001200     NO 
 Predicted change in Energy=-6.563677D-02
 GradGradGradGradGradGradGradGradGradGradGradGradGradGradGradGradGradGrad

                          Input orientation:                          
 ---------------------------------------------------------------------
 Center     Atomic      Atomic             Coordinates (Angstroms)
 Number     Number       Type             X           Y           Z
 ---------------------------------------------------------------------
      1          6           0        1.120112    1.092811   -3.223939
      2          6           0        0.617952    0.537046   -1.025616
      3          6           0        1.411473    0.907080   -0.106668
      4          8           0        0.907450    2.428293   -3.072067
[...]
   A15        1.54342   0.00000   0.00000  -0.00003  -0.00003   1.54339
   A16        1.97998  -0.00000   0.00000  -0.00001  -0.00001   1.97998
   A17        0.51916  -0.00000   0.00000  -0.00007  -0.00007   0.51909
    D1       -1.66863   0.00000   0.00000  -0.00007  -0.00007  -1.66870
    D2        1.04140   0.00000   0.00000   0.00001   0.00001   1.04140
    D3       -2.10020   0.00000   0.00000   0.00001   0.00001  -2.10019
    D4        3.14159   0.00000   0.00000   0.00000   0.00000  -3.14159
    D5       -0.00000   0.00000   0.00000   0.00001   0.00001   0.00000
    D6       -1.04141   0.00000   0.00000   0.00001   0.00001  -1.04140
    D7        2.10019   0.00000   0.00000   0.00001   0.00001   2.10019
    D8       -0.99323  -0.00000   0.00000  -0.00001  -0.00001  -0.99324
    D9       -0.80568   0.00000   0.00000  -0.00001  -0.00001  -0.80569
   D10       -3.09473  -0.00000   0.00000  -0.00001  -0.00001  -3.09474
   D11       -2.90717   0.00000   0.00000  -0.00001  -0.00001  -2.90718
   D12        1.11988  -0.00000   0.00000  -0.00001  -0.00001   1.11988
   D13        1.30744   0.00000   0.00000  -0.00001  -0.00001   1.30743
   D14       -0.00000   0.00000   0.00000   0.00000   0.00000   0.00000
   D15        3.14159   0.00000   0.00000   0.00000   0.00000  -3.14159
         Item               Value     Threshold  Converged?
 Maximum Force            0.000000     0.000450     YES
 RMS     Force            0.000000     0.000300     YES
 Maximum Displacement     0.000079     0.001800     YES
 RMS     Displacement     0.000029     0.001200     YES
 Predicted change in Energy=-3.776488D-12
 Optimization completed.
    -- Stationary point found.
                           ----------------------------
                           !   Optimized Parameters   !
                           ! (Angstroms and Degrees)  !
 --------------------------                            --------------------------
 ! Name  Definition              Value          Derivative Info.                !
 --------------------------------------------------------------------------------
 ! R1    R(1,4)                  1.3145         -DE/DX =    0.0                 !
 ! R2    R(1,8)                  1.1108         -DE/DX =    0.0                 !
 ! R3    R(1,9)                  1.2881         -DE/DX =    0.0                 !
 ! R4    R(1,10)                 4.8448         -DE/DX =    0.0                 !
 ! R5    R(2,3)                  1.5185         -DE/DX =    0.0                 !
 ! R6    R(2,10)                 1.0969         -DE/DX =    0.0                 !
 ! R7    R(2,11)                 1.0908         -DE/DX =    0.0                 !
 ! R8    R(2,12)                 1.0969         -DE/DX =    0.0                 !
 ! R9    R(3,5)                  1.36           -DE/DX =    0.0                 !
 ! R10   R(3,6)                  1.2076         -DE/DX =    0.0                 !
 ! R11   R(4,9)                  1.164          -DE/DX =    0.0                 !
 ! R12   R(5,7)                  0.9788         -DE/DX =    0.0                 !
 ! R13   R(8,10)                 5.046          -DE/DX =    0.0                 !
 ! A1    A(4,1,8)              113.7926         -DE/DX =    0.0                 !
 ! A2    A(4,1,10)              22.2379         -DE/DX =    0.0                 !
 ! A3    A(8,1,9)              166.9134         -DE/DX =    0.0                 !
 ! A4    A(3,2,10)             110.6451         -DE/DX =    0.0                 !
 ! A5    A(3,2,11)             109.3416         -DE/DX =    0.0                 !
 ! A6    A(3,2,12)             110.645          -DE/DX =    0.0                 !
 ! A7    A(10,2,11)            109.2163         -DE/DX =    0.0                 !
 ! A8    A(10,2,12)            107.7409         -DE/DX =    0.0                 !
 ! A9    A(11,2,12)            109.2163         -DE/DX =    0.0                 !
 ! A10   A(2,3,5)              115.4974         -DE/DX =    0.0                 !
 ! A11   A(2,3,6)              124.4486         -DE/DX =    0.0                 !
 ! A12   A(5,3,6)              120.054          -DE/DX =    0.0                 !
 ! A13   A(3,5,7)              111.8151         -DE/DX =    0.0                 !
 ! A14   A(1,10,2)              95.1895         -DE/DX =    0.0                 !
 ! A15   A(2,10,8)              88.4315         -DE/DX =    0.0                 !
 ! A16   L(9,1,10,7,-1)        113.4448         -DE/DX =    0.0                 !
 ! A17   L(9,1,10,7,-2)         29.7456         -DE/DX =    0.0                 !
 ! D1    D(4,1,10,2)           -95.6053         -DE/DX =    0.0                 !
 ! D2    D(10,2,3,5)            59.6676         -DE/DX =    0.0                 !
 ! D3    D(10,2,3,6)          -120.3324         -DE/DX =    0.0                 !
 ! D4    D(11,2,3,5)          -180.0002         -DE/DX =    0.0                 !
 ! D5    D(11,2,3,6)            -0.0003         -DE/DX =    0.0                 !
 ! D6    D(12,2,3,5)           -59.6681         -DE/DX =    0.0                 !
 ! D7    D(12,2,3,6)           120.3318         -DE/DX =    0.0                 !
 ! D8    D(3,2,10,1)           -56.908          -DE/DX =    0.0                 !
 ! D9    D(3,2,10,8)           -46.1618         -DE/DX =    0.0                 !
 ! D10   D(11,2,10,1)         -177.3149         -DE/DX =    0.0                 !
 ! D11   D(11,2,10,8)         -166.5687         -DE/DX =    0.0                 !
 ! D12   D(12,2,10,1)           64.1646         -DE/DX =    0.0                 !
 ! D13   D(12,2,10,8)           74.9108         -DE/DX =    0.0                 !
 ! D14   D(2,3,5,7)              0.0            -DE/DX =    0.0                 !
 ! D15   D(6,3,5,7)           -180.0            -DE/DX =    0.0                 !
 --------------------------------------------------------------------------------
 GradGradGradGradGradGradGradGradGradGradGradGradGradGradGradGradGradGrad


 ----------------------------------------------------------------------

 Electric dipole moment (input orientation):
 (Debye = 10**-18 statcoulomb cm , SI units = C m)
                  (au)            (Debye)         (10**-30 SI)
   Tot        0.196954D+01      0.500607D+01      0.166985D+02
   x         -0.118942D+01     -0.302320D+01     -0.100843D+02
   y         -0.688516D-01     -0.175003D+00     -0.583748D+00
   z         -0.156832D+01     -0.398628D+01     -0.132968D+02

 Dipole polarizability, Alpha (input orientation).
 (esu units = cm**3 , SI units = C**2 m**2 J**-1)
 Alpha(0;0):
               (au)            (10**-24 esu)      (10**-40 SI)
   iso        0.514456D+02      0.762346D+01      0.848224D+01
   aniso      0.261158D+02      0.386996D+01      0.430591D+01
   xx         0.509751D+02      0.755372D+01      0.840465D+01
   yx         0.700654D+01      0.103826D+01      0.115522D+01
   yy         0.410119D+02      0.607733D+01      0.676194D+01
   zx         0.164160D+01      0.243261D+00      0.270664D+00
   zy        -0.784623D+01     -0.116269D+01     -0.129367D+01
   zz         0.623500D+02      0.923932D+01      0.102801D+02

 ----------------------------------------------------------------------

 Dipole orientation:
     6          7.79258541         -4.77879239          4.26518697
     6          0.41930217         -0.45039809         -0.02999964
     6          2.28714169         -1.54691841         -1.91240075
     8          5.65042535         -3.52134116          4.25257319
     8          4.31955299         -2.74007500         -0.88722900
     8          2.06282021         -1.41521145         -4.17955018
     1          4.27240731         -2.71241111          0.96158043
     1          8.53130587         -5.21234928          2.34887036
     1          6.52421015         -4.03434988          6.20486161
     1          1.34531131          0.94728076          1.18876139
     1         -1.12538912          0.45644691         -1.05021480
     1         -0.34982766         -1.94020530          1.18872539

 Electric dipole moment (dipole orientation):
 (Debye = 10**-18 statcoulomb cm , SI units = C m)
                  (au)            (Debye)         (10**-30 SI)
   Tot        0.196954D+01      0.500607D+01      0.166985D+02
   x          0.000000D+00      0.000000D+00      0.000000D+00
   y          0.000000D+00      0.000000D+00      0.000000D+00
   z          0.196954D+01      0.500607D+01      0.166985D+02

 Dipole polarizability, Alpha (dipole orientation).
 (esu units = cm**3 , SI units = C**2 m**2 J**-1)
 Alpha(0;0):
               (au)            (10**-24 esu)      (10**-40 SI)
   iso        0.514456D+02      0.762346D+01      0.848224D+01
   aniso      0.261158D+02      0.386996D+01      0.430591D+01
   xx         0.532993D+02      0.789815D+01      0.878787D+01
   yx        -0.106362D+02     -0.157612D+01     -0.175367D+01
   yy         0.414243D+02      0.613845D+01      0.682994D+01
   zx         0.463829D+01      0.687324D+00      0.764751D+00
   zy        -0.272321D+01     -0.403538D+00     -0.448996D+00
   zz         0.596133D+02      0.883378D+01      0.982891D+01

 ----------------------------------------------------------------------
 1\1\GINC-BELL-A094\Freq\RB3LYP\6-31+G(d)\C3H6O3\ZHAO922\23-Dec-2020\0\
 \#N Geom=AllCheck Guess=TCheck SCRF=Check GenChk RB3LYP/6-31+G(d) Freq
 \\pp_24_0 TS\\0,1\C,1.8936666037,2.3997407699,-4.3759605793\C,0.183621
 4662,0.2361254375,-0.1296885645\C,1.5661054578,0.8391902474,0.04631703
 75\O,1.0020883707,1.7483350945,-3.6628064933\O,2.0882118549,1.43854696
 71,-1.0572442599\O,2.1968402178,0.8128766918,1.0757669547\H,1.47767062
 46,1.3900097326,-1.8207131383\H,2.8149201422,2.6598688903,-3.812563183
 7\H,0.7435065458,1.9780729879,-4.7741858797\H,0.1933636003,-0.53129630
 92,-0.9133193458\H,-0.1361596514,-0.2149497779,0.8106253303\H,-0.53948
 72326,1.0061992683,-0.4249988779\\Version=ES64L-G16RevB.01\State=1-A\H
 F=-343.4597688\RMSD=1.603e-09\RMSF=9.020e-08\ZeroPoint=0.0836577\Therm
 al=0.0927502\Dipole=-1.1894168,-0.0688516,-1.5683217\DipoleDeriv=0.122
 4017,0.1347841,0.208118,0.2570937,-0.1523063,-0.0763856,-0.1769917,-0.
 2599238,0.2537267,-0.248629,-0.157277,-0.0234304,-0.1417965,0.0208844,
 0.026682,-0.0721706,0.0034486,-0.0222246,1.1377924,0.3957249,0.0653998
 ,0.3752845,0.6103411,-0.5272888,0.1297627,-0.4966033,2.0223607,-0.5812
 712,-0.2128743,-0.0244206,-0.4488109,-0.4381616,0.3335566,0.7184557,0.
 6876025,-1.2052588,-0.5100721,-0.1431493,0.3084838,-0.1129251,-0.61961
 29,0.4738262,0.2133203,0.4284604,-1.4442225,-0.7283945,-0.0408828,-0.4
 070095,-0.0965278,-0.4364006,0.0597055,-0.2318038,0.1432146,-1.1702513
 ,0.1921438,-0.0964205,0.1046394,-0.0397965,0.331463,-0.0809691,-0.0736
 564,-0.1659516,0.7367234,-0.0461889,-0.1116767,-0.0824433,-0.0442952,0
 .217307,0.0146692,-0.2946069,-0.0864432,0.073168,0.5609908,0.2082794,-
 0.1473493,0.2358199,0.4053549,-0.2229711,-0.2340559,-0.2642932,0.70310
 2,0.0468602,0.014051,0.0254954,-0.0215203,0.0211052,-0.0913992,0.00340
 11,-0.0939429,-0.0068795,0.0530938,-0.0247569,0.0130037,-0.0380392,0.0
 641115,0.0444733,0.0548233,0.0644067,-0.0241437,0.0012731,0.034198,-0.
 0404869,0.0755132,-0.0240856,0.046101,-0.0364779,0.0400253,0.0838995\P
 olar=50.9750502,7.0065386,41.0118697,1.6416048,-7.8462269,62.3500126\Q
 uadrupole=1.3581035,2.2358185,-3.5939219,0.8837478,-3.4955247,0.057301
 3\PG=C01 [X(C3H6O3)]\NImag=1\\0.37336420,0.15184760,0.13402042,0.03119
 767,-0.08719099,0.35531319,-0.00009825,-0.00006562,-0.00002127,0.48035
 893,-0.00010267,0.00000439,0.00000085,-0.02179132,0.53597109,0.0000953
 9,0.00005646,0.00001900,-0.01687048,-0.02846293,0.60161682,0.00120699,
 0.00060852,0.00004499,-0.16722123,-0.03526880,-0.00083477,0.63018990,0
 .00098843,0.00029899,0.00022826,-0.03579941,-0.10879497,-0.00296400,0.
 11087277,0.29928157,-0.00115123,-0.00034190,-0.00075087,0.00083600,-0.
 00216762,-0.08459286,0.26225705,-0.07429817,0.85036360,-0.16438032,-0.
 12017802,0.13294648,0.00013235,0.00018440,-0.00001758,-0.00343020,-0.0
 0225162,0.00204928,0.25775811,-0.17766441,-0.12542801,0.12577376,0.000
 01299,-0.00027391,0.00011728,0.00009805,0.00067147,-0.00219323,0.17466
 450,0.13120227,0.31395001,0.21203708,-0.19733212,0.00052219,0.00037459
 ,-0.00063855,-0.00534901,-0.00571977,0.00990968,-0.17177312,-0.1329512
 8,0.16659374,-0.00000077,0.00114538,-0.00195571,-0.01237963,-0.0231755
 7,0.03129350,-0.15205734,-0.05688447,0.02623935,0.00206867,0.00002917,
 -0.00095288,0.35327232,-0.00057115,-0.00104192,-0.00104272,-0.01503525
 ,0.00159078,0.02088470,-0.07443035,-0.10257588,0.05320814,0.00212786,0
 .00161409,0.00643121,0.10766488,0.11086617,0.00344966,0.00153363,-0.00
 075267,0.00566302,0.00866792,-0.00340240,0.08148410,0.07954064,-0.1783
 5053,-0.00756134,0.00328141,-0.01903802,0.14917936,-0.09934605,0.56468
 222,-0.00023882,-0.00023785,0.00027406,-0.02050110,-0.00911826,-0.0415
 6680,-0.30222816,-0.01343293,-0.29863264,0.00064921,0.00065239,-0.0010
 0244,0.03202865,0.01137701,-0.00820345,0.29585733,-0.00037409,-0.00009
 202,-0.00002737,-0.01521222,0.02172974,-0.00836084,-0.00975967,-0.0824
 8049,0.00870904,0.00083926,-0.00019632,0.00171530,0.01467496,0.0105231
 4,0.03179427,0.01624176,0.04839051,0.00070298,0.00017710,0.00057504,-0
 .02237925,0.00078493,-0.00973258,-0.31019827,0.00319626,-0.55066806,-0
 .00159074,0.00143478,-0.00695670,-0.01858739,0.02684470,-0.09879277,0.
 34793027,-0.03368301,0.65817483,0.00106366,-0.00212917,0.00320657,-0.0
 0095686,-0.00142202,0.00150190,0.01369789,0.00622433,0.01226361,-0.004
 81837,-0.00024788,0.00127311,-0.21793766,-0.02610036,-0.22608305,0.002
 15075,-0.00481986,0.00736555,0.20951571,-0.00002604,0.00254297,0.00264
 188,-0.00088107,0.00062860,-0.00007173,0.01719038,-0.00384231,0.014181
 71,-0.00103419,-0.00418032,-0.00459416,-0.03897282,-0.02339310,-0.0243
 0860,-0.00381208,0.00374663,0.00563977,0.02777313,0.02851473,-0.003416
 41,-0.00051495,-0.00011185,-0.00020137,-0.00088364,0.00350573,-0.02226
 377,-0.00227578,-0.03377964,0.00374955,-0.00341417,0.01123098,-0.18555
 300,-0.00498993,-0.27530136,0.00419241,0.00412723,0.00065179,0.2018714
 0,0.00460099,0.30521720,-0.18705050,-0.04620803,-0.10633916,0.00005602
 ,0.00003059,-0.00003781,-0.00005586,-0.00019692,0.00052334,-0.03359120
 ,-0.01403208,-0.00596016,0.00034193,0.00025132,-0.00030037,0.00002545,
 0.00004038,-0.00003128,-0.00102294,0.00020981,-0.00075492,0.21938282,-
 0.02986430,-0.02978547,-0.01158498,0.00004036,0.00005184,-0.00004900,-
 0.00023717,-0.00033517,0.00072634,-0.02687883,-0.00713547,-0.01842275,
 0.00023055,0.00040482,-0.00088236,-0.00003634,0.00005890,-0.00036098,-
 0.00004159,-0.00100471,0.00007803,0.06520760,0.03605457,-0.15780056,-0
 .03611055,-0.14232963,-0.00006859,-0.00006368,0.00011460,0.00065001,0.
 00078677,-0.00149307,0.03448993,0.00085541,0.04888615,-0.00023502,-0.0
 0085115,0.00234215,0.00021030,-0.00024586,0.00105124,0.00003688,0.0004
 5515,-0.00233828,0.10728630,0.01917392,0.11169095,-0.02367589,0.015288
 29,-0.05939177,-0.00005706,-0.00003483,-0.00004188,0.00001928,-0.00024
 975,0.00049591,-0.05478920,0.01634218,-0.13040659,-0.00019511,0.000230
 48,-0.00125462,-0.00033919,0.00008808,-0.00066994,0.00035092,-0.000414
 16,0.00245204,0.00184579,-0.00843834,0.01541544,0.07688485,0.05585194,
 0.01959353,-0.02881653,0.00002260,0.00008469,-0.00009447,-0.00048612,-
 0.00051714,0.00156871,-0.02760884,0.00332252,-0.05873818,-0.00042598,0
 .00078858,-0.00262711,-0.00032064,0.00013463,-0.00114925,0.00114737,-0
 .00116023,0.00407243,-0.00534187,0.00165853,0.01597815,-0.02276932,-0.
 02379035,-0.18711039,-0.08968502,-0.01456464,-0.00022271,-0.00018067,0
 .00027853,0.00124015,0.00192351,-0.00398237,0.00797834,0.00721358,-0.0
 1291610,0.00081256,-0.00164174,0.00654632,0.00061698,-0.00053589,0.002
 53566,-0.00246516,0.00172847,-0.00955677,0.00566531,0.01133169,-0.0178
 9875,0.17326249,0.06969834,0.04973692,0.00001410,-0.00003845,-0.000002
 22,-0.04571703,-0.00162386,0.00437583,0.00501654,-0.02351065,-0.025521
 96,-0.00016609,0.00006354,0.00004054,-0.00041839,0.00263753,0.00191390
 ,-0.00708204,0.00188519,-0.00028089,0.00006749,-0.00091883,0.00035059,
 -0.00001382,-0.00000223,-0.00000189,0.00007150,0.00001691,-0.00000719,
 0.04857279,-0.00008297,-0.00010216,0.00003589,0.00077363,-0.17712772,-
 0.13188776,0.00307467,-0.00791582,-0.01017970,0.00030601,0.00049826,-0
 .00046046,-0.00095754,0.00117000,0.00209680,-0.00146619,0.00020676,0.0
 0076689,-0.00071083,-0.00145905,0.00013037,0.00005547,0.00001712,0.000
 06400,-0.00013428,-0.00019211,0.00030516,-0.00119055,0.18911160,0.0000
 2548,0.00003649,-0.00002865,0.00557427,-0.13270705,-0.18254514,-0.0013
 1448,-0.00012166,-0.00502936,-0.00005795,-0.00013159,0.00014269,0.0003
 2683,0.00073853,0.00053441,-0.00179122,-0.00074565,0.00138739,0.000430
 40,0.00009110,0.00021128,-0.00001873,-0.00000550,-0.00002118,0.0000495
 3,0.00006582,-0.00009723,-0.00383044,0.14616345,0.19549334,-0.00011437
 ,-0.00003792,-0.00000775,-0.07086797,-0.03138505,0.06589086,-0.0076077
 7,-0.01228567,0.03073413,0.00029975,0.00006896,0.00004300,-0.00676558,
 -0.00474616,0.00077979,0.00267352,0.00173180,-0.00086144,-0.00078283,0
 .00050273,-0.00143860,0.00004896,0.00002520,-0.00001805,-0.00005443,-0
 .00002339,0.00002188,-0.00074842,0.00062263,-0.00006702,0.07610057,-0.
 00003198,-0.00003891,-0.00001885,-0.03335227,-0.09607005,0.09837379,-0
 .00177000,-0.00734085,0.01317751,0.00005037,0.00010230,0.00015154,-0.0
 0404046,0.00054047,0.00064791,0.00157916,0.00069290,-0.00102605,0.0001
 4937,-0.00048013,-0.00103170,0.00001368,0.00002072,-0.00001916,-0.0000
 0134,-0.00000593,-0.00004610,0.00758080,0.01181701,-0.02076332,0.03761
 732,0.09968319,-0.00002646,-0.00002777,0.00001807,0.07208478,0.1013261
 6,-0.25977592,-0.00237480,-0.00260398,0.00232275,0.00010156,0.00017946
 ,-0.00028622,-0.00144216,-0.00041117,0.00180243,-0.00038096,-0.0007970
 1,0.00155203,-0.00032600,-0.00050138,0.00021038,0.00001822,-0.00000188
 ,0.00004137,-0.00004756,-0.00007920,0.00015807,0.00582129,0.00988234,-
 0.01736260,-0.07514258,-0.10863191,0.27651150,-0.00009003,0.00000526,0
 .00004812,-0.16274817,0.12370738,-0.04378816,-0.01753003,0.02652590,-0
 .01009284,0.00026728,0.00001259,-0.00038464,0.00204291,-0.00340582,0.0
 0093301,-0.00299561,-0.00533558,-0.00139961,-0.00132776,0.00038314,0.0
 0101208,0.00003336,-0.00000492,0.00003526,-0.00006146,-0.00006266,0.00
 020774,0.00040338,-0.00029004,0.00067334,0.00781856,-0.00779464,0.0017
 1467,0.17418757,0.00002964,0.00002818,0.00000079,0.12128759,-0.1777944
 8,0.05245850,-0.00989228,0.01355060,-0.00239081,-0.00022089,-0.0001968
 8,0.00017688,0.00071190,-0.00048716,-0.00039846,-0.00142603,-0.0027143
 7,-0.00262512,0.00017752,0.00008692,0.00010111,-0.00002995,-0.00000568
 ,-0.00002299,0.00009299,0.00008328,-0.00011133,0.01510059,-0.01602388,
 0.00737940,0.00790955,-0.00892073,0.00166634,-0.13374061,0.19239419,0.
 00008386,0.00003043,-0.00005487,-0.04491659,0.05331115,-0.06484723,-0.
 00334119,0.00230792,-0.00394928,-0.00031441,-0.00016542,0.00040447,0.0
 0087456,0.00017548,-0.00026977,-0.00164652,-0.00195021,0.00022214,0.00
 092479,0.00013680,0.00006055,-0.00005074,-0.00000251,-0.00004555,0.000
 13696,0.00012129,-0.00023966,0.01714245,-0.01691696,0.00731506,-0.0199
 3421,0.01918635,-0.00519185,0.05104104,-0.05623431,0.06659600\\-0.0000
 0003,-0.00000018,-0.00000016,0.00000002,0.,0.00000013,0.00000002,0.000
 00006,0.,0.00000012,-0.00000003,-0.00000005,0.00000005,0.00000007,-0.0
 0000013,0.00000011,0.00000008,-0.00000006,0.00000004,0.,0.00000010,-0.
 00000022,0.00000001,-0.00000001,-0.00000025,0.00000004,0.00000005,0.,-
 0.00000006,0.00000002,0.00000011,0.00000002,0.00000006,0.00000004,0.,0
 .00000005\\\@


 ONLY THE DAY DAWNS TO WHICH YOU ARE AWAKE.

                                 -- THOREAU
 Job cpu time:       0 days  0 hours  3 minutes 32.4 seconds.
 Elapsed time:       0 days  0 hours  0 minutes 13.6 seconds.
 File lengths (MBytes):  RWF=     27 Int=      0 D2E=      0 Chk=      3 Scr=      1
 Normal termination of Gaussian 16 at Wed Dec 23 22:14:27 2020.
