 Entering Gaussian System, Link 0=g16
 Initial command:
 /apps/cent7/gaussian/g16-B.01/g16-haswell/g16/l1.exe "/scratch/bell/zhao922/YARP/paper-example/KHP-network/pp_0/TS-folder/Gau-105492.inp" -scrdir="/scratch/bell/zhao922/YARP/paper-example/KHP-network/pp_0/TS-folder/"
 Entering Link 1 = /apps/cent7/gaussian/g16-B.01/g16-haswell/g16/l1.exe PID=    105494.
  
 Copyright (c) 1988-2017, Gaussian, Inc.  All Rights Reserved.
  
 This is part of the Gaussian(R) 16 program.  It is based on
 the Gaussian(R) 09 system (copyright 2009, Gaussian, Inc.),
 the Gaussian(R) 03 system (copyright 2003, Gaussian, Inc.),
 the Gaussian(R) 98 system (copyright 1998, Gaussian, Inc.),
 the Gaussian(R) 94 system (copyright 1995, Gaussian, Inc.),
 the Gaussian 92(TM) system (copyright 1992, Gaussian, Inc.),
 the Gaussian 90(TM) system (copyright 1990, Gaussian, Inc.),
 the Gaussian 88(TM) system (copyright 1988, Gaussian, Inc.),
 the Gaussian 86(TM) system (copyright 1986, Carnegie Mellon
 University), and the Gaussian 82(TM) system (copyright 1983,
 Carnegie Mellon University). Gaussian is a federally registered
 trademark of Gaussian, Inc.
  
 This software contains proprietary and confidential information,
 including trade secrets, belonging to Gaussian, Inc.
  
 This software is provided under written license and may be
 used, copied, transmitted, or stored only in accord with that
 written license.
  
 The following legend is applicable only to US Government
 contracts under FAR:
  
                    RESTRICTED RIGHTS LEGEND
  
 Use, reproduction and disclosure by the US Government is
 subject to restrictions as set forth in subparagraphs (a)
 and (c) of the Commercial Computer Software - Restricted
 Rights clause in FAR 52.227-19.
  
 Gaussian, Inc.
 340 Quinnipiac St., Bldg. 40, Wallingford CT 06492
  
  
 ---------------------------------------------------------------
 Warning -- This program may not be used in any manner that
 competes with the business of Gaussian, Inc. or will provide
 assistance to any competitor of Gaussian, Inc.  The licensee
 of this program is prohibited from giving any competitor of
 Gaussian, Inc. access to this program.  By using this program,
 the user acknowledges that Gaussian, Inc. is engaged in the
 business of creating and licensing software in the field of
 computational chemistry and represents and warrants to the
 licensee that it is not a competitor of Gaussian, Inc. and that
 it will not use this program in any manner prohibited above.
 ---------------------------------------------------------------
  

 Cite this work as:
 Gaussian 16, Revision B.01,
 M. J. Frisch, G. W. Trucks, H. B. Schlegel, G. E. Scuseria, 
 M. A. Robb, J. R. Cheeseman, G. Scalmani, V. Barone, 
 G. A. Petersson, H. Nakatsuji, X. Li, M. Caricato, A. V. Marenich, 
 J. Bloino, B. G. Janesko, R. Gomperts, B. Mennucci, H. P. Hratchian, 
 J. V. Ortiz, A. F. Izmaylov, J. L. Sonnenberg, D. Williams-Young, 
 F. Ding, F. Lipparini, F. Egidi, J. Goings, B. Peng, A. Petrone, 
 T. Henderson, D. Ranasinghe, V. G. Zakrzewski, J. Gao, N. Rega, 
 G. Zheng, W. Liang, M. Hada, M. Ehara, K. Toyota, R. Fukuda, 
 J. Hasegawa, M. Ishida, T. Nakajima, Y. Honda, O. Kitao, H. Nakai, 
 T. Vreven, K. Throssell, J. A. Montgomery, Jr., J. E. Peralta, 
 F. Ogliaro, M. J. Bearpark, J. J. Heyd, E. N. Brothers, K. N. Kudin, 
 V. N. Staroverov, T. A. Keith, R. Kobayashi, J. Normand, 
 K. Raghavachari, A. P. Rendell, J. C. Burant, S. S. Iyengar, 
 J. Tomasi, M. Cossi, J. M. Millam, M. Klene, C. Adamo, R. Cammi, 
 J. W. Ochterski, R. L. Martin, K. Morokuma, O. Farkas, 
 J. B. Foresman, and D. J. Fox, Gaussian, Inc., Wallingford CT, 2016.
 
 ******************************************
 Gaussian 16:  ES64L-G16RevB.01 20-Dec-2017
                23-Dec-2020 
 ******************************************
 %NProcShared=16
 Will use up to   16 processors via shared memory.
 %Mem=6GB
 --------------------------------------------------------------
 # B3LYP/6-31+G* OPT=(TS, CALCALL, NOEIGEN, maxcycles=100) Freq
 --------------------------------------------------------------
 1/5=1,6=100,10=4,11=1,18=20,26=3,38=1/1,3;
 2/9=110,12=2,17=6,18=5,40=1/2;
 3/5=1,6=6,7=11,11=2,25=1,30=1,71=2,74=-5,140=1/1,2,3;
 4//1;
 5/5=2,38=5/2;
 8/6=4,10=90,11=11/1;
 11/6=1,8=1,9=11,15=111,16=1/1,2,10;
 10/6=1/2;
 6/7=2,8=2,9=2,10=2,18=1,28=1/1;
 7/10=1,25=1/1,2,3,16;
 1/5=1,6=100,10=4,11=1,18=20,26=3/3(3);
 2/9=110/2;
 7/8=1,9=1,25=1,44=-1/16;
 99//99;
 2/9=110/2;
 3/5=1,6=6,7=11,11=2,25=1,30=1,71=2,74=-5,140=1/1,2,3;
 4/5=5,16=3,69=1/1;
 5/5=2,38=5/2;
 8/6=4,10=90,11=11/1;
 11/6=1,8=1,9=11,15=111,16=1/1,2,10;
 10/6=1/2;
 7/10=1,25=1/1,2,3,16;
 1/5=1,6=100,10=4,11=1,18=20,26=3/3(-8);
 2/9=110/2;
 6/7=2,8=2,9=2,10=2,18=1,19=2,28=1/1;
 7/8=1,9=1,25=1,44=-1/16;
 99//99;
 ----------
 pp_21_1 TS
 ----------
 Symbolic Z-matrix:
 Charge =  0 Multiplicity = 1
 C                     0.70016   1.416    -2.52593 
 C                     0.50678   0.66346  -1.22263 
 C                     1.82504  -0.05492  -0.90244 
 O                     0.549     2.70991  -2.02538 
 O                     1.87258   2.29307  -0.57179 
 O                     2.43187  -0.03836   0.11922 
 H                     1.57963   3.19356  -0.3975 
 H                     1.67548   1.28263  -3.00753 
 H                    -0.07904   1.19357  -3.27135 
 H                     2.09748  -0.73027  -1.746 
 H                    -0.08859  -0.25472  -1.29388 
 H                    -0.37665   2.09924  -1.36687 
 
 Add virtual bond connecting atoms H12        and O4         Dist= 2.44D+00.
 Add virtual bond connecting atoms O5         and O4         Dist= 3.80D+00.
 Add virtual bond connecting atoms H7         and O4         Dist= 3.75D+00.

 GradGradGradGradGradGradGradGradGradGradGradGradGradGradGradGradGradGrad
 Berny optimization.
 Initialization pass.
                           ----------------------------
                           !    Initial Parameters    !
                           ! (Angstroms and Degrees)  !
 --------------------------                            --------------------------
 ! Name  Definition              Value          Derivative Info.                !
 --------------------------------------------------------------------------------
 ! R1    R(1,2)                  1.5173         calculate D2E/DX2 analytically  !
 ! R2    R(1,4)                  1.3956         calculate D2E/DX2 analytically  !
 ! R3    R(1,8)                  1.0959         calculate D2E/DX2 analytically  !
 ! R4    R(1,9)                  1.101          calculate D2E/DX2 analytically  !
 ! R5    R(2,3)                  1.5351         calculate D2E/DX2 analytically  !
 ! R6    R(2,11)                 1.0966         calculate D2E/DX2 analytically  !
 ! R7    R(3,6)                  1.1884         calculate D2E/DX2 analytically  !
 ! R8    R(3,10)                 1.1144         calculate D2E/DX2 analytically  !
 ! R9    R(4,5)                  2.0096         calculate D2E/DX2 analytically  !
 ! R10   R(4,7)                  1.9865         calculate D2E/DX2 analytically  !
 ! R11   R(4,12)                 1.2897         calculate D2E/DX2 analytically  !
 ! R12   R(5,7)                  0.9629         calculate D2E/DX2 analytically  !
 ! A1    A(2,1,4)               97.9293         calculate D2E/DX2 analytically  !
 ! A2    A(2,1,8)              115.5018         calculate D2E/DX2 analytically  !
 ! A3    A(2,1,9)              113.0254         calculate D2E/DX2 analytically  !
 ! A4    A(4,1,8)              111.521          calculate D2E/DX2 analytically  !
 ! A5    A(4,1,9)              110.7004         calculate D2E/DX2 analytically  !
 ! A6    A(8,1,9)              107.9223         calculate D2E/DX2 analytically  !
 ! A7    A(1,2,3)              107.5667         calculate D2E/DX2 analytically  !
 ! A8    A(1,2,11)             115.3811         calculate D2E/DX2 analytically  !
 ! A9    A(3,2,11)              95.0463         calculate D2E/DX2 analytically  !
 ! A10   A(2,3,6)              127.6839         calculate D2E/DX2 analytically  !
 ! A11   A(2,3,10)             109.6126         calculate D2E/DX2 analytically  !
 ! A12   A(6,3,10)             122.3005         calculate D2E/DX2 analytically  !
 ! A13   A(1,4,5)               89.7585         calculate D2E/DX2 analytically  !
 ! A14   A(1,4,7)              117.6113         calculate D2E/DX2 analytically  !
 ! A15   A(1,4,12)              79.7388         calculate D2E/DX2 analytically  !
 ! A16   A(5,4,12)              90.2965         calculate D2E/DX2 analytically  !
 ! A17   A(7,4,12)              93.97           calculate D2E/DX2 analytically  !
 ! D1    D(4,1,2,3)           -115.7656         calculate D2E/DX2 analytically  !
 ! D2    D(4,1,2,11)           139.6199         calculate D2E/DX2 analytically  !
 ! D3    D(8,1,2,3)              2.7114         calculate D2E/DX2 analytically  !
 ! D4    D(8,1,2,11)          -101.9031         calculate D2E/DX2 analytically  !
 ! D5    D(9,1,2,3)            127.6841         calculate D2E/DX2 analytically  !
 ! D6    D(9,1,2,11)            23.0697         calculate D2E/DX2 analytically  !
 ! D7    D(2,1,4,5)             49.7725         calculate D2E/DX2 analytically  !
 ! D8    D(2,1,4,7)             48.5517         calculate D2E/DX2 analytically  !
 ! D9    D(2,1,4,12)           -40.5726         calculate D2E/DX2 analytically  !
 ! D10   D(8,1,4,5)            -71.7072         calculate D2E/DX2 analytically  !
 ! D11   D(8,1,4,7)            -72.928          calculate D2E/DX2 analytically  !
 ! D12   D(8,1,4,12)          -162.0523         calculate D2E/DX2 analytically  !
 ! D13   D(9,1,4,5)            168.1189         calculate D2E/DX2 analytically  !
 ! D14   D(9,1,4,7)            166.8981         calculate D2E/DX2 analytically  !
 ! D15   D(9,1,4,12)            77.7738         calculate D2E/DX2 analytically  !
 ! D16   D(1,2,3,6)            129.6995         calculate D2E/DX2 analytically  !
 ! D17   D(1,2,3,10)           -57.5334         calculate D2E/DX2 analytically  !
 ! D18   D(11,2,3,6)          -111.6604         calculate D2E/DX2 analytically  !
 ! D19   D(11,2,3,10)           61.1068         calculate D2E/DX2 analytically  !
 --------------------------------------------------------------------------------
 Trust Radius=3.00D-01 FncErr=1.00D-07 GrdErr=1.00D-06 EigMax=2.50D+02 EigMin=1.00D-04
 Number of steps in this run=    100 maximum allowed number of steps=    100.
 Search for a saddle point of order  1.
 GradGradGradGradGradGradGradGradGradGradGradGradGradGradGradGradGradGrad

                          Input orientation:                          
 ---------------------------------------------------------------------
 Center     Atomic      Atomic             Coordinates (Angstroms)
 Number     Number       Type             X           Y           Z
 ---------------------------------------------------------------------
      1          6           0        0.700155    1.415996   -2.525926
      2          6           0        0.506780    0.663461   -1.222627
      3          6           0        1.825044   -0.054920   -0.902441
      4          8           0        0.549004    2.709906   -2.025376
      5          8           0        1.872575    2.293065   -0.571794
      6          8           0        2.431873   -0.038363    0.119222
      7          1           0        1.579628    3.193562   -0.397499
      8          1           0        1.675482    1.282633   -3.007529
      9          1           0       -0.079041    1.193569   -3.271350
     10          1           0        2.097481   -0.730272   -1.746000
     11          1           0       -0.088594   -0.254718   -1.293878
     12          1           0       -0.376645    2.099235   -1.366867
 ---------------------------------------------------------------------
                    Distance matrix (angstroms):
                    1          2          3          4          5
     1  C    0.000000
     2  C    1.517330   0.000000
     3  C    2.462656   1.535060   0.000000
     4  O    1.395564   2.198665   3.245539   0.000000
     5  O    2.441813   2.223643   2.371628   2.009601   0.000000
     6  O    3.480060   2.449306   1.188407   3.962004   2.495170
     7  H    2.909195   2.869364   3.296639   1.986477   0.962856
     8  H    1.095897   2.221512   2.498562   2.066564   2.644357
     9  H    1.101035   2.195784   3.285726   2.060624   3.507891
    10  H    2.677176   2.178702   1.114412   3.782943   3.251140
    11  H    2.220665   1.096631   1.963454   3.119394   3.295267
    12  H    1.723291   1.691949   3.115046   1.289721   2.393471
                    6          7          8          9         10
     6  O    0.000000
     7  H    3.382109   0.000000
     8  H    3.477604   3.236216   0.000000
     9  H    4.395262   3.874297   1.776481   0.000000
    10  H    2.017327   4.181280   2.412742   3.281022   0.000000
    11  H    2.897657   3.934094   2.900347   2.451127   2.282431
    12  H    3.829564   2.442177   2.751333   2.129755   3.777718
                   11         12
    11  H    0.000000
    12  H    2.372635   0.000000
 Stoichiometry    C3H6O3
 Framework group  C1[X(C3H6O3)]
 Deg. of freedom    30
 Full point group                 C1      NOp   1
 Largest Abelian subgroup         C1      NOp   1
 Largest concise Abelian subgroup C1      NOp   1
                         Standard orientation:                         
 ---------------------------------------------------------------------
 Center     Atomic      Atomic             Coordinates (Angstroms)
 Number     Number       Type             X           Y           Z
 ---------------------------------------------------------------------
      1          6           0       -1.131067   -0.810728   -0.372134
      2          6           0        0.007562   -0.727106    0.627278
      3          6           0        1.307383   -0.534545   -0.166319
      4          8           0       -1.811531    0.344851    0.014140
      5          8           0       -0.090974    1.378996   -0.079273
      6          8           0        2.150020    0.285246    0.007507
      7          1           0       -0.750542    2.010937    0.225216
      8          1           0       -0.836865   -0.770380   -1.427031
      9          1           0       -1.763792   -1.700625   -0.230646
     10          1           0        1.434851   -1.376362   -0.885353
     11          1           0        0.309395   -1.680725    1.076841
     12          1           0       -1.476429   -0.121324    1.169028
 ---------------------------------------------------------------------
 Rotational constants (GHZ):           6.6673093           2.7558917           2.1539397
 Standard basis: 6-31+G(d) (6D, 7F)
 There are   126 symmetry adapted cartesian basis functions of A   symmetry.
 There are   126 symmetry adapted basis functions of A   symmetry.
   126 basis functions,   216 primitive gaussians,   126 cartesian basis functions
    24 alpha electrons       24 beta electrons
       nuclear repulsion energy       245.6007512680 Hartrees.
 NAtoms=   12 NActive=   12 NUniq=   12 SFac= 1.00D+00 NAtFMM=   60 NAOKFM=F Big=F
 Integral buffers will be    131072 words long.
 Raffenetti 2 integral format.
 Two-electron integral symmetry is turned on.
 One-electron integrals computed using PRISM.
 NBasis=   126 RedAO= T EigKep=  1.47D-04  NBF=   126
 NBsUse=   126 1.00D-06 EigRej= -1.00D+00 NBFU=   126
 ExpMin= 4.38D-02 ExpMax= 5.48D+03 ExpMxC= 8.25D+02 IAcc=3 IRadAn=         5 AccDes= 0.00D+00
 Harris functional with IExCor=  402 and IRadAn=       5 diagonalized for initial guess.
 HarFok:  IExCor=  402 AccDes= 0.00D+00 IRadAn=         5 IDoV= 1 UseB2=F ITyADJ=14
 ICtDFT=  3500011 ScaDFX=  1.000000  1.000000  1.000000  1.000000
 FoFCou: FMM=F IPFlag=           0 FMFlag=      100000 FMFlg1=           0
         NFxFlg=           0 DoJE=T BraDBF=F KetDBF=T FulRan=T
         wScrn=  0.000000 ICntrl=       500 IOpCl=  0 I1Cent=   200000004 NGrid=           0
         NMat0=    1 NMatS0=      1 NMatT0=    0 NMatD0=    1 NMtDS0=    0 NMtDT0=    0
 Petite list used in FoFCou.
 Keep R1 ints in memory in canonical form, NReq=47237537.
 Requested convergence on RMS density matrix=1.00D-08 within 128 cycles.
 Requested convergence on MAX density matrix=1.00D-06.
 Requested convergence on             energy=1.00D-06.
 No special actions if energy rises.
 EnCoef did     2 forward-backward iterations
 EnCoef did     3 forward-backward iterations
 EnCoef did     5 forward-backward iterations
 SCF Done:  E(RB3LYP) =  -343.273222724     A.U. after   20 cycles
            NFock= 20  Conv=0.28D-08     -V/T= 2.0084
 DoSCS=F DFT=T ScalE2(SS,OS)=  1.000000  1.000000
 Range of M.O.s used for correlation:     1   126
 NBasis=   126 NAE=    24 NBE=    24 NFC=     0 NFV=     0
 NROrb=    126 NOA=    24 NOB=    24 NVA=   102 NVB=   102

 **** Warning!!: The largest alpha MO coefficient is  0.27789555D+02


 **** Warning!!: The smallest alpha delta epsilon is  0.63529011D-01

 Symmetrizing basis deriv contribution to polar:
 IMax=3 JMax=2 DiffMx= 0.00D+00
 G2DrvN: will do    13 centers at a time, making    1 passes.
 Calling FoFCou, ICntrl=  3107 FMM=F I1Cent=   0 AccDes= 0.00D+00.
 End of G2Drv F.D. properties file   721 does not exist.
 End of G2Drv F.D. properties file   722 does not exist.
 End of G2Drv F.D. properties file   788 does not exist.
          IDoAtm=111111111111
          Differentiating once with respect to electric field.
                with respect to dipole field.
          Differentiating once with respect to nuclear coordinates.
 Keep R1 ints in memory in canonical form, NReq=47193552.
          There are    39 degrees of freedom in the 1st order CPHF.  IDoFFX=6 NUNeed=     3.
     36 vectors produced by pass  0 Test12= 6.28D-15 2.56D-09 XBig12= 2.91D+02 1.25D+01.
 AX will form    36 AO Fock derivatives at one time.
     36 vectors produced by pass  1 Test12= 6.28D-15 2.56D-09 XBig12= 1.18D+02 2.01D+00.
     36 vectors produced by pass  2 Test12= 6.28D-15 2.56D-09 XBig12= 2.34D+00 2.10D-01.
     36 vectors produced by pass  3 Test12= 6.28D-15 2.56D-09 XBig12= 9.66D-03 1.70D-02.
     36 vectors produced by pass  4 Test12= 6.28D-15 2.56D-09 XBig12= 1.29D-05 4.48D-04.
     32 vectors produced by pass  5 Test12= 6.28D-15 2.56D-09 XBig12= 1.33D-08 1.60D-05.
      4 vectors produced by pass  6 Test12= 6.28D-15 2.56D-09 XBig12= 1.01D-11 4.43D-07.
      2 vectors produced by pass  7 Test12= 6.28D-15 2.56D-09 XBig12= 1.02D-14 1.22D-08.
 InvSVY:  IOpt=1 It=  1 EMax= 7.11D-15
 Solved reduced A of dimension   218 with    39 vectors.
 Isotropic polarizability for W=    0.000000       66.18 Bohr**3.
 End of Minotr F.D. properties file   721 does not exist.
 End of Minotr F.D. properties file   722 does not exist.
 End of Minotr F.D. properties file   788 does not exist.

 **********************************************************************

            Population analysis using the SCF Density.

 **********************************************************************

 Orbital symmetries:
       Occupied  (A) (A) (A) (A) (A) (A) (A) (A) (A) (A) (A) (A)
                 (A) (A) (A) (A) (A) (A) (A) (A) (A) (A) (A) (A)
       Virtual   (A) (A) (A) (A) (A) (A) (A) (A) (A) (A) (A) (A)
                 (A) (A) (A) (A) (A) (A) (A) (A) (A) (A) (A) (A)
                 (A) (A) (A) (A) (A) (A) (A) (A) (A) (A) (A) (A)
                 (A) (A) (A) (A) (A) (A) (A) (A) (A) (A) (A) (A)
                 (A) (A) (A) (A) (A) (A) (A) (A) (A) (A) (A) (A)
                 (A) (A) (A) (A) (A) (A) (A) (A) (A) (A) (A) (A)
                 (A) (A) (A) (A) (A) (A) (A) (A) (A) (A) (A) (A)
                 (A) (A) (A) (A) (A) (A) (A) (A) (A) (A) (A) (A)
                 (A) (A) (A) (A) (A) (A)
 The electronic state is 1-A.
 Alpha  occ. eigenvalues --  -19.22765 -19.19853 -19.17103 -10.29527 -10.27210
 Alpha  occ. eigenvalues --  -10.24398  -1.07926  -1.07068  -0.96889  -0.79234
 Alpha  occ. eigenvalues --   -0.66171  -0.59325  -0.53635  -0.52184  -0.48547
 Alpha  occ. eigenvalues --   -0.46107  -0.45388  -0.41772  -0.39285  -0.36756
 Alpha  occ. eigenvalues --   -0.34306  -0.31698  -0.27720  -0.24378
 Alpha virt. eigenvalues --   -0.18025  -0.03285  -0.02443   0.00033   0.02313
 Alpha virt. eigenvalues --    0.03314   0.03834   0.06282   0.06898   0.07226
 Alpha virt. eigenvalues --    0.08191   0.08552   0.11994   0.13043   0.15172
 Alpha virt. eigenvalues --    0.15644   0.17810   0.18588   0.19379   0.20632
 Alpha virt. eigenvalues --    0.22991   0.23038   0.25272   0.25651   0.26475
 Alpha virt. eigenvalues --    0.27801   0.28224   0.28901   0.30196   0.31835
 Alpha virt. eigenvalues --    0.33339   0.33884   0.35292   0.38132   0.42510
 Alpha virt. eigenvalues --    0.44656   0.59704   0.65529   0.65928   0.68795
 Alpha virt. eigenvalues --    0.71410   0.76362   0.80536   0.82805   0.84348
 Alpha virt. eigenvalues --    0.90745   0.91567   0.96296   0.96932   1.01286
 Alpha virt. eigenvalues --    1.04236   1.07936   1.11326   1.15228   1.17725
 Alpha virt. eigenvalues --    1.19815   1.21995   1.23624   1.28475   1.29347
 Alpha virt. eigenvalues --    1.32180   1.33795   1.38951   1.43004   1.44923
 Alpha virt. eigenvalues --    1.53862   1.60347   1.63559   1.66404   1.67242
 Alpha virt. eigenvalues --    1.73968   1.75240   1.80852   1.82827   1.84826
 Alpha virt. eigenvalues --    1.88203   1.91478   1.92785   1.99002   2.02486
 Alpha virt. eigenvalues --    2.08212   2.10266   2.17861   2.19784   2.32228
 Alpha virt. eigenvalues --    2.35012   2.41661   2.46377   2.49416   2.57043
 Alpha virt. eigenvalues --    2.61378   2.63373   2.68423   2.85845   2.92600
 Alpha virt. eigenvalues --    3.10474   4.10921   4.15142   4.23772   4.31649
 Alpha virt. eigenvalues --    4.35711   4.49773
          Condensed to atoms (all electrons):
               1          2          3          4          5          6
     1  C    5.524760   0.101768  -0.007443   0.018455  -0.073910   0.007459
     2  C    0.101768   6.572045  -0.305351  -0.260244   0.081367  -0.097574
     3  C   -0.007443  -0.305351   5.326086   0.008956   0.005152   0.517218
     4  O    0.018455  -0.260244   0.008956   8.628440  -0.056072  -0.011386
     5  O   -0.073910   0.081367   0.005152  -0.056072   8.499337  -0.069878
     6  O    0.007459  -0.097574   0.517218  -0.011386  -0.069878   8.014810
     7  H    0.010869   0.007785  -0.003758  -0.023913   0.165217   0.004815
     8  H    0.439500  -0.167964   0.069354  -0.050786   0.002674   0.002594
     9  H    0.369164  -0.033509  -0.015805  -0.018985   0.006315  -0.000586
    10  H    0.000459  -0.123734   0.367145  -0.003600   0.000979  -0.064502
    11  H   -0.068615   0.313227  -0.000014   0.012126   0.006656  -0.009741
    12  H    0.016528   0.019850   0.068792   0.043394   0.007204   0.003346
               7          8          9         10         11         12
     1  C    0.010869   0.439500   0.369164   0.000459  -0.068615   0.016528
     2  C    0.007785  -0.167964  -0.033509  -0.123734   0.313227   0.019850
     3  C   -0.003758   0.069354  -0.015805   0.367145  -0.000014   0.068792
     4  O   -0.023913  -0.050786  -0.018985  -0.003600   0.012126   0.043394
     5  O    0.165217   0.002674   0.006315   0.000979   0.006656   0.007204
     6  O    0.004815   0.002594  -0.000586  -0.064502  -0.009741   0.003346
     7  H    0.342020   0.000082  -0.000161  -0.000024  -0.000311   0.001790
     8  H    0.000082   0.512532  -0.038224   0.004078   0.003060   0.013339
     9  H   -0.000161  -0.038224   0.518133  -0.000926  -0.000313  -0.014729
    10  H   -0.000024   0.004078  -0.000926   0.662214  -0.000651   0.000817
    11  H   -0.000311   0.003060  -0.000313  -0.000651   0.527112  -0.000714
    12  H    0.001790   0.013339  -0.014729   0.000817  -0.000714   0.516289
 Mulliken charges:
               1
     1  C   -0.338995
     2  C   -0.107667
     3  C   -0.030331
     4  O   -0.286385
     5  O   -0.575041
     6  O   -0.296575
     7  H    0.495589
     8  H    0.209760
     9  H    0.229627
    10  H    0.157744
    11  H    0.218179
    12  H    0.324094
 Sum of Mulliken charges =  -0.00000
 Mulliken charges with hydrogens summed into heavy atoms:
               1
     1  C    0.100392
     2  C    0.110513
     3  C    0.127413
     4  O    0.037709
     5  O   -0.079451
     6  O   -0.296575
 APT charges:
               1
     1  C    0.165409
     2  C   -0.447123
     3  C    0.878735
     4  O   -0.182207
     5  O   -0.196964
     6  O   -0.646946
     7  H    0.270665
     8  H   -0.008456
     9  H    0.043203
    10  H   -0.082760
    11  H    0.086043
    12  H    0.120401
 Sum of APT charges =  -0.00000
 APT charges with hydrogens summed into heavy atoms:
               1
     1  C    0.200156
     2  C   -0.361080
     3  C    0.795975
     4  O   -0.061806
     5  O    0.073701
     6  O   -0.646946
 Electronic spatial extent (au):  <R**2>=            570.5908
 Charge=             -0.0000 electrons
 Dipole moment (field-independent basis, Debye):
    X=             -2.3477    Y=             -2.9107    Z=              0.3414  Tot=              3.7550
 Quadrupole moment (field-independent basis, Debye-Ang):
   XX=            -43.4338   YY=            -31.4361   ZZ=            -35.9475
   XY=             -2.4038   XZ=             -1.7766   YZ=              1.0763
 Traceless Quadrupole moment (field-independent basis, Debye-Ang):
   XX=             -6.4947   YY=              5.5031   ZZ=              0.9916
   XY=             -2.4038   XZ=             -1.7766   YZ=              1.0763
 Octapole moment (field-independent basis, Debye-Ang**2):
  XXX=             -8.1638  YYY=             13.5322  ZZZ=             -2.8582  XYY=             -5.2980
  XXY=             -5.6482  XXZ=              2.2480  XZZ=             -1.4174  YZZ=              1.0421
  YYZ=              2.0654  XYZ=             -1.9214
 Hexadecapole moment (field-independent basis, Debye-Ang**3):
 XXXX=           -494.1548 YYYY=           -172.9421 ZZZZ=            -85.2835 XXXY=             -0.8791
 XXXZ=             -4.1563 YYYX=            -11.4146 YYYZ=              3.0670 ZZZX=             -0.8454
 ZZZY=              2.1276 XXYY=            -96.9749 XXZZ=            -82.2773 YYZZ=            -47.7687
 XXYZ=              1.2113 YYXZ=             -1.3498 ZZXY=             -1.6450
 N-N= 2.456007512680D+02 E-N=-1.295791683494D+03  KE= 3.404047168865D+02
  Exact polarizability:  77.504   0.672  70.129  -2.106  -3.152  50.896
 Approx polarizability: 142.885   2.050 165.263   3.716 -35.839  90.283
 Calling FoFJK, ICntrl=    100127 FMM=F ISym2X=0 I1Cent= 0 IOpClX= 0 NMat=1 NMatS=1 NMatT=0.
 ***** Axes restored to original set *****
 -------------------------------------------------------------------
 Center     Atomic                   Forces (Hartrees/Bohr)
 Number     Number              X              Y              Z
 -------------------------------------------------------------------
      1        6           0.011946165   -0.015456498   -0.008982179
      2        6           0.030558240   -0.040325153   -0.028369112
      3        6          -0.022444915   -0.007662168   -0.016806661
      4        8          -0.056029424    0.002091005    0.003970895
      5        8          -0.001978064    0.005767375    0.010921702
      6        8           0.012963343   -0.005336651    0.025201945
      7        1           0.003904856    0.015360275    0.004512220
      8        1           0.002113390    0.004399880   -0.000117417
      9        1          -0.002707731   -0.000722674    0.002937978
     10        1           0.008582720    0.000994925   -0.002101544
     11        1          -0.025046228    0.005441959    0.012398482
     12        1           0.038137648    0.035447725   -0.003566307
 -------------------------------------------------------------------
 Cartesian Forces:  Max     0.056029424 RMS     0.018815525
 FormGI is forming the generalized inverse of G from B-inverse, IUseBI=4.

 GradGradGradGradGradGradGradGradGradGradGradGradGradGradGradGradGradGrad
 Berny optimization.
 Internal  Forces:  Max     0.077279715 RMS     0.022780184
 Search for a saddle point.
 Step number   1 out of a maximum of  100
 All quantities printed in internal units (Hartrees-Bohrs-Radians)
 Swapping is turned off.
 Second derivative matrix not updated -- analytic derivatives used.
 ITU=  0
     Eigenvalues ---   -0.43371  -0.07623  -0.01037  -0.00004   0.00565
     Eigenvalues ---    0.02303   0.03153   0.04067   0.04993   0.05978
     Eigenvalues ---    0.06664   0.07201   0.07696   0.07820   0.12187
     Eigenvalues ---    0.13772   0.16184   0.18717   0.21105   0.23000
     Eigenvalues ---    0.27498   0.29495   0.31810   0.33104   0.33441
     Eigenvalues ---    0.34557   0.39439   0.53744   0.98325   1.00622
 Eigenvectors required to have negative eigenvalues:
                          R11       A15       R9        D9        D7
   1                   -0.54360   0.39664   0.34814  -0.31141  -0.27845
                          A2        D12       A14       D15       A13
   1                   -0.19213  -0.15380  -0.15207  -0.14410  -0.14283
 RFO step:  Lambda0=3.935257494D-03 Lambda=-1.02515362D-01.
 Linear search not attempted -- option 19 set.
 Maximum step size (   0.300) exceeded in Quadratic search.
    -- Step size scaled by   0.396
 Iteration  1 RMS(Cart)=  0.12091000 RMS(Int)=  0.00735727
 Iteration  2 RMS(Cart)=  0.00925124 RMS(Int)=  0.00105280
 Iteration  3 RMS(Cart)=  0.00005452 RMS(Int)=  0.00105234
 Iteration  4 RMS(Cart)=  0.00000003 RMS(Int)=  0.00105234
 Variable       Old X    -DE/DX   Delta X   Delta X   Delta X     New X
                                 (Linear)    (Quad)   (Total)
    R1        2.86734   0.01435   0.00000   0.00521   0.00521   2.87255
    R2        2.63723   0.06180   0.00000   0.04748   0.04748   2.68472
    R3        2.07094   0.00140   0.00000  -0.00145  -0.00145   2.06949
    R4        2.08065   0.00007   0.00000  -0.00296  -0.00296   2.07769
    R5        2.90084   0.00616   0.00000  -0.05103  -0.05103   2.84981
    R6        2.07233   0.00824   0.00000   0.00267   0.00267   2.07501
    R7        2.24576   0.02821   0.00000   0.01924   0.01924   2.26500
    R8        2.10593   0.00309   0.00000   0.00707   0.00707   2.11300
    R9        3.79760   0.00499   0.00000  -0.12432  -0.12438   3.67321
   R10        3.75390   0.00912   0.00000   0.05387   0.05376   3.80766
   R11        2.43722  -0.04598   0.00000  -0.17944  -0.17944   2.25778
   R12        1.81953   0.00157   0.00000   0.00255   0.00291   1.82245
    A1        1.70919   0.07728   0.00000   0.05696   0.05710   1.76629
    A2        2.01589  -0.01511   0.00000   0.03053   0.03132   2.04721
    A3        1.97266  -0.02837   0.00000  -0.05512  -0.05480   1.91787
    A4        1.94641  -0.01594   0.00000  -0.04434  -0.04539   1.90102
    A5        1.93209  -0.03163   0.00000  -0.00944  -0.00885   1.92324
    A6        1.88360   0.01421   0.00000   0.01938   0.01920   1.90280
    A7        1.87739   0.03152   0.00000   0.06689   0.06671   1.94410
    A8        2.01378  -0.00037   0.00000  -0.03880  -0.04193   1.97185
    A9        1.65887  -0.00476   0.00000   0.06661   0.06733   1.72620
   A10        2.22850  -0.00085   0.00000  -0.01474  -0.01478   2.21372
   A11        1.91310   0.00662   0.00000   0.02501   0.02497   1.93807
   A12        2.13455  -0.00556   0.00000  -0.00843  -0.00847   2.12607
   A13        1.56658   0.04274   0.00000   0.05276   0.05421   1.62079
   A14        2.05270   0.04289   0.00000   0.06009   0.05898   2.11169
   A15        1.39171   0.04271   0.00000   0.06236   0.06106   1.45277
   A16        1.57597  -0.00518   0.00000   0.03850   0.03721   1.61319
   A17        1.64009  -0.01095   0.00000   0.02594   0.02351   1.66360
    D1       -2.02049  -0.01241   0.00000   0.09443   0.09276  -1.92773
    D2        2.43683  -0.02462   0.00000  -0.00600  -0.00615   2.43067
    D3        0.04732   0.01019   0.00000   0.08989   0.08976   0.13708
    D4       -1.77854  -0.00201   0.00000  -0.01054  -0.00916  -1.78770
    D5        2.22851  -0.00777   0.00000   0.09452   0.09405   2.32256
    D6        0.40264  -0.01998   0.00000  -0.00591  -0.00487   0.39778
    D7        0.86869   0.00159   0.00000   0.09214   0.09218   0.96088
    D8        0.84739   0.01664   0.00000   0.11402   0.11433   0.96172
    D9       -0.70812   0.01481   0.00000   0.06290   0.06141  -0.64672
   D10       -1.25153  -0.01693   0.00000   0.04383   0.04472  -1.20681
   D11       -1.27283  -0.00188   0.00000   0.06571   0.06686  -1.20597
   D12       -2.82835  -0.00370   0.00000   0.01459   0.01394  -2.81441
   D13        2.93423  -0.00290   0.00000   0.05525   0.05560   2.98982
   D14        2.91292   0.01215   0.00000   0.07712   0.07774   2.99066
   D15        1.35741   0.01032   0.00000   0.02601   0.02482   1.38223
   D16        2.26368   0.00154   0.00000   0.01269   0.01075   2.27444
   D17       -1.00415   0.00315   0.00000   0.02900   0.02706  -0.97709
   D18       -1.94884   0.00782   0.00000   0.01616   0.01810  -1.93074
   D19        1.06651   0.00942   0.00000   0.03247   0.03441   1.10092
         Item               Value     Threshold  Converged?
 Maximum Force            0.077280     0.000450     NO 
 RMS     Force            0.022780     0.000300     NO 
 Maximum Displacement     0.298396     0.001800     NO 
 RMS     Displacement     0.122747     0.001200     NO 
 Predicted change in Energy=-3.226736D-02
 GradGradGradGradGradGradGradGradGradGradGradGradGradGradGradGradGradGrad

                          Input orientation:                          
 ---------------------------------------------------------------------
 Center     Atomic      Atomic             Coordinates (Angstroms)
 Number     Number       Type             X           Y           Z
 ---------------------------------------------------------------------
      1          6           0        0.670875    1.397103   -2.513108
      2          6           0        0.500759    0.538841   -1.270080
      3          6           0        1.800099   -0.114056   -0.870495
      4          8           0        0.516520    2.701285   -1.971221
      5          8           0        1.922289    2.427438   -0.657027
      6          8           0        2.295791   -0.119513    0.220774
      7          1           0        1.664934    3.331198   -0.440115
      8          1           0        1.632206    1.340742   -3.034618
      9          1           0       -0.137396    1.184880   -3.227591
     10          1           0        2.223313   -0.714932   -1.713173
     11          1           0       -0.095013   -0.365452   -1.451783
     12          1           0       -0.300636    2.165619   -1.283629
 ---------------------------------------------------------------------
                    Distance matrix (angstroms):
                    1          2          3          4          5
     1  C    0.000000
     2  C    1.520090   0.000000
     3  C    2.501385   1.508054   0.000000
     4  O    1.420690   2.273326   3.284101   0.000000
     5  O    2.464278   2.442004   2.553369   1.943781   0.000000
     6  O    3.523434   2.424503   1.198586   3.990933   2.719742
     7  H    3.004360   3.137101   3.474662   2.014927   0.964398
     8  H    1.095128   2.244284   2.613054   2.055881   2.630208
     9  H    1.099466   2.157883   3.316176   2.074984   3.520519
    10  H    2.740557   2.176114   1.118154   3.827568   3.328746
    11  H    2.195358   1.098046   1.998135   3.169963   3.535729
    12  H    1.745299   1.813512   3.127409   1.194765   2.324344
                    6          7          8          9         10
     6  O    0.000000
     7  H    3.569616   0.000000
     8  H    3.629086   3.270234   0.000000
     9  H    4.417359   3.952860   1.786902   0.000000
    10  H    2.024828   4.278274   2.514243   3.387579   0.000000
    11  H    2.928118   4.217358   2.898232   2.357715   2.359046
    12  H    3.771802   2.435889   2.735372   2.183457   3.853881
                   11         12
    11  H    0.000000
    12  H    2.544971   0.000000
 Stoichiometry    C3H6O3
 Framework group  C1[X(C3H6O3)]
 Deg. of freedom    30
 Full point group                 C1      NOp   1
 Largest Abelian subgroup         C1      NOp   1
 Largest concise Abelian subgroup C1      NOp   1
                         Standard orientation:                         
 ---------------------------------------------------------------------
 Center     Atomic      Atomic             Coordinates (Angstroms)
 Number     Number       Type             X           Y           Z
 ---------------------------------------------------------------------
      1          6           0       -1.082334   -0.876334   -0.365229
      2          6           0        0.134053   -0.846759    0.545924
      3          6           0        1.378463   -0.455056   -0.210541
      4          8           0       -1.814102    0.242725    0.114961
      5          8           0       -0.315189    1.454351   -0.137051
      6          8           0        2.174260    0.385284    0.101137
      7          1           0       -0.970782    2.070168    0.210846
      8          1           0       -0.908378   -0.752496   -1.439337
      9          1           0       -1.651836   -1.801969   -0.198814
     10          1           0        1.550427   -1.135950   -1.080644
     11          1           0        0.444843   -1.845980    0.878600
     12          1           0       -1.405118   -0.123757    1.176039
 ---------------------------------------------------------------------
 Rotational constants (GHZ):           6.1547849           2.6904500           2.0524223
 Standard basis: 6-31+G(d) (6D, 7F)
 There are   126 symmetry adapted cartesian basis functions of A   symmetry.
 There are   126 symmetry adapted basis functions of A   symmetry.
   126 basis functions,   216 primitive gaussians,   126 cartesian basis functions
    24 alpha electrons       24 beta electrons
       nuclear repulsion energy       241.7459557084 Hartrees.
 NAtoms=   12 NActive=   12 NUniq=   12 SFac= 1.00D+00 NAtFMM=   60 NAOKFM=F Big=F
 Integral buffers will be    131072 words long.
 Raffenetti 2 integral format.
 Two-electron integral symmetry is turned on.
 One-electron integrals computed using PRISM.
 NBasis=   126 RedAO= T EigKep=  1.56D-04  NBF=   126
 NBsUse=   126 1.00D-06 EigRej= -1.00D+00 NBFU=   126
 Initial guess from the checkpoint file:  "/scratch/bell/zhao922/YARP/paper-example/KHP-network/pp_0/TS-folder/Gau-105494.chk"
 B after Tr=    -0.000000    0.000000    0.000000
         Rot=    0.999235   -0.017232   -0.005967   -0.034592 Ang=  -4.48 deg.
 ExpMin= 4.38D-02 ExpMax= 5.48D+03 ExpMxC= 8.25D+02 IAcc=3 IRadAn=         5 AccDes= 0.00D+00
 Harris functional with IExCor=  402 and IRadAn=       5 diagonalized for initial guess.
 HarFok:  IExCor=  402 AccDes= 0.00D+00 IRadAn=         5 IDoV= 1 UseB2=F ITyADJ=14
 ICtDFT=  3500011 ScaDFX=  1.000000  1.000000  1.000000  1.000000
 FoFCou: FMM=F IPFlag=           0 FMFlag=      100000 FMFlg1=           0
         NFxFlg=           0 DoJE=T BraDBF=F KetDBF=T FulRan=T
         wScrn=  0.000000 ICntrl=       500 IOpCl=  0 I1Cent=   200000004 NGrid=           0
         NMat0=    1 NMatS0=      1 NMatT0=    0 NMatD0=    1 NMtDS0=    0 NMtDT0=    0
 Petite list used in FoFCou.
 Keep R1 ints in memory in canonical form, NReq=47237537.
 Requested convergence on RMS density matrix=1.00D-08 within 128 cycles.
 Requested convergence on MAX density matrix=1.00D-06.
 Requested convergence on             energy=1.00D-06.
 No special actions if energy rises.
 SCF Done:  E(RB3LYP) =  -343.303515698     A.U. after   16 cycles
            NFock= 16  Conv=0.70D-08     -V/T= 2.0088
 DoSCS=F DFT=T ScalE2(SS,OS)=  1.000000  1.000000
 Range of M.O.s used for correlation:     1   126
 NBasis=   126 NAE=    24 NBE=    24 NFC=     0 NFV=     0
 NROrb=    126 NOA=    24 NOB=    24 NVA=   102 NVB=   102

 **** Warning!!: The largest alpha MO coefficient is  0.26796516D+02


 **** Warning!!: The smallest alpha delta epsilon is  0.56313105D-01

 Symmetrizing basis deriv contribution to polar:
 IMax=3 JMax=2 DiffMx= 0.00D+00
 G2DrvN: will do    13 centers at a time, making    1 passes.
 Calling FoFCou, ICntrl=  3107 FMM=F I1Cent=   0 AccDes= 0.00D+00.
 End of G2Drv F.D. properties file   721 does not exist.
 End of G2Drv F.D. properties file   722 does not exist.
 End of G2Drv F.D. properties file   788 does not exist.
          IDoAtm=111111111111
          Differentiating once with respect to electric field.
                with respect to dipole field.
          Differentiating once with respect to nuclear coordinates.
 Keep R1 ints in memory in canonical form, NReq=47193552.
          There are    39 degrees of freedom in the 1st order CPHF.  IDoFFX=6 NUNeed=     3.
     36 vectors produced by pass  0 Test12= 6.28D-15 2.56D-09 XBig12= 3.84D+02 1.31D+01.
 AX will form    36 AO Fock derivatives at one time.
     36 vectors produced by pass  1 Test12= 6.28D-15 2.56D-09 XBig12= 1.89D+02 2.30D+00.
     36 vectors produced by pass  2 Test12= 6.28D-15 2.56D-09 XBig12= 3.42D+00 2.85D-01.
     36 vectors produced by pass  3 Test12= 6.28D-15 2.56D-09 XBig12= 1.72D-02 3.15D-02.
     36 vectors produced by pass  4 Test12= 6.28D-15 2.56D-09 XBig12= 3.32D-05 9.35D-04.
     30 vectors produced by pass  5 Test12= 6.28D-15 2.56D-09 XBig12= 3.71D-08 2.48D-05.
      5 vectors produced by pass  6 Test12= 6.28D-15 2.56D-09 XBig12= 3.29D-11 7.97D-07.
      3 vectors produced by pass  7 Test12= 6.28D-15 2.56D-09 XBig12= 2.86D-14 2.31D-08.
 InvSVY:  IOpt=1 It=  1 EMax= 5.33D-15
 Solved reduced A of dimension   218 with    39 vectors.
 Isotropic polarizability for W=    0.000000       66.81 Bohr**3.
 End of Minotr F.D. properties file   721 does not exist.
 End of Minotr F.D. properties file   722 does not exist.
 End of Minotr F.D. properties file   788 does not exist.
 Calling FoFJK, ICntrl=    100127 FMM=F ISym2X=0 I1Cent= 0 IOpClX= 0 NMat=1 NMatS=1 NMatT=0.
 ***** Axes restored to original set *****
 -------------------------------------------------------------------
 Center     Atomic                   Forces (Hartrees/Bohr)
 Number     Number              X              Y              Z
 -------------------------------------------------------------------
      1        6           0.007562116   -0.014593107   -0.008112285
      2        6           0.022816158   -0.034055208   -0.028994881
      3        6          -0.014150129    0.001410210   -0.005313173
      4        8          -0.051270261   -0.017999545    0.023949341
      5        8          -0.002448154    0.005477825    0.000440256
      6        8           0.007601301   -0.005282222    0.015584771
      7        1           0.005457346    0.013364021    0.006048186
      8        1           0.002306734    0.001432154    0.001625117
      9        1          -0.000975022    0.003059831    0.001038029
     10        1           0.007476409    0.002155478   -0.001082310
     11        1          -0.021217464    0.005894859    0.009419582
     12        1           0.036840967    0.039135706   -0.014602633
 -------------------------------------------------------------------
 Cartesian Forces:  Max     0.051270261 RMS     0.017466018
 FormGI is forming the generalized inverse of G from B-inverse, IUseBI=4.

 GradGradGradGradGradGradGradGradGradGradGradGradGradGradGradGradGradGrad
 Berny optimization.
 Internal  Forces:  Max     0.051685192 RMS     0.017048786
 Search for a saddle point.
 Step number   2 out of a maximum of  100
 All quantities printed in internal units (Hartrees-Bohrs-Radians)
 Swapping is turned off.
 Second derivative matrix not updated -- analytic derivatives used.
 ITU=  0  0
     Eigenvalues ---   -0.25209  -0.03686  -0.00351  -0.00011   0.00435
     Eigenvalues ---    0.02303   0.03027   0.04386   0.04617   0.05138
     Eigenvalues ---    0.06436   0.06640   0.07375   0.08513   0.10097
     Eigenvalues ---    0.12186   0.16128   0.17322   0.19673   0.20821
     Eigenvalues ---    0.26616   0.27883   0.29020   0.32676   0.33226
     Eigenvalues ---    0.33506   0.35995   0.52764   0.66068   0.93235
 Eigenvectors required to have negative eigenvalues:
                          R11       R9        A15       D9        D7
   1                    0.57924  -0.42338  -0.39206   0.26475   0.25177
                          A2        A1        D12       D10       D15
   1                    0.17868  -0.16649   0.13846   0.12548   0.12206
 RFO step:  Lambda0=9.382754366D-03 Lambda=-6.85361727D-02.
 Linear search not attempted -- option 19 set.
 Maximum step size (   0.300) exceeded in Quadratic search.
    -- Step size scaled by   0.399
 Iteration  1 RMS(Cart)=  0.10877767 RMS(Int)=  0.00993426
 Iteration  2 RMS(Cart)=  0.00862365 RMS(Int)=  0.00140968
 Iteration  3 RMS(Cart)=  0.00005576 RMS(Int)=  0.00140828
 Iteration  4 RMS(Cart)=  0.00000011 RMS(Int)=  0.00140828
 Variable       Old X    -DE/DX   Delta X   Delta X   Delta X     New X
                                 (Linear)    (Quad)   (Total)
    R1        2.87255   0.00809   0.00000  -0.00455  -0.00455   2.86801
    R2        2.68472   0.04398   0.00000   0.05276   0.05276   2.73747
    R3        2.06949   0.00118   0.00000   0.00049   0.00049   2.06998
    R4        2.07769  -0.00055   0.00000  -0.00542  -0.00542   2.07227
    R5        2.84981   0.00398   0.00000  -0.02396  -0.02396   2.82585
    R6        2.07501   0.00510   0.00000  -0.00036  -0.00036   2.07465
    R7        2.26500   0.01736   0.00000   0.01029   0.01029   2.27529
    R8        2.11300   0.00249   0.00000   0.00678   0.00678   2.11978
    R9        3.67321  -0.00262   0.00000  -0.17088  -0.17094   3.50227
   R10        3.80766   0.01121   0.00000   0.08473   0.08397   3.89163
   R11        2.25778  -0.05115   0.00000  -0.14259  -0.14259   2.11518
   R12        1.82245   0.00216   0.00000   0.00346   0.00520   1.82765
    A1        1.76629   0.05169   0.00000   0.02839   0.02848   1.79477
    A2        2.04721  -0.01006   0.00000   0.02859   0.02898   2.07618
    A3        1.91787  -0.01726   0.00000  -0.02382  -0.02364   1.89423
    A4        1.90102  -0.01291   0.00000  -0.03742  -0.03784   1.86319
    A5        1.92324  -0.02058   0.00000  -0.01243  -0.01242   1.91082
    A6        1.90280   0.00934   0.00000   0.01411   0.01376   1.91656
    A7        1.94410   0.02167   0.00000   0.04004   0.03962   1.98372
    A8        1.97185  -0.00272   0.00000  -0.02745  -0.02945   1.94240
    A9        1.72620   0.00271   0.00000   0.06538   0.06544   1.79164
   A10        2.21372   0.00167   0.00000   0.01684   0.01676   2.23048
   A11        1.93807   0.00422   0.00000   0.00028   0.00020   1.93827
   A12        2.12607  -0.00561   0.00000  -0.01490  -0.01498   2.11109
   A13        1.62079   0.02840   0.00000   0.05603   0.06213   1.68292
   A14        2.11169   0.02814   0.00000   0.05799   0.05205   2.16374
   A15        1.45277   0.03972   0.00000   0.05186   0.05110   1.50387
   A16        1.61319  -0.00061   0.00000   0.08646   0.08490   1.69808
   A17        1.66360  -0.01270   0.00000  -0.03170  -0.03277   1.63083
    D1       -1.92773  -0.00310   0.00000   0.10138   0.10072  -1.82701
    D2        2.43067  -0.01780   0.00000   0.01292   0.01307   2.44375
    D3        0.13708   0.01173   0.00000   0.08931   0.08910   0.22618
    D4       -1.78770  -0.00297   0.00000   0.00085   0.00146  -1.78624
    D5        2.32256   0.00123   0.00000   0.11079   0.11043   2.43299
    D6        0.39778  -0.01347   0.00000   0.02233   0.02279   0.42056
    D7        0.96088   0.00428   0.00000   0.13322   0.13326   1.09414
    D8        0.96172   0.01253   0.00000   0.03850   0.03899   1.00071
    D9       -0.64672   0.00640   0.00000   0.05024   0.04929  -0.59743
   D10       -1.20681  -0.00635   0.00000   0.10220   0.10265  -1.10416
   D11       -1.20597   0.00191   0.00000   0.00748   0.00838  -1.19759
   D12       -2.81441  -0.00423   0.00000   0.01922   0.01868  -2.79573
   D13        2.98982   0.00259   0.00000   0.11551   0.11556   3.10538
   D14        2.99066   0.01084   0.00000   0.02079   0.02129   3.01195
   D15        1.38223   0.00471   0.00000   0.03253   0.03158   1.41381
   D16        2.27444   0.00001   0.00000   0.04389   0.04272   2.31715
   D17       -0.97709   0.00255   0.00000   0.06572   0.06455  -0.91253
   D18       -1.93074   0.00694   0.00000   0.06334   0.06450  -1.86624
   D19        1.10092   0.00949   0.00000   0.08517   0.08633   1.18725
         Item               Value     Threshold  Converged?
 Maximum Force            0.051685     0.000450     NO 
 RMS     Force            0.017049     0.000300     NO 
 Maximum Displacement     0.307056     0.001800     NO 
 RMS     Displacement     0.108844     0.001200     NO 
 Predicted change in Energy=-2.432460D-02
 GradGradGradGradGradGradGradGradGradGradGradGradGradGradGradGradGradGrad

                          Input orientation:                          
 ---------------------------------------------------------------------
 Center     Atomic      Atomic             Coordinates (Angstroms)
 Number     Number       Type             X           Y           Z
 ---------------------------------------------------------------------
      1          6           0        0.646906    1.364017   -2.507439
      2          6           0        0.486610    0.445750   -1.309750
      3          6           0        1.773178   -0.149020   -0.833164
      4          8           0        0.508677    2.682249   -1.922953
      5          8           0        1.993960    2.576625   -0.819514
      6          8           0        2.182384   -0.213227    0.297376
      7          1           0        1.697899    3.396753   -0.401044
      8          1           0        1.595085    1.359659   -3.055897
      9          1           0       -0.183772    1.181999   -3.199803
     10          1           0        2.325702   -0.642161   -1.675681
     11          1           0       -0.108619   -0.440981   -1.564114
     12          1           0       -0.224268    2.211490   -1.220082
 ---------------------------------------------------------------------
                    Distance matrix (angstroms):
                    1          2          3          4          5
     1  C    0.000000
     2  C    1.517684   0.000000
     3  C    2.522096   1.495374   0.000000
     4  O    1.448609   2.319144   3.286745   0.000000
     5  O    2.476705   2.655761   2.734607   1.853322   0.000000
     6  O    3.565442   2.427500   1.204032   4.014341   3.011017
     7  H    3.110225   3.316834   3.572801   2.059362   0.967150
     8  H    1.095386   2.261189   2.692280   2.052581   2.577114
     9  H    1.096596   2.136299   3.346976   2.088201   3.514723
    10  H    2.744982   2.167882   1.121741   3.796633   3.347187
    11  H    2.172256   1.097857   2.039777   3.203808   3.752495
    12  H    1.770436   1.905578   3.116329   1.119308   2.283488
                    6          7          8          9         10
     6  O    0.000000
     7  H    3.708702   0.000000
     8  H    3.750111   3.347920   0.000000
     9  H    4.446978   4.034708   1.793489   0.000000
    10  H    2.024222   4.281549   2.538914   3.456583   0.000000
    11  H    2.960694   4.398231   2.893152   2.305471   2.445166
    12  H    3.738169   2.402165   2.721375   2.231768   3.853990
                   11         12
    11  H    0.000000
    12  H    2.677188   0.000000
 Stoichiometry    C3H6O3
 Framework group  C1[X(C3H6O3)]
 Deg. of freedom    30
 Full point group                 C1      NOp   1
 Largest Abelian subgroup         C1      NOp   1
 Largest concise Abelian subgroup C1      NOp   1
                         Standard orientation:                         
 ---------------------------------------------------------------------
 Center     Atomic      Atomic             Coordinates (Angstroms)
 Number     Number       Type             X           Y           Z
 ---------------------------------------------------------------------
      1          6           0       -1.007264   -0.950259   -0.362596
      2          6           0        0.262170   -0.930218    0.468970
      3          6           0        1.435636   -0.334994   -0.241544
      4          8           0       -1.786559    0.126229    0.213894
      5          8           0       -0.602255    1.488163   -0.207249
      6          8           0        2.211405    0.486346    0.174720
      7          1           0       -1.135232    2.075381    0.346366
      8          1           0       -0.940246   -0.750923   -1.437605
      9          1           0       -1.520087   -1.904573   -0.192824
     10          1           0        1.590101   -0.820185   -1.241060
     11          1           0        0.607780   -1.947786    0.693467
     12          1           0       -1.326296   -0.164979    1.191752
 ---------------------------------------------------------------------
 Rotational constants (GHZ):           5.7765105           2.5992854           1.9665454
 Standard basis: 6-31+G(d) (6D, 7F)
 There are   126 symmetry adapted cartesian basis functions of A   symmetry.
 There are   126 symmetry adapted basis functions of A   symmetry.
   126 basis functions,   216 primitive gaussians,   126 cartesian basis functions
    24 alpha electrons       24 beta electrons
       nuclear repulsion energy       238.8474387122 Hartrees.
 NAtoms=   12 NActive=   12 NUniq=   12 SFac= 1.00D+00 NAtFMM=   60 NAOKFM=F Big=F
 Integral buffers will be    131072 words long.
 Raffenetti 2 integral format.
 Two-electron integral symmetry is turned on.
 One-electron integrals computed using PRISM.
 NBasis=   126 RedAO= T EigKep=  1.54D-04  NBF=   126
 NBsUse=   126 1.00D-06 EigRej= -1.00D+00 NBFU=   126
 Initial guess from the checkpoint file:  "/scratch/bell/zhao922/YARP/paper-example/KHP-network/pp_0/TS-folder/Gau-105494.chk"
 B after Tr=     0.000000    0.000000   -0.000000
         Rot=    0.999074   -0.015887   -0.007532   -0.039257 Ang=  -4.93 deg.
 ExpMin= 4.38D-02 ExpMax= 5.48D+03 ExpMxC= 8.25D+02 IAcc=3 IRadAn=         5 AccDes= 0.00D+00
 Harris functional with IExCor=  402 and IRadAn=       5 diagonalized for initial guess.
 HarFok:  IExCor=  402 AccDes= 0.00D+00 IRadAn=         5 IDoV= 1 UseB2=F ITyADJ=14
 ICtDFT=  3500011 ScaDFX=  1.000000  1.000000  1.000000  1.000000
 FoFCou: FMM=F IPFlag=           0 FMFlag=      100000 FMFlg1=           0
         NFxFlg=           0 DoJE=T BraDBF=F KetDBF=T FulRan=T
         wScrn=  0.000000 ICntrl=       500 IOpCl=  0 I1Cent=   200000004 NGrid=           0
         NMat0=    1 NMatS0=      1 NMatT0=    0 NMatD0=    1 NMtDS0=    0 NMtDT0=    0
 Petite list used in FoFCou.
 Keep R1 ints in memory in canonical form, NReq=47237537.
 Requested convergence on RMS density matrix=1.00D-08 within 128 cycles.
 Requested convergence on MAX density matrix=1.00D-06.
 Requested convergence on             energy=1.00D-06.
 No special actions if energy rises.
 EnCoef did     4 forward-backward iterations
 SCF Done:  E(RB3LYP) =  -343.326267995     A.U. after   15 cycles
            NFock= 15  Conv=0.79D-08     -V/T= 2.0090
 DoSCS=F DFT=T ScalE2(SS,OS)=  1.000000  1.000000
 Range of M.O.s used for correlation:     1   126
 NBasis=   126 NAE=    24 NBE=    24 NFC=     0 NFV=     0
 NROrb=    126 NOA=    24 NOB=    24 NVA=   102 NVB=   102

 **** Warning!!: The largest alpha MO coefficient is  0.28076012D+02


 **** Warning!!: The smallest alpha delta epsilon is  0.53152401D-01

 Symmetrizing basis deriv contribution to polar:
 IMax=3 JMax=2 DiffMx= 0.00D+00
 G2DrvN: will do    13 centers at a time, making    1 passes.
 Calling FoFCou, ICntrl=  3107 FMM=F I1Cent=   0 AccDes= 0.00D+00.
 End of G2Drv F.D. properties file   721 does not exist.
 End of G2Drv F.D. properties file   722 does not exist.
 End of G2Drv F.D. properties file   788 does not exist.
          IDoAtm=111111111111
          Differentiating once with respect to electric field.
                with respect to dipole field.
          Differentiating once with respect to nuclear coordinates.
 Keep R1 ints in memory in canonical form, NReq=47193552.
          There are    39 degrees of freedom in the 1st order CPHF.  IDoFFX=6 NUNeed=     3.
     36 vectors produced by pass  0 Test12= 6.28D-15 2.56D-09 XBig12= 3.44D+02 1.65D+01.
 AX will form    36 AO Fock derivatives at one time.
     36 vectors produced by pass  1 Test12= 6.28D-15 2.56D-09 XBig12= 1.38D+02 2.50D+00.
     36 vectors produced by pass  2 Test12= 6.28D-15 2.56D-09 XBig12= 1.60D+00 2.10D-01.
     36 vectors produced by pass  3 Test12= 6.28D-15 2.56D-09 XBig12= 8.39D-03 1.48D-02.
     36 vectors produced by pass  4 Test12= 6.28D-15 2.56D-09 XBig12= 1.48D-05 4.79D-04.
     30 vectors produced by pass  5 Test12= 6.28D-15 2.56D-09 XBig12= 1.65D-08 1.68D-05.
      4 vectors produced by pass  6 Test12= 6.28D-15 2.56D-09 XBig12= 1.30D-11 4.67D-07.
      3 vectors produced by pass  7 Test12= 6.28D-15 2.56D-09 XBig12= 9.66D-15 1.45D-08.
 InvSVY:  IOpt=1 It=  1 EMax= 1.42D-14
 Solved reduced A of dimension   217 with    39 vectors.
 Isotropic polarizability for W=    0.000000       69.27 Bohr**3.
 End of Minotr F.D. properties file   721 does not exist.
 End of Minotr F.D. properties file   722 does not exist.
 End of Minotr F.D. properties file   788 does not exist.
 Calling FoFJK, ICntrl=    100127 FMM=F ISym2X=0 I1Cent= 0 IOpClX= 0 NMat=1 NMatS=1 NMatT=0.
 ***** Axes restored to original set *****
 -------------------------------------------------------------------
 Center     Atomic                   Forces (Hartrees/Bohr)
 Number     Number              X              Y              Z
 -------------------------------------------------------------------
      1        6           0.004315212   -0.015393161   -0.005043206
      2        6           0.013310869   -0.023727669   -0.026732341
      3        6          -0.008439613    0.004103907   -0.000683171
      4        8          -0.037342266   -0.019149178    0.025343174
      5        8          -0.000964686    0.005066371   -0.005242156
      6        8           0.004408950   -0.004550158    0.009346952
      7        1           0.003421011    0.009405444    0.006656232
      8        1           0.002560380    0.000365835    0.002262301
      9        1           0.000182796    0.005196793   -0.000622740
     10        1           0.005937686    0.002802178    0.000216981
     11        1          -0.015809115    0.004727919    0.007718852
     12        1           0.028418775    0.031151718   -0.013220879
 -------------------------------------------------------------------
 Cartesian Forces:  Max     0.037342266 RMS     0.013865336
 FormGI is forming the generalized inverse of G from B-inverse, IUseBI=4.

 GradGradGradGradGradGradGradGradGradGradGradGradGradGradGradGradGradGrad
 Berny optimization.
 Internal  Forces:  Max     0.040013107 RMS     0.011880497
 Search for a saddle point.
 Step number   3 out of a maximum of  100
 All quantities printed in internal units (Hartrees-Bohrs-Radians)
 Swapping is turned off.
 Second derivative matrix not updated -- analytic derivatives used.
 ITU=  0  0  0
     Eigenvalues ---   -0.14108  -0.01772  -0.00106   0.00216   0.00702
     Eigenvalues ---    0.02179   0.03337   0.03435   0.04919   0.05101
     Eigenvalues ---    0.06749   0.06926   0.08670   0.09595   0.10570
     Eigenvalues ---    0.11525   0.14519   0.16499   0.18483   0.19192
     Eigenvalues ---    0.23860   0.27720   0.29151   0.31434   0.33377
     Eigenvalues ---    0.33493   0.34758   0.48867   0.53242   0.90348
 Eigenvectors required to have negative eigenvalues:
                          R9        R11       A15       D7        D9
   1                    0.53395  -0.48778   0.37459  -0.26195  -0.24667
                          A1        A2        D10       D13       D12
   1                    0.20275  -0.17720  -0.14562  -0.13295  -0.13034
 RFO step:  Lambda0=6.895715656D-03 Lambda=-4.12443599D-02.
 Linear search not attempted -- option 19 set.
 Maximum step size (   0.300) exceeded in Quadratic search.
    -- Step size scaled by   0.518
 Iteration  1 RMS(Cart)=  0.11376197 RMS(Int)=  0.02811789
 Iteration  2 RMS(Cart)=  0.03226949 RMS(Int)=  0.00746575
 Iteration  3 RMS(Cart)=  0.00158230 RMS(Int)=  0.00711302
 Iteration  4 RMS(Cart)=  0.00003325 RMS(Int)=  0.00711301
 Iteration  5 RMS(Cart)=  0.00000183 RMS(Int)=  0.00711301
 Iteration  6 RMS(Cart)=  0.00000011 RMS(Int)=  0.00711301
 Variable       Old X    -DE/DX   Delta X   Delta X   Delta X     New X
                                 (Linear)    (Quad)   (Total)
    R1        2.86801   0.00214   0.00000  -0.02474  -0.02474   2.84327
    R2        2.73747   0.03017   0.00000   0.05639   0.05639   2.79386
    R3        2.06998   0.00108   0.00000   0.00181   0.00181   2.07179
    R4        2.07227  -0.00061   0.00000  -0.00425  -0.00425   2.06802
    R5        2.82585   0.00353   0.00000  -0.01139  -0.01139   2.81446
    R6        2.07465   0.00296   0.00000  -0.00389  -0.00389   2.07076
    R7        2.27529   0.01052   0.00000   0.00848   0.00848   2.28377
    R8        2.11978   0.00153   0.00000   0.00229   0.00229   2.12208
    R9        3.50227  -0.00426   0.00000  -0.09532  -0.09459   3.40768
   R10        3.89163   0.00922   0.00000   0.08750   0.08128   3.97291
   R11        2.11518  -0.04001   0.00000  -0.12562  -0.12562   1.98957
   R12        1.82765   0.00215   0.00000   0.00685   0.01889   1.84654
    A1        1.79477   0.03126   0.00000   0.01276   0.01290   1.80767
    A2        2.07618  -0.00513   0.00000   0.02156   0.02161   2.09779
    A3        1.89423  -0.00929   0.00000   0.00295   0.00293   1.89715
    A4        1.86319  -0.00932   0.00000  -0.03565  -0.03578   1.82741
    A5        1.91082  -0.01321   0.00000  -0.01632  -0.01646   1.89437
    A6        1.91656   0.00568   0.00000   0.01025   0.00958   1.92614
    A7        1.98372   0.01250   0.00000   0.02545   0.02411   2.00784
    A8        1.94240  -0.00199   0.00000   0.00847   0.00582   1.94822
    A9        1.79164   0.00479   0.00000   0.07425   0.07283   1.86448
   A10        2.23048   0.00152   0.00000   0.01102   0.01095   2.24143
   A11        1.93827   0.00335   0.00000   0.00577   0.00570   1.94397
   A12        2.11109  -0.00465   0.00000  -0.01516  -0.01523   2.09586
   A13        1.68292   0.01811   0.00000   0.04070   0.07282   1.75574
   A14        2.16374   0.01774   0.00000  -0.00983  -0.03928   2.12446
   A15        1.50387   0.03031   0.00000   0.06893   0.06980   1.57366
   A16        1.69808   0.00153   0.00000   0.12663   0.11765   1.81573
   A17        1.63083  -0.01296   0.00000  -0.14021  -0.13532   1.49550
    D1       -1.82701   0.00109   0.00000   0.11148   0.11141  -1.71560
    D2        2.44375  -0.01162   0.00000  -0.00432  -0.00426   2.43949
    D3        0.22618   0.00974   0.00000   0.08759   0.08745   0.31363
    D4       -1.78624  -0.00297   0.00000  -0.02821  -0.02822  -1.81447
    D5        2.43299   0.00482   0.00000   0.12259   0.12261   2.55560
    D6        0.42056  -0.00789   0.00000   0.00679   0.00693   0.42750
    D7        1.09414   0.00737   0.00000   0.19126   0.18606   1.28021
    D8        1.00071   0.00748   0.00000  -0.06382  -0.05710   0.94361
    D9       -0.59743   0.00361   0.00000   0.05858   0.05701  -0.54042
   D10       -1.10416   0.00117   0.00000   0.17726   0.17226  -0.93190
   D11       -1.19759   0.00128   0.00000  -0.07782  -0.07090  -1.26849
   D12       -2.79573  -0.00259   0.00000   0.04458   0.04321  -2.75252
   D13        3.10538   0.00683   0.00000   0.19415   0.18879  -2.98901
   D14        3.01195   0.00694   0.00000  -0.06093  -0.05437   2.95758
   D15        1.41381   0.00307   0.00000   0.06147   0.05975   1.47356
   D16        2.31715  -0.00095   0.00000   0.07687   0.07579   2.39295
   D17       -0.91253   0.00173   0.00000   0.09752   0.09644  -0.81609
   D18       -1.86624   0.00616   0.00000   0.14766   0.14874  -1.71750
   D19        1.18725   0.00883   0.00000   0.16831   0.16939   1.35664
         Item               Value     Threshold  Converged?
 Maximum Force            0.040013     0.000450     NO 
 RMS     Force            0.011880     0.000300     NO 
 Maximum Displacement     0.449626     0.001800     NO 
 RMS     Displacement     0.134070     0.001200     NO 
 Predicted change in Energy=-1.979174D-02
 GradGradGradGradGradGradGradGradGradGradGradGradGradGradGradGradGradGrad

                          Input orientation:                          
 ---------------------------------------------------------------------
 Center     Atomic      Atomic             Coordinates (Angstroms)
 Number     Number       Type             X           Y           Z
 ---------------------------------------------------------------------
      1          6           0        0.618850    1.321829   -2.517307
      2          6           0        0.469007    0.378224   -1.354998
      3          6           0        1.747916   -0.141439   -0.795987
      4          8           0        0.500805    2.658430   -1.896524
      5          8           0        2.092619    2.776108   -1.057446
      6          8           0        2.062660   -0.272157    0.363484
      7          1           0        1.717313    3.239352   -0.283261
      8          1           0        1.558988    1.358475   -3.080124
      9          1           0       -0.226550    1.178053   -3.197179
     10          1           0        2.436875   -0.494336   -1.609513
     11          1           0       -0.139509   -0.494054   -1.618837
     12          1           0       -0.145232    2.264668   -1.164373
 ---------------------------------------------------------------------
                    Distance matrix (angstroms):
                    1          2          3          4          5
     1  C    0.000000
     2  C    1.504595   0.000000
     3  C    2.525645   1.489346   0.000000
     4  O    1.478448   2.343844   3.256644   0.000000
     5  O    2.533400   2.911100   2.949451   1.803267   0.000000
     6  O    3.595042   2.432263   1.208521   4.016885   3.363310
     7  H    3.142368   3.300445   3.419586   2.102375   0.977145
     8  H    1.096341   2.263849   2.739109   2.051960   2.526989
     9  H    1.094349   2.125361   3.377173   2.100539   3.537059
    10  H    2.725392   2.167636   1.122955   3.710887   3.334531
    11  H    2.163282   1.095797   2.088969   3.228818   3.998939
    12  H    1.817470   1.993063   3.083677   1.052834   2.298039
                    6          7          8          9         10
     6  O    0.000000
     7  H    3.587232   0.000000
     8  H    3.843316   3.374197   0.000000
     9  H    4.474585   4.064293   1.798444   0.000000
    10  H    2.020425   4.027051   2.523151   3.522982   0.000000
    11  H    2.971259   4.378341   2.907252   2.301018   2.576401
    12  H    3.693861   2.279351   2.719495   2.306435   3.804936
                   11         12
    11  H    0.000000
    12  H    2.795911   0.000000
 Stoichiometry    C3H6O3
 Framework group  C1[X(C3H6O3)]
 Deg. of freedom    30
 Full point group                 C1      NOp   1
 Largest Abelian subgroup         C1      NOp   1
 Largest concise Abelian subgroup C1      NOp   1
                         Standard orientation:                         
 ---------------------------------------------------------------------
 Center     Atomic      Atomic             Coordinates (Angstroms)
 Number     Number       Type             X           Y           Z
 ---------------------------------------------------------------------
      1          6           0       -0.916456   -1.024131   -0.364196
      2          6           0        0.394923   -0.994476    0.372832
      3          6           0        1.466360   -0.191177   -0.278999
      4          8           0       -1.727320   -0.000606    0.329133
      5          8           0       -0.944783    1.507538   -0.274944
      6          8           0        2.246780    0.576221    0.233413
      7          1           0       -1.040199    1.970369    0.580330
      8          1           0       -0.960301   -0.743498   -1.423104
      9          1           0       -1.383721   -2.001573   -0.209695
     10          1           0        1.541884   -0.422446   -1.375283
     11          1           0        0.798811   -2.002560    0.519163
     12          1           0       -1.222861   -0.206802    1.229946
 ---------------------------------------------------------------------
 Rotational constants (GHZ):           5.4165841           2.4894334           1.8842085
 Standard basis: 6-31+G(d) (6D, 7F)
 There are   126 symmetry adapted cartesian basis functions of A   symmetry.
 There are   126 symmetry adapted basis functions of A   symmetry.
   126 basis functions,   216 primitive gaussians,   126 cartesian basis functions
    24 alpha electrons       24 beta electrons
       nuclear repulsion energy       236.0199033499 Hartrees.
 NAtoms=   12 NActive=   12 NUniq=   12 SFac= 1.00D+00 NAtFMM=   60 NAOKFM=F Big=F
 Integral buffers will be    131072 words long.
 Raffenetti 2 integral format.
 Two-electron integral symmetry is turned on.
 One-electron integrals computed using PRISM.
 NBasis=   126 RedAO= T EigKep=  1.47D-04  NBF=   126
 NBsUse=   126 1.00D-06 EigRej= -1.00D+00 NBFU=   126
 Initial guess from the checkpoint file:  "/scratch/bell/zhao922/YARP/paper-example/KHP-network/pp_0/TS-folder/Gau-105494.chk"
 B after Tr=     0.000000   -0.000000    0.000000
         Rot=    0.998935   -0.018989   -0.012141   -0.040257 Ang=  -5.29 deg.
 ExpMin= 4.38D-02 ExpMax= 5.48D+03 ExpMxC= 8.25D+02 IAcc=3 IRadAn=         5 AccDes= 0.00D+00
 Harris functional with IExCor=  402 and IRadAn=       5 diagonalized for initial guess.
 HarFok:  IExCor=  402 AccDes= 0.00D+00 IRadAn=         5 IDoV= 1 UseB2=F ITyADJ=14
 ICtDFT=  3500011 ScaDFX=  1.000000  1.000000  1.000000  1.000000
 FoFCou: FMM=F IPFlag=           0 FMFlag=      100000 FMFlg1=           0
         NFxFlg=           0 DoJE=T BraDBF=F KetDBF=T FulRan=T
         wScrn=  0.000000 ICntrl=       500 IOpCl=  0 I1Cent=   200000004 NGrid=           0
         NMat0=    1 NMatS0=      1 NMatT0=    0 NMatD0=    1 NMtDS0=    0 NMtDT0=    0
 Petite list used in FoFCou.
 Keep R1 ints in memory in canonical form, NReq=47237537.
 Requested convergence on RMS density matrix=1.00D-08 within 128 cycles.
 Requested convergence on MAX density matrix=1.00D-06.
 Requested convergence on             energy=1.00D-06.
 No special actions if energy rises.
 SCF Done:  E(RB3LYP) =  -343.344667124     A.U. after   16 cycles
            NFock= 16  Conv=0.68D-08     -V/T= 2.0091
 DoSCS=F DFT=T ScalE2(SS,OS)=  1.000000  1.000000
 Range of M.O.s used for correlation:     1   126
 NBasis=   126 NAE=    24 NBE=    24 NFC=     0 NFV=     0
 NROrb=    126 NOA=    24 NOB=    24 NVA=   102 NVB=   102

 **** Warning!!: The largest alpha MO coefficient is  0.32839304D+02


 **** Warning!!: The smallest alpha delta epsilon is  0.53413731D-01

 Symmetrizing basis deriv contribution to polar:
 IMax=3 JMax=2 DiffMx= 0.00D+00
 G2DrvN: will do    13 centers at a time, making    1 passes.
 Calling FoFCou, ICntrl=  3107 FMM=F I1Cent=   0 AccDes= 0.00D+00.
 End of G2Drv F.D. properties file   721 does not exist.
 End of G2Drv F.D. properties file   722 does not exist.
 End of G2Drv F.D. properties file   788 does not exist.
          IDoAtm=111111111111
          Differentiating once with respect to electric field.
                with respect to dipole field.
          Differentiating once with respect to nuclear coordinates.
 Keep R1 ints in memory in canonical form, NReq=47193552.
          There are    39 degrees of freedom in the 1st order CPHF.  IDoFFX=6 NUNeed=     3.
     36 vectors produced by pass  0 Test12= 6.28D-15 2.56D-09 XBig12= 5.93D+02 2.32D+01.
 AX will form    36 AO Fock derivatives at one time.
     36 vectors produced by pass  1 Test12= 6.28D-15 2.56D-09 XBig12= 2.26D+02 2.67D+00.
     36 vectors produced by pass  2 Test12= 6.28D-15 2.56D-09 XBig12= 2.25D+00 2.09D-01.
     36 vectors produced by pass  3 Test12= 6.28D-15 2.56D-09 XBig12= 9.47D-03 1.60D-02.
     36 vectors produced by pass  4 Test12= 6.28D-15 2.56D-09 XBig12= 1.37D-05 5.31D-04.
     27 vectors produced by pass  5 Test12= 6.28D-15 2.56D-09 XBig12= 1.42D-08 2.32D-05.
      4 vectors produced by pass  6 Test12= 6.28D-15 2.56D-09 XBig12= 1.32D-11 4.40D-07.
      2 vectors produced by pass  7 Test12= 6.28D-15 2.56D-09 XBig12= 1.02D-14 1.08D-08.
 InvSVY:  IOpt=1 It=  1 EMax= 7.11D-15
 Solved reduced A of dimension   213 with    39 vectors.
 Isotropic polarizability for W=    0.000000       71.89 Bohr**3.
 End of Minotr F.D. properties file   721 does not exist.
 End of Minotr F.D. properties file   722 does not exist.
 End of Minotr F.D. properties file   788 does not exist.
 Calling FoFJK, ICntrl=    100127 FMM=F ISym2X=0 I1Cent= 0 IOpClX= 0 NMat=1 NMatS=1 NMatT=0.
 ***** Axes restored to original set *****
 -------------------------------------------------------------------
 Center     Atomic                   Forces (Hartrees/Bohr)
 Number     Number              X              Y              Z
 -------------------------------------------------------------------
      1        6           0.002124483   -0.012851100   -0.000560819
      2        6           0.009602039   -0.015749820   -0.023170533
      3        6          -0.003313595    0.003717102   -0.002189812
      4        8          -0.022970288   -0.010547885    0.013083529
      5        8          -0.000905761    0.006097606   -0.000816171
      6        8           0.001056951   -0.003333768    0.006247740
      7        1           0.003192629    0.001344295    0.001649476
      8        1           0.002350148   -0.000049572    0.002664309
      9        1           0.000791829    0.005178069   -0.001691432
     10        1           0.003993875    0.003485540    0.001315337
     11        1          -0.012055400    0.004197038    0.008507405
     12        1           0.016133092    0.018512494   -0.005039027
 -------------------------------------------------------------------
 Cartesian Forces:  Max     0.023170533 RMS     0.009018321
 FormGI is forming the generalized inverse of G from B-inverse, IUseBI=4.

 GradGradGradGradGradGradGradGradGradGradGradGradGradGradGradGradGradGrad
 Berny optimization.
 Internal  Forces:  Max     0.021418584 RMS     0.007082620
 Search for a saddle point.
 Step number   4 out of a maximum of  100
 All quantities printed in internal units (Hartrees-Bohrs-Radians)
 Swapping is turned off.
 Second derivative matrix not updated -- analytic derivatives used.
 ITU=  0  0  0  0
     Eigenvalues ---   -0.05576  -0.01042  -0.00236   0.00308   0.00635
     Eigenvalues ---    0.02368   0.02613   0.04145   0.04754   0.05236
     Eigenvalues ---    0.06754   0.07306   0.09594   0.10025   0.10440
     Eigenvalues ---    0.11353   0.12990   0.16391   0.18225   0.19505
     Eigenvalues ---    0.23994   0.27717   0.29390   0.30969   0.33656
     Eigenvalues ---    0.34038   0.34390   0.40995   0.48467   0.87957
 Eigenvectors required to have negative eigenvalues:
                          R9        A15       R11       D7        D9
   1                   -0.67009  -0.32953   0.26227   0.23616   0.22581
                          R10       A1        A2        D13       D6
   1                   -0.19001  -0.18970   0.16573   0.13927   0.13564
 RFO step:  Lambda0=2.354831377D-03 Lambda=-2.35436258D-02.
 Linear search not attempted -- option 19 set.
 Maximum step size (   0.300) exceeded in Quadratic search.
    -- Step size scaled by   0.449
 Iteration  1 RMS(Cart)=  0.08945791 RMS(Int)=  0.03502314
 Iteration  2 RMS(Cart)=  0.07351784 RMS(Int)=  0.02605859
 Iteration  3 RMS(Cart)=  0.03039528 RMS(Int)=  0.02055950
 Iteration  4 RMS(Cart)=  0.01876533 RMS(Int)=  0.02012263
 Iteration  5 RMS(Cart)=  0.01175420 RMS(Int)=  0.02000872
 Iteration  6 RMS(Cart)=  0.00777702 RMS(Int)=  0.01995946
 Iteration  7 RMS(Cart)=  0.00504487 RMS(Int)=  0.01994188
 Iteration  8 RMS(Cart)=  0.00333298 RMS(Int)=  0.01993383
 Iteration  9 RMS(Cart)=  0.00217915 RMS(Int)=  0.01993058
 Iteration 10 RMS(Cart)=  0.00143425 RMS(Int)=  0.01992914
 Iteration 11 RMS(Cart)=  0.00094105 RMS(Int)=  0.01992853
 Iteration 12 RMS(Cart)=  0.00061908 RMS(Int)=  0.01992827
 Iteration 13 RMS(Cart)=  0.00040683 RMS(Int)=  0.01992815
 Iteration 14 RMS(Cart)=  0.00026764 RMS(Int)=  0.01992810
 Iteration 15 RMS(Cart)=  0.00017600 RMS(Int)=  0.01992808
 Iteration 16 RMS(Cart)=  0.00011579 RMS(Int)=  0.01992807
 Iteration 17 RMS(Cart)=  0.00007616 RMS(Int)=  0.01992807
 Iteration 18 RMS(Cart)=  0.00005011 RMS(Int)=  0.01992807
 Iteration 19 RMS(Cart)=  0.00003297 RMS(Int)=  0.01992807
 Iteration 20 RMS(Cart)=  0.00002169 RMS(Int)=  0.01992807
 Iteration 21 RMS(Cart)=  0.00001427 RMS(Int)=  0.01992806
 Iteration 22 RMS(Cart)=  0.00000939 RMS(Int)=  0.01992806
 Iteration 23 RMS(Cart)=  0.00000618 RMS(Int)=  0.01992806
 Iteration 24 RMS(Cart)=  0.00000406 RMS(Int)=  0.01992806
 Iteration 25 RMS(Cart)=  0.00000267 RMS(Int)=  0.01992806
 Iteration 26 RMS(Cart)=  0.00000176 RMS(Int)=  0.01992806
 Iteration 27 RMS(Cart)=  0.00000116 RMS(Int)=  0.01992806
 Iteration 28 RMS(Cart)=  0.00000076 RMS(Int)=  0.01992806
 Variable       Old X    -DE/DX   Delta X   Delta X   Delta X     New X
                                 (Linear)    (Quad)   (Total)
    R1        2.84327  -0.00229   0.00000  -0.03439  -0.03439   2.80888
    R2        2.79386   0.01802   0.00000   0.03870   0.03870   2.83256
    R3        2.07179   0.00065   0.00000  -0.00048  -0.00048   2.07131
    R4        2.06802  -0.00024   0.00000  -0.00043  -0.00043   2.06759
    R5        2.81446   0.00216   0.00000  -0.00454  -0.00454   2.80991
    R6        2.07076   0.00131   0.00000  -0.00599  -0.00599   2.06477
    R7        2.28377   0.00663   0.00000   0.00998   0.00998   2.29376
    R8        2.12208   0.00040   0.00000  -0.00552  -0.00552   2.11656
    R9        3.40768  -0.00096   0.00000  -0.03600  -0.03200   3.37569
   R10        3.97291   0.00505   0.00000   0.05387   0.02574   3.99865
   R11        1.98957  -0.02033   0.00000  -0.04605  -0.04605   1.94352
   R12        1.84654  -0.00303   0.00000   0.00091   0.05301   1.89955
    A1        1.80767   0.01664   0.00000   0.00932   0.00940   1.81707
    A2        2.09779  -0.00281   0.00000   0.00192   0.00188   2.09967
    A3        1.89715  -0.00337   0.00000   0.02052   0.02056   1.91771
    A4        1.82741  -0.00538   0.00000  -0.02142  -0.02152   1.80589
    A5        1.89437  -0.00832   0.00000  -0.02409  -0.02422   1.87015
    A6        1.92614   0.00300   0.00000   0.00746   0.00693   1.93307
    A7        2.00784   0.00421   0.00000   0.00371   0.00212   2.00996
    A8        1.94822   0.00086   0.00000   0.04108   0.03894   1.98716
    A9        1.86448   0.00450   0.00000   0.06016   0.05815   1.92263
   A10        2.24143  -0.00132   0.00000  -0.01947  -0.01958   2.22186
   A11        1.94397   0.00365   0.00000   0.02623   0.02612   1.97009
   A12        2.09586  -0.00219   0.00000  -0.00522  -0.00532   2.09055
   A13        1.75574   0.01045   0.00000   0.05865   0.09777   1.85351
   A14        2.12446   0.00694   0.00000  -0.16123  -0.17899   1.94547
   A15        1.57366   0.02142   0.00000   0.06311   0.06271   1.63638
   A16        1.81573  -0.00041   0.00000   0.07919   0.03193   1.84766
   A17        1.49550  -0.00976   0.00000  -0.17764  -0.13826   1.35724
    D1       -1.71560   0.00220   0.00000   0.05646   0.05674  -1.65886
    D2        2.43949  -0.00771   0.00000  -0.05967  -0.05988   2.37961
[...]
    D6       -0.46714  -0.00000   0.00000  -0.00001  -0.00001  -0.46715
    D7        2.92942   0.00000   0.00000   0.00002   0.00002   2.92944
    D8       -2.85563   0.00000   0.00000   0.00003   0.00003  -2.85560
    D9        1.45745   0.00000   0.00000   0.00002   0.00002   1.45747
   D10        0.82441  -0.00000   0.00000   0.00002   0.00002   0.82443
   D11        1.32255   0.00000   0.00000   0.00003   0.00003   1.32258
   D12       -0.64756   0.00000   0.00000   0.00002   0.00002  -0.64754
   D13       -1.26757   0.00000   0.00000   0.00002   0.00002  -1.26755
   D14       -0.76944   0.00000   0.00000   0.00003   0.00003  -0.76941
   D15       -2.73954   0.00000   0.00000   0.00002   0.00002  -2.73952
   D16        3.11989   0.00000   0.00000   0.00000   0.00000   3.11989
   D17       -0.05754   0.00000   0.00000   0.00000   0.00000  -0.05754
   D18        0.06919  -0.00000   0.00000  -0.00000  -0.00000   0.06919
   D19       -3.10823  -0.00000   0.00000  -0.00000  -0.00000  -3.10824
         Item               Value     Threshold  Converged?
 Maximum Force            0.000001     0.000450     YES
 RMS     Force            0.000000     0.000300     YES
 Maximum Displacement     0.000047     0.001800     YES
 RMS     Displacement     0.000018     0.001200     YES
 Predicted change in Energy=-2.556626D-11
 Optimization completed.
    -- Stationary point found.
                           ----------------------------
                           !   Optimized Parameters   !
                           ! (Angstroms and Degrees)  !
 --------------------------                            --------------------------
 ! Name  Definition              Value          Derivative Info.                !
 --------------------------------------------------------------------------------
 ! R1    R(1,2)                  1.4514         -DE/DX =    0.0                 !
 ! R2    R(1,4)                  1.4946         -DE/DX =    0.0                 !
 ! R3    R(1,8)                  1.092          -DE/DX =    0.0                 !
 ! R4    R(1,9)                  1.0882         -DE/DX =    0.0                 !
 ! R5    R(2,3)                  1.4464         -DE/DX =    0.0                 !
 ! R6    R(2,11)                 1.0857         -DE/DX =    0.0                 !
 ! R7    R(3,6)                  1.2282         -DE/DX =    0.0                 !
 ! R8    R(3,10)                 1.1131         -DE/DX =    0.0                 !
 ! R9    R(4,5)                  1.9744         -DE/DX =    0.0                 !
 ! R10   R(4,7)                  2.2607         -DE/DX =    0.0                 !
 ! R11   R(4,12)                 0.9767         -DE/DX =    0.0                 !
 ! R12   R(5,7)                  0.9751         -DE/DX =    0.0                 !
 ! A1    A(2,1,4)               93.7826         -DE/DX =    0.0                 !
 ! A2    A(2,1,8)              117.2458         -DE/DX =    0.0                 !
 ! A3    A(2,1,9)              117.2362         -DE/DX =    0.0                 !
 ! A4    A(4,1,8)              109.2726         -DE/DX =    0.0                 !
 ! A5    A(4,1,9)              105.094          -DE/DX =    0.0                 !
 ! A6    A(8,1,9)              111.5825         -DE/DX =    0.0                 !
 ! A7    A(1,2,3)              121.6029         -DE/DX =    0.0                 !
 ! A8    A(1,2,11)             119.8404         -DE/DX =    0.0                 !
 ! A9    A(3,2,11)             118.3521         -DE/DX =    0.0                 !
 ! A10   A(2,3,6)              124.1036         -DE/DX =    0.0                 !
 ! A11   A(2,3,10)             115.775          -DE/DX =    0.0                 !
 ! A12   A(6,3,10)             120.0897         -DE/DX =    0.0                 !
 ! A13   A(1,4,5)              120.2317         -DE/DX =    0.0                 !
 ! A14   A(1,4,7)              131.2281         -DE/DX =    0.0                 !
 ! A15   A(1,4,12)             109.7717         -DE/DX =    0.0                 !
 ! A16   A(5,4,12)              75.4904         -DE/DX =    0.0                 !
 ! A17   A(7,4,12)              92.9932         -DE/DX =    0.0                 !
 ! D1    D(4,1,2,3)            -92.361          -DE/DX =    0.0                 !
 ! D2    D(4,1,2,11)            82.3549         -DE/DX =    0.0                 !
 ! D3    D(8,1,2,3)             21.5997         -DE/DX =    0.0                 !
 ! D4    D(8,1,2,11)          -163.6844         -DE/DX =    0.0                 !
 ! D5    D(9,1,2,3)            158.5191         -DE/DX =    0.0                 !
 ! D6    D(9,1,2,11)           -26.7649         -DE/DX =    0.0                 !
 ! D7    D(2,1,4,5)            167.8436         -DE/DX =    0.0                 !
 ! D8    D(2,1,4,7)           -163.6155         -DE/DX =    0.0                 !
 ! D9    D(2,1,4,12)            83.506          -DE/DX =    0.0                 !
 ! D10   D(8,1,4,5)             47.2354         -DE/DX =    0.0                 !
 ! D11   D(8,1,4,7)             75.7763         -DE/DX =    0.0                 !
 ! D12   D(8,1,4,12)           -37.1022         -DE/DX =    0.0                 !
 ! D13   D(9,1,4,5)            -72.6263         -DE/DX =    0.0                 !
 ! D14   D(9,1,4,7)            -44.0855         -DE/DX =    0.0                 !
 ! D15   D(9,1,4,12)          -156.964          -DE/DX =    0.0                 !
 ! D16   D(1,2,3,6)            178.7564         -DE/DX =    0.0                 !
 ! D17   D(1,2,3,10)            -3.2968         -DE/DX =    0.0                 !
 ! D18   D(11,2,3,6)             3.9645         -DE/DX =    0.0                 !
 ! D19   D(11,2,3,10)         -178.0887         -DE/DX =    0.0                 !
 --------------------------------------------------------------------------------
 GradGradGradGradGradGradGradGradGradGradGradGradGradGradGradGradGradGrad


 ----------------------------------------------------------------------

 Electric dipole moment (input orientation):
 (Debye = 10**-18 statcoulomb cm , SI units = C m)
                  (au)            (Debye)         (10**-30 SI)
   Tot        0.922293D+00      0.234424D+01      0.781953D+01
   x         -0.336699D+00     -0.855802D+00     -0.285465D+01
   y          0.241382D+00      0.613531D+00      0.204652D+01
   z         -0.824011D+00     -0.209443D+01     -0.698625D+01

 Dipole polarizability, Alpha (input orientation).
 (esu units = cm**3 , SI units = C**2 m**2 J**-1)
 Alpha(0;0):
               (au)            (10**-24 esu)      (10**-40 SI)
   iso        0.876839D+02      0.129934D+02      0.144571D+02
   aniso      0.123931D+03      0.183646D+02      0.204334D+02
   xx         0.480095D+02      0.711428D+01      0.791570D+01
   yx         0.125350D+02      0.185750D+01      0.206674D+01
   yy         0.167083D+03      0.247592D+02      0.275483D+02
   zx         0.118145D+01      0.175073D+00      0.194794D+00
   zy        -0.152611D+02     -0.226146D+01     -0.251621D+01
   zz         0.479591D+02      0.710681D+01      0.790739D+01

 ----------------------------------------------------------------------

 Dipole orientation:
     6          3.36242389         -1.08015258          4.01770746
     6          1.97404861          0.60356873          2.35634777
     6          3.11112839          1.64960518          0.10152025
     8          2.45600567         -3.41652191          2.71498135
     8          4.05215779         -6.71026451          3.43872202
     8          2.00534875          3.04725162         -1.38521782
     1          2.46931201         -7.50892957          3.94087669
     1          5.42273924         -1.00701120          3.92963806
     1          2.69376996         -1.25339475          5.95464728
     1          5.13466245          1.16752406         -0.21045458
     1         -0.01294435          0.97449873          2.70746509
     1          3.50806257         -3.75525940          1.23690634

 Electric dipole moment (dipole orientation):
 (Debye = 10**-18 statcoulomb cm , SI units = C m)
                  (au)            (Debye)         (10**-30 SI)
   Tot        0.922293D+00      0.234424D+01      0.781953D+01
   x          0.000000D+00      0.000000D+00      0.000000D+00
   y          0.000000D+00      0.000000D+00      0.000000D+00
   z          0.922293D+00      0.234424D+01      0.781953D+01

 Dipole polarizability, Alpha (dipole orientation).
 (esu units = cm**3 , SI units = C**2 m**2 J**-1)
 Alpha(0;0):
               (au)            (10**-24 esu)      (10**-40 SI)
   iso        0.876839D+02      0.129934D+02      0.144571D+02
   aniso      0.123931D+03      0.183646D+02      0.204334D+02
   xx         0.492424D+02      0.729697D+01      0.811897D+01
   yx        -0.224930D+02     -0.333312D+01     -0.370860D+01
   yy         0.152171D+03      0.225495D+02      0.250897D+02
   zx         0.569730D+01      0.844253D+00      0.939358D+00
   zy        -0.377333D+02     -0.559149D+01     -0.622138D+01
   zz         0.616378D+02      0.913378D+01      0.101627D+02

 ----------------------------------------------------------------------
 1\1\GINC-BELL-A094\Freq\RB3LYP\6-31+G(d)\C3H6O3\ZHAO922\23-Dec-2020\0\
 \#N Geom=AllCheck Guess=TCheck SCRF=Check GenChk RB3LYP/6-31+G(d) Freq
 \\pp_21_1 TS\\0,1\C,0.9067592597,1.1971363986,-2.3994906619\C,0.499765
 4882,0.0712167576,-1.5789975121\C,1.4667956958,-0.7442180082,-0.877484
 1758\O,0.7749199672,2.1841373757,-1.2848956398\O,1.5082515193,4.006914
 05,-1.4792533882\O,1.1727239206,-1.6924993394,-0.1545228121\H,0.653920
 2534,4.4415399358,-1.3002714415\H,1.9353505956,1.202650949,-2.76600443
 61\H,0.2082667459,1.5358988627,-3.1620822343\H,2.535374429,-0.48751340
 82,-1.0541369073\H,-0.5554312761,-0.1224002035,-1.4125160382\H,1.58704
 54014,2.1802906298,-0.7424097529\\Version=ES64L-G16RevB.01\State=1-A\H
 F=-343.4236791\RMSD=3.379e-09\RMSF=5.538e-07\ZeroPoint=0.0886875\Therm
 al=0.0961798\Dipole=-0.3366986,0.2413819,-0.8240108\DipoleDeriv=0.2155
 284,-0.0641543,-0.0419231,-0.1234286,0.041792,0.046633,0.0340322,0.128
 4502,0.5584387,0.0068915,0.6939756,-0.1470091,-0.0301824,-0.8042371,-0
 .0044989,-0.1127927,0.0407474,-0.2558077,0.6483072,-0.793631,0.0562709
 ,0.023801,1.3783933,-0.5587774,-0.0645678,-1.0999475,0.5586376,-0.1574
 519,0.5553871,-0.0382717,0.3182012,1.8481616,-0.0907355,0.0211015,-0.1
 011323,-0.4880335,-0.3356272,-0.4078194,-0.0580202,-0.1544957,-1.74872
 99,0.0559127,-0.0536076,-0.0077139,-0.5364374,-0.4539891,0.0221553,0.0
 648439,-0.0482308,-1.267556,0.4149181,0.0483455,0.7811286,-0.6529793,0
 .074358,-0.1561078,0.0572998,0.0571553,0.3208932,-0.0088268,0.044743,0
 .0248356,0.3144464,-0.0495855,0.0088824,0.0738841,0.0031788,0.0676547,
 -0.0093862,-0.0020377,0.0006554,0.0399664,0.0324594,0.0216937,-0.06037
 01,0.0483146,0.06802,0.060144,-0.0307952,0.0119116,0.0187341,-0.214655
 3,0.0440045,0.0533154,-0.0937173,0.0479703,0.0449464,0.067603,0.018187
 3,0.0442373,-0.0071604,0.0231221,0.0008643,0.0003076,0.0703911,0.05643
 18,0.0163424,0.0489695,0.1032587,0.2409249,0.052492,0.0391157,-0.00090
 38,-0.0227532,-0.0067611,0.0316334,0.153908,0.2955386\Polar=48.0095157
 ,12.5350152,167.083028,1.181448,-15.2610795,47.9591289\Quadrupole=5.56
 93106,-8.8094308,3.2401202,-4.0852557,1.1107617,5.1495855\PG=C01 [X(C3
 H6O3)]\NImag=1\\0.66583453,-0.02565264,0.33648679,0.01431213,-0.173918
 99,0.53336059,-0.12484140,-0.04413571,0.03365736,0.66647305,-0.0463601
 1,-0.15865034,0.13807197,0.03608871,0.40966551,0.02910319,0.10312954,-
 0.13696242,-0.01344048,-0.23912572,0.29402673,0.01649813,-0.00298001,0
 .00734629,-0.21305326,0.06130299,-0.06057526,0.61544074,0.00623688,-0.
 03139484,0.01106061,0.04354381,-0.09134538,0.03061246,0.08584375,0.584
 46094,-0.01390256,0.01639702,-0.01234106,-0.03624238,0.03636490,-0.097
 04190,-0.05146031,-0.32310201,0.41916998,-0.07609626,0.01791123,-0.012
 76560,-0.01138457,0.00166810,-0.00068318,0.00272284,-0.00016921,0.0059
 2217,0.44308884,0.04341223,0.00269081,-0.04874784,-0.01476295,-0.04890
 149,0.01115397,0.01142721,-0.00590468,0.00670289,-0.06179231,0.0778400
 3,0.02325134,-0.02672304,-0.11688281,-0.00633123,-0.01902464,0.0003189
 4,-0.00002628,0.01075487,0.00212238,0.20485719,0.06434272,0.32197457,-
 0.00143297,-0.01356342,-0.00751432,0.00669170,0.00197288,-0.00248495,-
 0.00328264,0.00050627,-0.00138354,-0.01512459,0.00911513,0.01237256,0.
 40522993,-0.00523439,-0.02403544,-0.00535794,0.00587947,0.00074699,-0.
 00227545,-0.00965432,0.00410192,-0.00476204,-0.00666514,-0.01755995,0.
 01199862,-0.17657854,0.15642381,-0.00031181,0.00775733,0.00710936,-0.0
 0023468,-0.00388270,0.00477660,-0.00095291,0.00051040,-0.00150633,0.00
 286218,0.00035265,-0.01308832,-0.08538902,0.03064912,0.02384309,-0.002
 98368,0.00515399,-0.00248065,0.02960468,0.01387451,-0.00983537,-0.1427
 8028,-0.10776318,0.08161114,-0.00014803,-0.00312943,-0.00134832,0.0010
 9260,0.00251890,-0.00000528,0.11532961,0.00789283,0.01004758,0.0058824
 1,0.01532990,-0.05502734,0.05271479,-0.12453765,-0.41100933,0.26726612
 ,0.00119250,0.00414205,-0.00382475,-0.00042564,-0.00292115,-0.00078998
 ,0.12556814,0.47019328,-0.00366303,-0.00216411,0.00029846,-0.01357437,
 0.05278500,-0.02221442,0.09443657,0.27063322,-0.26083659,-0.00181916,-
 0.00389134,0.00034859,0.00050879,0.00289670,0.00109975,-0.09505331,-0.
 34125316,0.28270336,-0.00045995,-0.00102857,0.00215896,0.00043605,-0.0
 0213586,-0.00028808,-0.00148331,0.00106060,-0.00122424,0.00620226,-0.0
 0109354,-0.00232546,-0.39254248,0.19191480,0.08096023,0.00017989,-0.00
 079096,0.00085109,0.38825669,-0.00032765,-0.00004419,0.00127841,-0.001
 83528,-0.00031193,0.00048986,0.00039240,-0.00030274,0.00036393,0.00841
 802,-0.00631557,-0.00285311,0.17895449,-0.10547029,-0.03633920,-0.0000
 8778,0.00032517,-0.00020084,-0.18619580,0.11328359,0.00075233,-0.00037
 212,0.00040754,-0.00034466,0.00014915,-0.00009429,0.00027901,-0.000250
 84,0.00024766,-0.00040606,0.00139909,-0.00098984,0.08152640,-0.0393904
 3,-0.01903863,-0.00003307,0.00021166,-0.00023249,-0.08036881,0.0381541
 0,0.01902634,-0.30225590,0.00024844,0.08126479,-0.00579282,-0.00329173
 ,0.00279465,-0.00003615,0.00208325,-0.00234261,0.00373211,-0.00091915,
 0.00052748,-0.00007569,0.00070855,-0.00020305,0.00002087,-0.00056084,0
 .00035753,0.00012876,0.00008751,-0.00007536,0.31680540,-0.00582065,-0.
 04809862,0.00806970,-0.02884157,0.00045314,0.00760934,-0.00191539,0.00
 027572,-0.00234646,0.02267957,-0.00989706,-0.01752771,-0.00001696,0.00
 218243,0.00051606,0.00063989,0.00002289,0.00032520,0.00005053,0.000469
 64,0.00007009,0.00245470,0.05285781,0.07452205,0.00824387,-0.07915964,
 0.01290932,0.00078713,-0.00155270,0.00221203,-0.00042767,-0.00015722,0
 .02158608,-0.01241104,-0.01775478,0.00020182,0.00171458,0.00010409,-0.
 00088262,-0.00053004,0.00046084,-0.00004818,0.00024231,-0.00007564,-0.
 09113636,0.00089028,0.08730902,-0.18066494,0.05821495,-0.12992708,0.01
 028679,-0.00415344,0.00834166,-0.00152740,-0.00013865,0.00061433,0.003
 83283,0.00023842,0.00210127,-0.00008101,-0.00038538,0.00034200,0.00053
 963,-0.00099786,0.00045172,-0.00005329,-0.00005074,-0.00011712,-0.0150
 8941,0.00928739,-0.01998647,0.18073915,0.06339053,-0.07430752,0.072955
 14,0.02106673,-0.00958609,0.01882700,-0.00457978,0.00117519,0.00415748
 ,-0.02048206,-0.00075852,-0.02661773,0.00144974,0.00205979,0.00093531,
 0.00098697,-0.00259406,0.00045766,0.00006656,-0.00014641,-0.00026466,-
 0.00110879,0.00191965,-0.00023884,-0.06239935,0.08367091,-0.12234250,0
 .06524830,-0.17957051,-0.00816742,0.00579292,-0.00609902,0.00258444,0.
 00017710,-0.00025606,-0.01783284,-0.00395672,-0.02415128,0.00065894,0.
 00055003,0.00027360,-0.00073606,0.00031446,-0.00028782,-0.00013981,-0.
 00011534,-0.00011727,0.00677896,-0.00307927,0.01098473,0.13704600,-0.0
 6354136,0.20221753,-0.00067289,-0.00062476,0.00122381,-0.02231042,-0.0
 0506466,0.00340516,-0.25824286,-0.02386748,0.01355956,-0.00011333,-0.0
 0233445,0.00005347,0.00084605,0.00205664,0.00008806,-0.00336109,-0.022
 50552,0.01703385,0.00023853,-0.00006559,-0.00003743,0.00072295,0.00094
 701,-0.00084256,0.00050883,0.00015846,-0.00037331,0.28504183,0.0008757
 9,0.00050173,-0.00091324,0.01618487,0.00903087,0.00392287,-0.02944876,
 -0.05923055,0.00274285,-0.00045411,0.00000420,-0.00100406,0.00028594,0
 .00051040,0.00004046,-0.03644629,-0.01217240,0.02139163,0.00004335,-0.
 00007735,-0.00000948,-0.00024775,-0.00006030,0.00002379,-0.00031065,0.
 00015957,0.00006920,0.04763869,0.06195288,-0.00047216,-0.00077290,0.00
 069581,-0.01502496,0.00310645,0.01108182,0.02157180,0.00375525,-0.0574
 3716,0.00002401,0.00022546,-0.00103109,-0.00005685,-0.00026406,-0.0000
 8027,0.02656013,0.02120955,0.00100057,-0.00008886,-0.00003693,0.000016
 63,0.00064108,-0.00003114,-0.00004220,-0.00001322,-0.00034697,0.000097
 52,-0.03162169,-0.02957936,0.04486493,-0.00163399,0.00183672,0.0006352
 5,-0.33616035,-0.04980645,0.04118506,-0.01730194,-0.00700827,0.0059688
 7,0.00088770,-0.00016128,-0.00035398,0.00006270,0.00049949,-0.00000594
 ,0.00368720,0.00007596,0.00004304,0.00006662,-0.00000980,0.00000202,0.
 00085242,-0.00007733,-0.00008971,0.00067932,-0.00041598,-0.00001007,-0
 .00169872,0.00194018,-0.00179584,0.35073759,-0.02091359,-0.00492392,0.
 00507358,-0.04790910,-0.05187803,0.01755698,0.01811232,0.00850480,-0.0
 0148060,-0.00353560,0.00166515,0.00259005,0.00096828,-0.00025352,-0.00
 053252,-0.00226938,-0.00004767,-0.00234427,-0.00024556,-0.00051489,0.0
 0002630,0.00021886,-0.00177742,0.00138906,0.00036544,0.00026877,-0.000
 30526,0.00221090,-0.00056489,0.00300164,0.05292708,0.04945772,0.021768
 72,-0.00121007,-0.00185017,0.04347727,0.02504173,-0.04717711,-0.016818
 77,-0.00239796,0.00642387,-0.00455115,0.00139933,0.00198401,0.00045970
 ,-0.00095400,-0.00037390,0.00247675,-0.00231590,-0.00104129,-0.0002348
 6,-0.00044660,0.00009239,0.00124316,0.00497278,-0.00051907,-0.00017436
 ,-0.00175986,0.00041735,-0.00214661,0.00335541,0.00059320,-0.04545524,
 -0.02545621,0.04096623,0.00870931,0.00461977,0.01208906,0.00005055,-0.
 00409493,0.00247759,0.00304613,-0.00032778,-0.00112044,-0.35759980,0.0
 2000011,-0.23277804,-0.00138361,-0.00506007,0.00285021,-0.00118140,-0.
 00024084,0.00042728,-0.00096976,0.00072022,-0.00117726,0.00098745,0.00
 061280,0.00155461,0.00082951,0.00186696,0.00253365,-0.00095887,-0.0000
 6126,0.00027656,-0.00017855,0.00007033,-0.00004460,0.34864904,-0.01749
 925,-0.00827204,-0.01345380,-0.00060888,-0.00419593,-0.00461564,-0.003
 96275,0.00066895,-0.00230407,0.04122901,0.00299503,0.00788876,-0.00266
 818,-0.01578499,0.00078307,0.00095368,-0.00095903,0.00136430,-0.001645
 56,-0.00089503,0.00027715,0.00032694,0.00165212,0.00031658,0.00032986,
 -0.00186128,-0.00115404,0.00145077,-0.00005418,-0.00026699,0.00019967,
 0.00006390,-0.00022864,-0.01810531,0.02664247,-0.02301769,0.00438516,-
 0.01510516,0.00331621,-0.00006620,0.00093778,0.00140339,-0.00132542,0.
 00161243,-0.19719365,-0.01656916,-0.15285038,0.00110046,0.00519487,-0.
 00311906,-0.00027334,0.00111485,-0.00129897,0.00074801,-0.00053657,0.0
 0075760,0.00014972,0.00053112,0.00040256,0.00132129,-0.00456316,-0.003
 50878,-0.00034232,-0.00004006,0.00024025,-0.00012346,0.00048125,0.0004
 8450,0.21291138,0.01139333,0.17144722\\0.00000084,0.00000025,-0.000000
 21,0.00000008,0.00000039,-0.00000035,-0.00000048,-0.00000032,-0.000000
 37,-0.00000021,-0.00000029,0.00000019,0.00000004,-0.00000021,0.0000012
 8,-0.00000062,-0.00000044,-0.00000112,0.00000022,0.00000007,0.00000112
 ,0.00000034,0.00000055,0.00000017,0.00000070,0.00000097,0.00000004,-0.
 00000029,-0.00000018,-0.00000006,-0.00000010,0.00000011,-0.00000110,-0
 .00000051,-0.00000092,0.00000041\\\@


 TO ERR IS HUMAN - AND TO BLAME IT ON A COMPUTER IS EVEN MORE SO.
 Job cpu time:       0 days  0 hours  3 minutes 45.1 seconds.
 Elapsed time:       0 days  0 hours  0 minutes 14.3 seconds.
 File lengths (MBytes):  RWF=     27 Int=      0 D2E=      0 Chk=      3 Scr=      1
 Normal termination of Gaussian 16 at Wed Dec 23 22:08:43 2020.
