 Entering Gaussian System, Link 0=g16
 Initial command:
 /apps/cent7/gaussian/g16-B.01/g16-haswell/g16/l1.exe "/scratch/bell/zhao922/YARP/paper-example/KHP-network/pp_0/TS-folder/Gau-105761.inp" -scrdir="/scratch/bell/zhao922/YARP/paper-example/KHP-network/pp_0/TS-folder/"
 Entering Link 1 = /apps/cent7/gaussian/g16-B.01/g16-haswell/g16/l1.exe PID=    105762.
  
 Copyright (c) 1988-2017, Gaussian, Inc.  All Rights Reserved.
  
 This is part of the Gaussian(R) 16 program.  It is based on
 the Gaussian(R) 09 system (copyright 2009, Gaussian, Inc.),
 the Gaussian(R) 03 system (copyright 2003, Gaussian, Inc.),
 the Gaussian(R) 98 system (copyright 1998, Gaussian, Inc.),
 the Gaussian(R) 94 system (copyright 1995, Gaussian, Inc.),
 the Gaussian 92(TM) system (copyright 1992, Gaussian, Inc.),
 the Gaussian 90(TM) system (copyright 1990, Gaussian, Inc.),
 the Gaussian 88(TM) system (copyright 1988, Gaussian, Inc.),
 the Gaussian 86(TM) system (copyright 1986, Carnegie Mellon
 University), and the Gaussian 82(TM) system (copyright 1983,
 Carnegie Mellon University). Gaussian is a federally registered
 trademark of Gaussian, Inc.
  
 This software contains proprietary and confidential information,
 including trade secrets, belonging to Gaussian, Inc.
  
 This software is provided under written license and may be
 used, copied, transmitted, or stored only in accord with that
 written license.
  
 The following legend is applicable only to US Government
 contracts under FAR:
  
                    RESTRICTED RIGHTS LEGEND
  
 Use, reproduction and disclosure by the US Government is
 subject to restrictions as set forth in subparagraphs (a)
 and (c) of the Commercial Computer Software - Restricted
 Rights clause in FAR 52.227-19.
  
 Gaussian, Inc.
 340 Quinnipiac St., Bldg. 40, Wallingford CT 06492
  
  
 ---------------------------------------------------------------
 Warning -- This program may not be used in any manner that
 competes with the business of Gaussian, Inc. or will provide
 assistance to any competitor of Gaussian, Inc.  The licensee
 of this program is prohibited from giving any competitor of
 Gaussian, Inc. access to this program.  By using this program,
 the user acknowledges that Gaussian, Inc. is engaged in the
 business of creating and licensing software in the field of
 computational chemistry and represents and warrants to the
 licensee that it is not a competitor of Gaussian, Inc. and that
 it will not use this program in any manner prohibited above.
 ---------------------------------------------------------------
  

 Cite this work as:
 Gaussian 16, Revision B.01,
 M. J. Frisch, G. W. Trucks, H. B. Schlegel, G. E. Scuseria, 
 M. A. Robb, J. R. Cheeseman, G. Scalmani, V. Barone, 
 G. A. Petersson, H. Nakatsuji, X. Li, M. Caricato, A. V. Marenich, 
 J. Bloino, B. G. Janesko, R. Gomperts, B. Mennucci, H. P. Hratchian, 
 J. V. Ortiz, A. F. Izmaylov, J. L. Sonnenberg, D. Williams-Young, 
 F. Ding, F. Lipparini, F. Egidi, J. Goings, B. Peng, A. Petrone, 
 T. Henderson, D. Ranasinghe, V. G. Zakrzewski, J. Gao, N. Rega, 
 G. Zheng, W. Liang, M. Hada, M. Ehara, K. Toyota, R. Fukuda, 
 J. Hasegawa, M. Ishida, T. Nakajima, Y. Honda, O. Kitao, H. Nakai, 
 T. Vreven, K. Throssell, J. A. Montgomery, Jr., J. E. Peralta, 
 F. Ogliaro, M. J. Bearpark, J. J. Heyd, E. N. Brothers, K. N. Kudin, 
 V. N. Staroverov, T. A. Keith, R. Kobayashi, J. Normand, 
 K. Raghavachari, A. P. Rendell, J. C. Burant, S. S. Iyengar, 
 J. Tomasi, M. Cossi, J. M. Millam, M. Klene, C. Adamo, R. Cammi, 
 J. W. Ochterski, R. L. Martin, K. Morokuma, O. Farkas, 
 J. B. Foresman, and D. J. Fox, Gaussian, Inc., Wallingford CT, 2016.
 
 ******************************************
 Gaussian 16:  ES64L-G16RevB.01 20-Dec-2017
                23-Dec-2020 
 ******************************************
 %NProcShared=16
 Will use up to   16 processors via shared memory.
 %Mem=6GB
 --------------------------------------------------------------
 # B3LYP/6-31+G* OPT=(TS, CALCALL, NOEIGEN, maxcycles=100) Freq
 --------------------------------------------------------------
 1/5=1,6=100,10=4,11=1,18=20,26=3,38=1/1,3;
 2/9=110,12=2,17=6,18=5,40=1/2;
 3/5=1,6=6,7=11,11=2,25=1,30=1,71=2,74=-5,140=1/1,2,3;
 4//1;
 5/5=2,38=5/2;
 8/6=4,10=90,11=11/1;
 11/6=1,8=1,9=11,15=111,16=1/1,2,10;
 10/6=1/2;
 6/7=2,8=2,9=2,10=2,18=1,28=1/1;
 7/10=1,25=1/1,2,3,16;
 1/5=1,6=100,10=4,11=1,18=20,26=3/3(3);
 2/9=110/2;
 7/8=1,9=1,25=1,44=-1/16;
 99//99;
 2/9=110/2;
 3/5=1,6=6,7=11,11=2,25=1,30=1,71=2,74=-5,140=1/1,2,3;
 4/5=5,16=3,69=1/1;
 5/5=2,38=5/2;
 8/6=4,10=90,11=11/1;
 11/6=1,8=1,9=11,15=111,16=1/1,2,10;
 10/6=1/2;
 7/10=1,25=1/1,2,3,16;
 1/5=1,6=100,10=4,11=1,18=20,26=3/3(-8);
 2/9=110/2;
 6/7=2,8=2,9=2,10=2,18=1,19=2,28=1/1;
 7/8=1,9=1,25=1,44=-1/16;
 99//99;
 ----------
 pp_22_0 TS
 ----------
 Symbolic Z-matrix:
 Charge =  0 Multiplicity = 1
 C                     1.20049   1.28187  -2.72993 
 C                     0.07723   0.91886  -1.70601 
 C                     0.81527   0.38189  -0.49175 
 O                     2.38967   1.20368  -2.08686 
 O                     1.65417   2.46817  -0.67659 
 O                     1.90836  -0.10852  -0.53167 
 H                     2.45328   2.69542  -0.19608 
 H                     1.00218   2.30377  -3.09447 
 H                     1.27431   0.59249  -3.58565 
 H                     0.16572   0.05016   0.34208 
 H                    -0.68317   0.21708  -2.04663 
 H                    -0.40325   1.85473  -1.42824 
 
 Add virtual bond connecting atoms O5         and O4         Dist= 3.84D+00.

 GradGradGradGradGradGradGradGradGradGradGradGradGradGradGradGradGradGrad
 Berny optimization.
 Initialization pass.
                           ----------------------------
                           !    Initial Parameters    !
                           ! (Angstroms and Degrees)  !
 --------------------------                            --------------------------
 ! Name  Definition              Value          Derivative Info.                !
 --------------------------------------------------------------------------------
 ! R1    R(1,2)                  1.5626         calculate D2E/DX2 analytically  !
 ! R2    R(1,4)                  1.3542         calculate D2E/DX2 analytically  !
 ! R3    R(1,8)                  1.103          calculate D2E/DX2 analytically  !
 ! R4    R(1,9)                  1.1013         calculate D2E/DX2 analytically  !
 ! R5    R(2,3)                  1.519          calculate D2E/DX2 analytically  !
 ! R6    R(2,11)                 1.0894         calculate D2E/DX2 analytically  !
 ! R7    R(2,12)                 1.0881         calculate D2E/DX2 analytically  !
 ! R8    R(3,6)                  1.1987         calculate D2E/DX2 analytically  !
 ! R9    R(3,10)                 1.1078         calculate D2E/DX2 analytically  !
 ! R10   R(4,5)                  2.0319         calculate D2E/DX2 analytically  !
 ! R11   R(5,7)                  0.9597         calculate D2E/DX2 analytically  !
 ! A1    A(2,1,4)              107.8583         calculate D2E/DX2 analytically  !
 ! A2    A(2,1,8)              107.6113         calculate D2E/DX2 analytically  !
 ! A3    A(2,1,9)              114.3235         calculate D2E/DX2 analytically  !
 ! A4    A(4,1,8)              111.6131         calculate D2E/DX2 analytically  !
 ! A5    A(4,1,9)              105.9005         calculate D2E/DX2 analytically  !
 ! A6    A(8,1,9)              109.5841         calculate D2E/DX2 analytically  !
 ! A7    A(1,2,3)              104.8715         calculate D2E/DX2 analytically  !
 ! A8    A(1,2,11)             116.5205         calculate D2E/DX2 analytically  !
 ! A9    A(1,2,12)             106.5529         calculate D2E/DX2 analytically  !
 ! A10   A(3,2,11)             111.1831         calculate D2E/DX2 analytically  !
 ! A11   A(3,2,12)             108.3328         calculate D2E/DX2 analytically  !
 ! A12   A(11,2,12)            109.0068         calculate D2E/DX2 analytically  !
 ! A13   A(2,3,6)              124.1283         calculate D2E/DX2 analytically  !
 ! A14   A(2,3,10)             115.0015         calculate D2E/DX2 analytically  !
 ! A15   A(6,3,10)             115.9273         calculate D2E/DX2 analytically  !
 ! A16   A(1,4,5)               88.6127         calculate D2E/DX2 analytically  !
 ! A17   A(4,5,7)              101.1542         calculate D2E/DX2 analytically  !
 ! D1    D(4,1,2,3)            -10.2088         calculate D2E/DX2 analytically  !
 ! D2    D(4,1,2,11)          -133.6002         calculate D2E/DX2 analytically  !
 ! D3    D(4,1,2,12)           104.5268         calculate D2E/DX2 analytically  !
 ! D4    D(8,1,2,3)           -130.7585         calculate D2E/DX2 analytically  !
 ! D5    D(8,1,2,11)           105.85           calculate D2E/DX2 analytically  !
 ! D6    D(8,1,2,12)           -16.0229         calculate D2E/DX2 analytically  !
 ! D7    D(9,1,2,3)            107.2756         calculate D2E/DX2 analytically  !
 ! D8    D(9,1,2,11)           -16.1159         calculate D2E/DX2 analytically  !
 ! D9    D(9,1,2,12)          -137.9888         calculate D2E/DX2 analytically  !
 ! D10   D(2,1,4,5)            -53.7259         calculate D2E/DX2 analytically  !
 ! D11   D(8,1,4,5)             64.2799         calculate D2E/DX2 analytically  !
 ! D12   D(9,1,4,5)           -176.5277         calculate D2E/DX2 analytically  !
 ! D13   D(1,2,3,6)            -24.8044         calculate D2E/DX2 analytically  !
 ! D14   D(1,2,3,10)          -178.8153         calculate D2E/DX2 analytically  !
 ! D15   D(11,2,3,6)           101.9496         calculate D2E/DX2 analytically  !
 ! D16   D(11,2,3,10)          -52.0613         calculate D2E/DX2 analytically  !
 ! D17   D(12,2,3,6)          -138.2904         calculate D2E/DX2 analytically  !
 ! D18   D(12,2,3,10)           67.6988         calculate D2E/DX2 analytically  !
 ! D19   D(1,4,5,7)           -168.1573         calculate D2E/DX2 analytically  !
 --------------------------------------------------------------------------------
 Trust Radius=3.00D-01 FncErr=1.00D-07 GrdErr=1.00D-06 EigMax=2.50D+02 EigMin=1.00D-04
 Number of steps in this run=    100 maximum allowed number of steps=    100.
 Search for a saddle point of order  1.
 GradGradGradGradGradGradGradGradGradGradGradGradGradGradGradGradGradGrad

                          Input orientation:                          
 ---------------------------------------------------------------------
 Center     Atomic      Atomic             Coordinates (Angstroms)
 Number     Number       Type             X           Y           Z
 ---------------------------------------------------------------------
      1          6           0        1.200488    1.281868   -2.729926
      2          6           0        0.077234    0.918863   -1.706011
      3          6           0        0.815272    0.381885   -0.491753
      4          8           0        2.389671    1.203684   -2.086865
      5          8           0        1.654169    2.468172   -0.676590
      6          8           0        1.908364   -0.108520   -0.531666
      7          1           0        2.453279    2.695418   -0.196079
      8          1           0        1.002179    2.303770   -3.094469
      9          1           0        1.274310    0.592492   -3.585652
     10          1           0        0.165721    0.050161    0.342076
     11          1           0       -0.683171    0.217075   -2.046630
     12          1           0       -0.403250    1.854726   -1.428236
 ---------------------------------------------------------------------
                    Distance matrix (angstroms):
                    1          2          3          4          5
     1  C    0.000000
     2  C    1.562650   0.000000
     3  C    2.442904   1.519035   0.000000
     4  O    1.354177   2.360834   2.387146   0.000000
     5  O    2.414401   2.438604   2.256215   2.031937   0.000000
     6  O    2.695666   2.405751   1.198724   2.090976   2.593253
     7  H    3.160378   3.328909   2.850075   2.409230   0.959744
     8  H    1.102951   2.168250   3.240788   2.037299   2.509633
     9  H    1.101343   2.252234   3.134850   1.965693   3.482113
    10  H    3.467714   2.226462   1.107803   3.489459   3.016610
    11  H    2.269107   1.089378   2.165672   3.227596   3.522443
    12  H    2.143488   1.088055   2.128628   2.942457   2.274700
                    6          7          8          9         10
     6  O    0.000000
     7  H    2.876042   0.000000
     8  H    3.634319   3.264926   0.000000
     9  H    3.196916   4.159504   1.801052   0.000000
    10  H    1.955865   3.538349   4.193836   4.117055   0.000000
    11  H    3.019467   4.405002   2.879699   2.518186   2.540550
    12  H    3.162551   3.222535   2.225579   3.010297   2.591175
                   11         12
    11  H    0.000000
    12  H    1.772757   0.000000
 Stoichiometry    C3H6O3
 Framework group  C1[X(C3H6O3)]
 Deg. of freedom    30
 Full point group                 C1      NOp   1
 Largest Abelian subgroup         C1      NOp   1
 Largest concise Abelian subgroup C1      NOp   1
                         Standard orientation:                         
 ---------------------------------------------------------------------
 Center     Atomic      Atomic             Coordinates (Angstroms)
 Number     Number       Type             X           Y           Z
 ---------------------------------------------------------------------
      1          6           0       -1.200266   -0.625950   -0.257576
      2          6           0       -0.034764   -1.135112    0.650297
      3          6           0        1.173434   -0.316125    0.229598
      4          8           0       -0.770034    0.484790   -0.901744
      5          8           0       -0.274112    1.278655    0.901755
      6          8           0        1.299545    0.191095   -0.849181
      7          1           0       -0.107127    2.192988    0.662546
      8          1           0       -2.061763   -0.408561    0.395927
      9          1           0       -1.503733   -1.333173   -1.045421
     10          1           0        2.113231   -0.560165    0.762940
     11          1           0        0.180592   -2.202324    0.612556
     12          1           0       -0.294822   -0.861964    1.670897
 ---------------------------------------------------------------------
 Rotational constants (GHZ):           4.4435631           3.8228874           3.4305225
 Standard basis: 6-31+G(d) (6D, 7F)
 There are   126 symmetry adapted cartesian basis functions of A   symmetry.
 There are   126 symmetry adapted basis functions of A   symmetry.
   126 basis functions,   216 primitive gaussians,   126 cartesian basis functions
    24 alpha electrons       24 beta electrons
       nuclear repulsion energy       255.9443982201 Hartrees.
 NAtoms=   12 NActive=   12 NUniq=   12 SFac= 1.00D+00 NAtFMM=   60 NAOKFM=F Big=F
 Integral buffers will be    131072 words long.
 Raffenetti 2 integral format.
 Two-electron integral symmetry is turned on.
 One-electron integrals computed using PRISM.
 NBasis=   126 RedAO= T EigKep=  9.10D-05  NBF=   126
 NBsUse=   126 1.00D-06 EigRej= -1.00D+00 NBFU=   126
 ExpMin= 4.38D-02 ExpMax= 5.48D+03 ExpMxC= 8.25D+02 IAcc=3 IRadAn=         5 AccDes= 0.00D+00
 Harris functional with IExCor=  402 and IRadAn=       5 diagonalized for initial guess.
 HarFok:  IExCor=  402 AccDes= 0.00D+00 IRadAn=         5 IDoV= 1 UseB2=F ITyADJ=14
 ICtDFT=  3500011 ScaDFX=  1.000000  1.000000  1.000000  1.000000
 FoFCou: FMM=F IPFlag=           0 FMFlag=      100000 FMFlg1=           0
         NFxFlg=           0 DoJE=T BraDBF=F KetDBF=T FulRan=T
         wScrn=  0.000000 ICntrl=       500 IOpCl=  0 I1Cent=   200000004 NGrid=           0
         NMat0=    1 NMatS0=      1 NMatT0=    0 NMatD0=    1 NMtDS0=    0 NMtDT0=    0
 Petite list used in FoFCou.
 Keep R1 ints in memory in canonical form, NReq=47237537.
 Requested convergence on RMS density matrix=1.00D-08 within 128 cycles.
 Requested convergence on MAX density matrix=1.00D-06.
 Requested convergence on             energy=1.00D-06.
 No special actions if energy rises.
 EnCoef did     2 forward-backward iterations
 EnCoef did     1 forward-backward iterations
 SCF Done:  E(RB3LYP) =  -343.371616845     A.U. after   17 cycles
            NFock= 17  Conv=0.27D-08     -V/T= 2.0083
 DoSCS=F DFT=T ScalE2(SS,OS)=  1.000000  1.000000
 Range of M.O.s used for correlation:     1   126
 NBasis=   126 NAE=    24 NBE=    24 NFC=     0 NFV=     0
 NROrb=    126 NOA=    24 NOB=    24 NVA=   102 NVB=   102

 **** Warning!!: The largest alpha MO coefficient is  0.29442885D+02


 **** Warning!!: The smallest alpha delta epsilon is  0.54154819D-01

 Symmetrizing basis deriv contribution to polar:
 IMax=3 JMax=2 DiffMx= 0.00D+00
 G2DrvN: will do    13 centers at a time, making    1 passes.
 Calling FoFCou, ICntrl=  3107 FMM=F I1Cent=   0 AccDes= 0.00D+00.
 End of G2Drv F.D. properties file   721 does not exist.
 End of G2Drv F.D. properties file   722 does not exist.
 End of G2Drv F.D. properties file   788 does not exist.
          IDoAtm=111111111111
          Differentiating once with respect to electric field.
                with respect to dipole field.
          Differentiating once with respect to nuclear coordinates.
 Keep R1 ints in memory in canonical form, NReq=47193552.
          There are    39 degrees of freedom in the 1st order CPHF.  IDoFFX=6 NUNeed=     3.
     36 vectors produced by pass  0 Test12= 6.28D-15 2.56D-09 XBig12= 2.41D+02 1.33D+01.
 AX will form    36 AO Fock derivatives at one time.
     36 vectors produced by pass  1 Test12= 6.28D-15 2.56D-09 XBig12= 8.96D+01 2.16D+00.
     36 vectors produced by pass  2 Test12= 6.28D-15 2.56D-09 XBig12= 1.55D+00 2.09D-01.
     36 vectors produced by pass  3 Test12= 6.28D-15 2.56D-09 XBig12= 8.49D-03 2.06D-02.
     36 vectors produced by pass  4 Test12= 6.28D-15 2.56D-09 XBig12= 1.31D-05 7.06D-04.
     28 vectors produced by pass  5 Test12= 6.28D-15 2.56D-09 XBig12= 1.32D-08 1.85D-05.
      3 vectors produced by pass  6 Test12= 6.28D-15 2.56D-09 XBig12= 1.15D-11 5.83D-07.
      3 vectors produced by pass  7 Test12= 6.28D-15 2.56D-09 XBig12= 1.11D-14 1.44D-08.
 InvSVY:  IOpt=1 It=  1 EMax= 2.66D-15
 Solved reduced A of dimension   214 with    39 vectors.
 Isotropic polarizability for W=    0.000000       63.61 Bohr**3.
 End of Minotr F.D. properties file   721 does not exist.
 End of Minotr F.D. properties file   722 does not exist.
 End of Minotr F.D. properties file   788 does not exist.

 **********************************************************************

            Population analysis using the SCF Density.

 **********************************************************************

 Orbital symmetries:
       Occupied  (A) (A) (A) (A) (A) (A) (A) (A) (A) (A) (A) (A)
                 (A) (A) (A) (A) (A) (A) (A) (A) (A) (A) (A) (A)
       Virtual   (A) (A) (A) (A) (A) (A) (A) (A) (A) (A) (A) (A)
                 (A) (A) (A) (A) (A) (A) (A) (A) (A) (A) (A) (A)
                 (A) (A) (A) (A) (A) (A) (A) (A) (A) (A) (A) (A)
                 (A) (A) (A) (A) (A) (A) (A) (A) (A) (A) (A) (A)
                 (A) (A) (A) (A) (A) (A) (A) (A) (A) (A) (A) (A)
                 (A) (A) (A) (A) (A) (A) (A) (A) (A) (A) (A) (A)
                 (A) (A) (A) (A) (A) (A) (A) (A) (A) (A) (A) (A)
                 (A) (A) (A) (A) (A) (A) (A) (A) (A) (A) (A) (A)
                 (A) (A) (A) (A) (A) (A)
 The electronic state is 1-A.
 Alpha  occ. eigenvalues --  -19.21500 -19.18285 -19.16880 -10.29913 -10.25588
 Alpha  occ. eigenvalues --  -10.21864  -1.08861  -1.03009  -0.96002  -0.78448
 Alpha  occ. eigenvalues --   -0.65275  -0.58529  -0.52964  -0.51461  -0.45454
 Alpha  occ. eigenvalues --   -0.44467  -0.43248  -0.42382  -0.41724  -0.38774
 Alpha  occ. eigenvalues --   -0.32455  -0.31555  -0.29742  -0.22660
 Alpha virt. eigenvalues --   -0.17245  -0.03445   0.00392   0.02072   0.02840
 Alpha virt. eigenvalues --    0.03317   0.05303   0.06160   0.07279   0.08107
 Alpha virt. eigenvalues --    0.09174   0.11645   0.12719   0.13928   0.15206
 Alpha virt. eigenvalues --    0.17448   0.18957   0.19882   0.21000   0.22449
 Alpha virt. eigenvalues --    0.23042   0.25666   0.26658   0.27557   0.28207
 Alpha virt. eigenvalues --    0.28914   0.29178   0.29568   0.31541   0.32732
 Alpha virt. eigenvalues --    0.34125   0.36326   0.37426   0.42142   0.44760
 Alpha virt. eigenvalues --    0.47634   0.64236   0.65362   0.66629   0.68156
 Alpha virt. eigenvalues --    0.70194   0.76000   0.79238   0.80800   0.89265
 Alpha virt. eigenvalues --    0.93301   0.94794   0.96254   1.01742   1.04638
 Alpha virt. eigenvalues --    1.07422   1.09821   1.10931   1.14105   1.18437
 Alpha virt. eigenvalues --    1.20199   1.23514   1.26373   1.28252   1.29497
 Alpha virt. eigenvalues --    1.36781   1.37118   1.42184   1.46246   1.49127
 Alpha virt. eigenvalues --    1.54282   1.58056   1.60592   1.71379   1.72965
 Alpha virt. eigenvalues --    1.75962   1.77823   1.81017   1.83170   1.86683
 Alpha virt. eigenvalues --    1.92253   1.93259   2.01575   2.05151   2.09834
 Alpha virt. eigenvalues --    2.17330   2.21065   2.26158   2.28670   2.35728
 Alpha virt. eigenvalues --    2.38148   2.42789   2.47606   2.52225   2.53971
 Alpha virt. eigenvalues --    2.61722   2.67456   2.73243   2.89926   2.91922
 Alpha virt. eigenvalues --    3.08341   4.09792   4.25173   4.31417   4.32007
 Alpha virt. eigenvalues --    4.42726   4.56160
          Condensed to atoms (all electrons):
               1          2          3          4          5          6
     1  C    5.367354  -0.146066   0.006305   0.188244  -0.082074   0.073464
     2  C   -0.146066   6.626748  -0.150789  -0.087519  -0.032181  -0.189791
     3  C    0.006305  -0.150789   5.098168   0.039633  -0.001047   0.449194
     4  O    0.188244  -0.087519   0.039633   8.157110   0.083681  -0.153784
     5  O   -0.082074  -0.032181  -0.001047   0.083681   8.666285  -0.091503
     6  O    0.073464  -0.189791   0.449194  -0.153784  -0.091503   8.225553
     7  H    0.001719   0.016240  -0.008965  -0.003226   0.171608   0.001813
     8  H    0.434169  -0.108740   0.014179  -0.054776   0.003552  -0.004672
     9  H    0.363079   0.006808  -0.022122  -0.055007   0.008897   0.006828
    10  H    0.035950  -0.161445   0.407777   0.001926  -0.007496  -0.063067
    11  H   -0.006689   0.335208  -0.025300   0.004751   0.005696  -0.002509
    12  H   -0.056820   0.395591  -0.023624   0.001874  -0.016484   0.006403
               7          8          9         10         11         12
     1  C    0.001719   0.434169   0.363079   0.035950  -0.006689  -0.056820
     2  C    0.016240  -0.108740   0.006808  -0.161445   0.335208   0.395591
     3  C   -0.008965   0.014179  -0.022122   0.407777  -0.025300  -0.023624
     4  O   -0.003226  -0.054776  -0.055007   0.001926   0.004751   0.001874
     5  O    0.171608   0.003552   0.008897  -0.007496   0.005696  -0.016484
     6  O    0.001813  -0.004672   0.006828  -0.063067  -0.002509   0.006403
     7  H    0.325696  -0.000067  -0.000103   0.000140  -0.000099   0.000501
     8  H   -0.000067   0.570908  -0.043882  -0.000224   0.003532  -0.007738
     9  H   -0.000103  -0.043882   0.523795   0.000065  -0.004648   0.002905
    10  H    0.000140  -0.000224   0.000065   0.612281   0.000392   0.003328
    11  H   -0.000099   0.003532  -0.004648   0.000392   0.492557  -0.028160
    12  H    0.000501  -0.007738   0.002905   0.003328  -0.028160   0.463878
 Mulliken charges:
               1
     1  C   -0.178636
     2  C   -0.504063
     3  C    0.216590
     4  O   -0.122907
     5  O   -0.708934
     6  O   -0.257930
     7  H    0.494744
     8  H    0.193760
     9  H    0.213386
    10  H    0.170374
    11  H    0.225269
    12  H    0.258346
 Sum of Mulliken charges =  -0.00000
 Mulliken charges with hydrogens summed into heavy atoms:
               1
     1  C    0.228511
     2  C   -0.020448
     3  C    0.386964
     4  O   -0.122907
     5  O   -0.214190
     6  O   -0.257930
 APT charges:
               1
     1  C    0.202787
     2  C   -0.032660
     3  C    0.513945
     4  O    0.144625
     5  O   -0.398326
     6  O   -0.766761
     7  H    0.256625
     8  H   -0.047859
     9  H    0.070924
    10  H   -0.024963
    11  H    0.029457
    12  H    0.052206
 Sum of APT charges =  -0.00000
 APT charges with hydrogens summed into heavy atoms:
               1
     1  C    0.225853
     2  C    0.049003
     3  C    0.488982
     4  O    0.144625
     5  O   -0.141701
     6  O   -0.766761
 Electronic spatial extent (au):  <R**2>=            481.0622
 Charge=             -0.0000 electrons
 Dipole moment (field-independent basis, Debye):
    X=             -0.1788    Y=             -2.2214    Z=              1.6174  Tot=              2.7537
 Quadrupole moment (field-independent basis, Debye-Ang):
   XX=            -35.8024   YY=            -30.1313   ZZ=            -38.6399
   XY=              1.1854   XZ=              3.2103   YZ=              0.6690
 Traceless Quadrupole moment (field-independent basis, Debye-Ang):
   XX=             -0.9445   YY=              4.7265   ZZ=             -3.7820
   XY=              1.1854   XZ=              3.2103   YZ=              0.6690
 Octapole moment (field-independent basis, Debye-Ang**2):
  XXX=             -0.0382  YYY=             16.9068  ZZZ=             -2.9715  XYY=              1.5964
  XXY=             -3.4803  XXZ=              2.1355  XZZ=             -1.7351  YZZ=             -1.6098
  YYZ=              0.5456  XYZ=             -0.5757
 Hexadecapole moment (field-independent basis, Debye-Ang**3):
 XXXX=           -246.3928 YYYY=           -158.6064 ZZZZ=           -155.9681 XXXY=             -2.0454
 XXXZ=              7.0948 YYYX=              0.0685 YYYZ=             10.0739 ZZZX=              0.8629
 ZZZY=              1.4794 XXYY=            -77.2789 XXZZ=            -70.3765 YYZZ=            -60.4099
 XXYZ=              2.2798 YYXZ=              1.8564 ZZXY=              2.8059
 N-N= 2.559443982201D+02 E-N=-1.317143543397D+03  KE= 3.405603360336D+02
  Exact polarizability:  71.880  -6.112  63.498   2.429   6.181  55.438
 Approx polarizability: 119.133 -17.389 110.881  -2.826  35.592 129.880
 Calling FoFJK, ICntrl=    100127 FMM=F ISym2X=0 I1Cent= 0 IOpClX= 0 NMat=1 NMatS=1 NMatT=0.
 ***** Axes restored to original set *****
 -------------------------------------------------------------------
 Center     Atomic                   Forces (Hartrees/Bohr)
 Number     Number              X              Y              Z
 -------------------------------------------------------------------
      1        6          -0.017571686    0.013885775   -0.003936648
      2        6           0.008935364    0.006208803   -0.004341397
      3        6          -0.035167276   -0.038268397   -0.004980545
      4        8           0.022475342    0.057167301   -0.013991998
      5        8           0.005550294   -0.008311091   -0.018347944
      6        8           0.011371013   -0.029297003    0.034439450
      7        1           0.017904544   -0.000576064    0.004665419
      8        1           0.001393891   -0.002479717   -0.004454339
      9        1          -0.001811990   -0.007713879    0.001308144
     10        1          -0.004401469    0.016778654    0.009580634
     11        1          -0.000488792   -0.006149031   -0.000549715
     12        1          -0.008189234   -0.001245351    0.000608938
 -------------------------------------------------------------------
 Cartesian Forces:  Max     0.057167301 RMS     0.017396268
 FormGI is forming the generalized inverse of G from B-inverse, IUseBI=4.

 GradGradGradGradGradGradGradGradGradGradGradGradGradGradGradGradGradGrad
 Berny optimization.
 Internal  Forces:  Max     0.161430760 RMS     0.041729690
 Search for a saddle point.
 Step number   1 out of a maximum of  100
 All quantities printed in internal units (Hartrees-Bohrs-Radians)
 Swapping is turned off.
 Second derivative matrix not updated -- analytic derivatives used.
 ITU=  0
     Eigenvalues ---   -0.22462  -0.03704  -0.00920   0.01453   0.03362
     Eigenvalues ---    0.04206   0.05138   0.05350   0.06216   0.06324
     Eigenvalues ---    0.07214   0.07690   0.09849   0.10380   0.14400
     Eigenvalues ---    0.19106   0.23948   0.24680   0.28204   0.30396
     Eigenvalues ---    0.31074   0.31942   0.32851   0.35101   0.35749
     Eigenvalues ---    0.39982   0.55846   0.83835   0.92076   1.32402
 Eigenvectors required to have negative eigenvalues:
                          R10       D10       D12       A7        A16
   1                   -0.78166  -0.26065  -0.25418   0.19536   0.15805
                          D4        D1        A10       D7        D11
   1                   -0.15578  -0.15555  -0.15392  -0.14499  -0.12010
 RFO step:  Lambda0=5.107758423D-02 Lambda=-6.45380739D-02.
 Linear search not attempted -- option 19 set.
 Maximum step size (   0.300) exceeded in Quadratic search.
    -- Step size scaled by   0.777
 Iteration  1 RMS(Cart)=  0.15874605 RMS(Int)=  0.03621782
 Iteration  2 RMS(Cart)=  0.04007422 RMS(Int)=  0.00206238
 Iteration  3 RMS(Cart)=  0.00207201 RMS(Int)=  0.00061201
 Iteration  4 RMS(Cart)=  0.00000584 RMS(Int)=  0.00061199
 Iteration  5 RMS(Cart)=  0.00000000 RMS(Int)=  0.00061199
 Variable       Old X    -DE/DX   Delta X   Delta X   Delta X     New X
                                 (Linear)    (Quad)   (Total)
    R1        2.95298   0.05493   0.00000   0.02586   0.02586   2.97884
    R2        2.55902   0.02440   0.00000   0.01924   0.01924   2.57827
    R3        2.08428  -0.00108   0.00000  -0.00480  -0.00480   2.07947
    R4        2.08124   0.00369   0.00000   0.00801   0.00801   2.08925
    R5        2.87056   0.03546   0.00000  -0.01107  -0.01107   2.85949
    R6        2.05863   0.00447   0.00000   0.00562   0.00562   2.06424
    R7        2.05613   0.00270   0.00000   0.00695   0.00695   2.06308
    R8        2.26526   0.02121   0.00000   0.03793   0.03793   2.30319
    R9        2.09344   0.00477   0.00000  -0.00310  -0.00310   2.09034
   R10        3.83980  -0.02352   0.00000   0.23801   0.23801   4.07782
   R11        1.81365   0.01711   0.00000   0.02039   0.02039   1.83404
    A1        1.88248   0.13339   0.00000   0.06149   0.06216   1.94464
    A2        1.87817  -0.01768   0.00000  -0.04178  -0.04216   1.83602
    A3        1.99532  -0.04388   0.00000  -0.04773  -0.04820   1.94712
    A4        1.94802  -0.04811   0.00000  -0.01155  -0.01077   1.93725
    A5        1.84831  -0.03719   0.00000   0.00308   0.00395   1.85226
    A6        1.91260   0.01312   0.00000   0.03737   0.03611   1.94872
    A7        1.83035   0.16143   0.00000  -0.01538  -0.01592   1.81443
    A8        2.03367  -0.03836   0.00000   0.05453   0.05474   2.08840
    A9        1.85970  -0.04156   0.00000  -0.05273  -0.05260   1.80710
   A10        1.94051  -0.07109   0.00000   0.00512   0.00473   1.94524
   A11        1.89076  -0.02964   0.00000   0.00613   0.00514   1.89590
   A12        1.90253   0.02157   0.00000  -0.00203  -0.00133   1.90120
   A13        2.16645   0.06271   0.00000  -0.06341  -0.06494   2.10151
   A14        2.00715  -0.02960   0.00000   0.02374   0.02220   2.02935
   A15        2.02331  -0.02622   0.00000   0.00042  -0.00136   2.02195
   A16        1.54658   0.06649   0.00000   0.03481   0.03481   1.58140
   A17        1.76547  -0.01278   0.00000  -0.05514  -0.05514   1.71033
    D1       -0.17818  -0.01444   0.00000   0.08392   0.08378  -0.09440
    D2       -2.33176  -0.02256   0.00000   0.05392   0.05369  -2.27808
    D3        1.82434   0.00687   0.00000   0.06128   0.06183   1.88616
    D4       -2.28217  -0.02179   0.00000   0.08676   0.08714  -2.19502
    D5        1.84743  -0.02992   0.00000   0.05675   0.05705   1.90448
    D6       -0.27965  -0.00049   0.00000   0.06412   0.06519  -0.21446
    D7        1.87231   0.00315   0.00000   0.10084   0.10001   1.97232
    D8       -0.28127  -0.00498   0.00000   0.07084   0.06991  -0.21136
    D9       -2.40836   0.02445   0.00000   0.07821   0.07805  -2.33031
   D10       -0.93769  -0.02238   0.00000   0.14735   0.14762  -0.79008
   D11        1.12190   0.01107   0.00000   0.12787   0.12800   1.24989
   D12       -3.08099  -0.02224   0.00000   0.16853   0.16814  -2.91285
   D13       -0.43292  -0.00772   0.00000  -0.35906  -0.35877  -0.79169
   D14       -3.12092  -0.01580   0.00000  -0.26400  -0.26424   2.89803
   D15        1.77936   0.01071   0.00000  -0.29880  -0.29857   1.48078
   D16       -0.90864   0.00263   0.00000  -0.20374  -0.20405  -1.11269
   D17       -2.41362  -0.02448   0.00000  -0.29432  -0.29403  -2.70765
   D18        1.18157  -0.03256   0.00000  -0.19926  -0.19950   0.98206
   D19       -2.93490  -0.00112   0.00000  -0.13997  -0.13997  -3.07487
         Item               Value     Threshold  Converged?
 Maximum Force            0.161431     0.000450     NO 
 RMS     Force            0.041730     0.000300     NO 
 Maximum Displacement     0.681022     0.001800     NO 
 RMS     Displacement     0.173275     0.001200     NO 
 Predicted change in Energy=-1.463600D-02
 GradGradGradGradGradGradGradGradGradGradGradGradGradGradGradGradGradGrad

                          Input orientation:                          
 ---------------------------------------------------------------------
 Center     Atomic      Atomic             Coordinates (Angstroms)
 Number     Number       Type             X           Y           Z
 ---------------------------------------------------------------------
      1          6           0        1.196129    1.298844   -2.783144
      2          6           0        0.080908    0.874533   -1.753062
      3          6           0        0.855806    0.511332   -0.505135
      4          8           0        2.430209    1.318086   -2.201633
      5          8           0        1.631571    2.357500   -0.487493
      6          8           0        1.854367   -0.183522   -0.579406
      7          1           0        2.465254    2.487301   -0.007851
      8          1           0        0.905689    2.303640   -3.125094
      9          1           0        1.264396    0.585343   -3.624909
     10          1           0        0.266215    0.410542    0.425358
     11          1           0       -0.633523    0.092974   -2.021359
     12          1           0       -0.462755    1.803022   -1.568072
 ---------------------------------------------------------------------
                    Distance matrix (angstroms):
                    1          2          3          4          5
     1  C    0.000000
     2  C    1.576334   0.000000
     3  C    2.434199   1.513177   0.000000
     4  O    1.364361   2.432524   2.451062   0.000000
     5  O    2.565225   2.491066   2.002613   2.157888   0.000000
     6  O    2.736265   2.375312   1.218795   2.284303   2.552426
     7  H    3.274960   3.366287   2.596549   2.486156   0.970533
     8  H    1.100409   2.145946   3.174751   2.036728   2.736191
     9  H    1.105582   2.233403   3.147287   1.980341   3.621980
    10  H    3.456632   2.234980   1.106161   3.522440   2.547182
    11  H    2.319927   1.092351   2.166117   3.304520   3.551264
    12  H    2.117190   1.091733   2.130000   3.000967   2.421012
                    6          7          8          9         10
     6  O    0.000000
     7  H    2.798777   0.000000
     8  H    3.683271   3.490441   0.000000
     9  H    3.195984   4.259415   1.825110   0.000000
    10  H    1.970961   3.055547   4.074120   4.175115   0.000000
    11  H    2.888819   4.403344   2.911090   2.532962   2.626176
    12  H    3.208250   3.387590   2.132504   2.948961   2.538535
                   11         12
    11  H    0.000000
    12  H    1.777328   0.000000
 Stoichiometry    C3H6O3
 Framework group  C1[X(C3H6O3)]
 Deg. of freedom    30
 Full point group                 C1      NOp   1
 Largest Abelian subgroup         C1      NOp   1
 Largest concise Abelian subgroup C1      NOp   1
                         Standard orientation:                         
 ---------------------------------------------------------------------
 Center     Atomic      Atomic             Coordinates (Angstroms)
 Number     Number       Type             X           Y           Z
 ---------------------------------------------------------------------
      1          6           0       -1.404927   -0.232199   -0.062179
      2          6           0       -0.306367   -1.102728    0.659051
      3          6           0        1.000774   -0.541972    0.142679
      4          8           0       -0.843348    0.777486   -0.787883
      5          8           0        0.474279    1.254896    0.852977
      6          8           0        1.147309   -0.312930   -1.045399
      7          1           0        0.901627    2.033093    0.460909
      8          1           0       -2.034116    0.166969    0.747565
      9          1           0       -1.994599   -0.833810   -0.778183
     10          1           0        1.912978   -0.840926    0.692318
     11          1           0       -0.336268   -2.191204    0.572118
     12          1           0       -0.412426   -0.828339    1.710404
 ---------------------------------------------------------------------
 Rotational constants (GHZ):           4.3775875           3.7275188           3.3202650
 Standard basis: 6-31+G(d) (6D, 7F)
 There are   126 symmetry adapted cartesian basis functions of A   symmetry.
 There are   126 symmetry adapted basis functions of A   symmetry.
   126 basis functions,   216 primitive gaussians,   126 cartesian basis functions
    24 alpha electrons       24 beta electrons
       nuclear repulsion energy       253.1747613880 Hartrees.
 NAtoms=   12 NActive=   12 NUniq=   12 SFac= 1.00D+00 NAtFMM=   60 NAOKFM=F Big=F
 Integral buffers will be    131072 words long.
 Raffenetti 2 integral format.
 Two-electron integral symmetry is turned on.
 One-electron integrals computed using PRISM.
 NBasis=   126 RedAO= T EigKep=  9.26D-05  NBF=   126
 NBsUse=   126 1.00D-06 EigRej= -1.00D+00 NBFU=   126
 Initial guess from the checkpoint file:  "/scratch/bell/zhao922/YARP/paper-example/KHP-network/pp_0/TS-folder/Gau-105762.chk"
 B after Tr=     0.000000    0.000000    0.000000
         Rot=    0.982318    0.012603   -0.084344    0.166670 Ang=  21.58 deg.
 ExpMin= 4.38D-02 ExpMax= 5.48D+03 ExpMxC= 8.25D+02 IAcc=3 IRadAn=         5 AccDes= 0.00D+00
 Harris functional with IExCor=  402 and IRadAn=       5 diagonalized for initial guess.
 HarFok:  IExCor=  402 AccDes= 0.00D+00 IRadAn=         5 IDoV= 1 UseB2=F ITyADJ=14
 ICtDFT=  3500011 ScaDFX=  1.000000  1.000000  1.000000  1.000000
 FoFCou: FMM=F IPFlag=           0 FMFlag=      100000 FMFlg1=           0
         NFxFlg=           0 DoJE=T BraDBF=F KetDBF=T FulRan=T
         wScrn=  0.000000 ICntrl=       500 IOpCl=  0 I1Cent=   200000004 NGrid=           0
         NMat0=    1 NMatS0=      1 NMatT0=    0 NMatD0=    1 NMtDS0=    0 NMtDT0=    0
 Petite list used in FoFCou.
 Keep R1 ints in memory in canonical form, NReq=47237537.
 Requested convergence on RMS density matrix=1.00D-08 within 128 cycles.
 Requested convergence on MAX density matrix=1.00D-06.
 Requested convergence on             energy=1.00D-06.
 No special actions if energy rises.
 SCF Done:  E(RB3LYP) =  -343.384217077     A.U. after   17 cycles
            NFock= 17  Conv=0.98D-08     -V/T= 2.0090
 DoSCS=F DFT=T ScalE2(SS,OS)=  1.000000  1.000000
 Range of M.O.s used for correlation:     1   126
 NBasis=   126 NAE=    24 NBE=    24 NFC=     0 NFV=     0
 NROrb=    126 NOA=    24 NOB=    24 NVA=   102 NVB=   102

 **** Warning!!: The largest alpha MO coefficient is  0.28364664D+02


 **** Warning!!: The smallest alpha delta epsilon is  0.57657264D-01

 Symmetrizing basis deriv contribution to polar:
 IMax=3 JMax=2 DiffMx= 0.00D+00
 G2DrvN: will do    13 centers at a time, making    1 passes.
 Calling FoFCou, ICntrl=  3107 FMM=F I1Cent=   0 AccDes= 0.00D+00.
 End of G2Drv F.D. properties file   721 does not exist.
 End of G2Drv F.D. properties file   722 does not exist.
 End of G2Drv F.D. properties file   788 does not exist.
          IDoAtm=111111111111
          Differentiating once with respect to electric field.
                with respect to dipole field.
          Differentiating once with respect to nuclear coordinates.
 Keep R1 ints in memory in canonical form, NReq=47193552.
          There are    39 degrees of freedom in the 1st order CPHF.  IDoFFX=6 NUNeed=     3.
     36 vectors produced by pass  0 Test12= 6.28D-15 2.56D-09 XBig12= 2.66D+02 1.09D+01.
 AX will form    36 AO Fock derivatives at one time.
     36 vectors produced by pass  1 Test12= 6.28D-15 2.56D-09 XBig12= 1.96D+02 2.80D+00.
     36 vectors produced by pass  2 Test12= 6.28D-15 2.56D-09 XBig12= 2.96D+00 2.69D-01.
     36 vectors produced by pass  3 Test12= 6.28D-15 2.56D-09 XBig12= 1.31D-02 1.58D-02.
     36 vectors produced by pass  4 Test12= 6.28D-15 2.56D-09 XBig12= 1.53D-05 5.44D-04.
     29 vectors produced by pass  5 Test12= 6.28D-15 2.56D-09 XBig12= 1.67D-08 1.64D-05.
      3 vectors produced by pass  6 Test12= 6.28D-15 2.56D-09 XBig12= 1.52D-11 5.17D-07.
      3 vectors produced by pass  7 Test12= 6.28D-15 2.56D-09 XBig12= 1.30D-14 1.54D-08.
 InvSVY:  IOpt=1 It=  1 EMax= 1.07D-14
 Solved reduced A of dimension   215 with    39 vectors.
 Isotropic polarizability for W=    0.000000       64.31 Bohr**3.
 End of Minotr F.D. properties file   721 does not exist.
 End of Minotr F.D. properties file   722 does not exist.
 End of Minotr F.D. properties file   788 does not exist.
 Calling FoFJK, ICntrl=    100127 FMM=F ISym2X=0 I1Cent= 0 IOpClX= 0 NMat=1 NMatS=1 NMatT=0.
 ***** Axes restored to original set *****
 -------------------------------------------------------------------
 Center     Atomic                   Forces (Hartrees/Bohr)
 Number     Number              X              Y              Z
 -------------------------------------------------------------------
      1        6          -0.003794706    0.008347042   -0.000345062
      2        6           0.003745725    0.021286482    0.000224383
      3        6          -0.002314690   -0.025629669   -0.000290319
      4        8          -0.001422223    0.024927061    0.000446093
      5        8          -0.002508893   -0.007253225   -0.016544796
      6        8           0.005073134   -0.016005477    0.016032211
      7        1           0.007096718   -0.006131185    0.001543303
      8        1           0.002694373   -0.002168120   -0.006202789
      9        1          -0.001190478   -0.004529074    0.001767906
     10        1          -0.003176943    0.015246871    0.004004864
     11        1           0.004749326   -0.004489982   -0.003187374
     12        1          -0.008951343   -0.003600724    0.002551580
 -------------------------------------------------------------------
 Cartesian Forces:  Max     0.025629669 RMS     0.009553607
 FormGI is forming the generalized inverse of G from B-inverse, IUseBI=4.

 GradGradGradGradGradGradGradGradGradGradGradGradGradGradGradGradGradGrad
 Berny optimization.
 Internal  Forces:  Max     0.056121464 RMS     0.013851418
 Search for a saddle point.
 Step number   2 out of a maximum of  100
 All quantities printed in internal units (Hartrees-Bohrs-Radians)
 Swapping is turned off.
 Second derivative matrix not updated -- analytic derivatives used.
 ITU=  0  0
     Eigenvalues ---   -0.65220  -0.01715  -0.00232   0.02415   0.03367
     Eigenvalues ---    0.03580   0.04471   0.05072   0.05211   0.06062
     Eigenvalues ---    0.06333   0.07520   0.09450   0.11069   0.12259
     Eigenvalues ---    0.14866   0.19301   0.23232   0.24362   0.30139
     Eigenvalues ---    0.30666   0.31571   0.32494   0.34615   0.35123
     Eigenvalues ---    0.38466   0.51816   0.75176   0.82729   0.91968
 Eigenvectors required to have negative eigenvalues:
                          D10       D12       A1        R10       A7
   1                    0.41438   0.33237  -0.33151   0.29643  -0.29548
                          A16       A10       A3        D4        D11
   1                   -0.27473   0.23088   0.19963   0.19771   0.18731
 RFO step:  Lambda0=2.807135167D-03 Lambda=-4.05973064D-02.
 Linear search not attempted -- option 19 set.
 Maximum step size (   0.300) exceeded in Quadratic search.
    -- Step size scaled by   0.535
 Iteration  1 RMS(Cart)=  0.13177802 RMS(Int)=  0.01676769
 Iteration  2 RMS(Cart)=  0.02225513 RMS(Int)=  0.00039773
 Iteration  3 RMS(Cart)=  0.00012733 RMS(Int)=  0.00037829
 Iteration  4 RMS(Cart)=  0.00000005 RMS(Int)=  0.00037829
 Variable       Old X    -DE/DX   Delta X   Delta X   Delta X     New X
                                 (Linear)    (Quad)   (Total)
    R1        2.97884   0.01680   0.00000  -0.00144  -0.00144   2.97740
    R2        2.57827  -0.00318   0.00000   0.00128   0.00128   2.57955
    R3        2.07947  -0.00076   0.00000  -0.00197  -0.00197   2.07750
    R4        2.08925   0.00150   0.00000   0.00193   0.00193   2.09118
    R5        2.85949   0.02240   0.00000   0.03813   0.03813   2.89762
    R6        2.06424   0.00089   0.00000  -0.00029  -0.00029   2.06396
    R7        2.06308   0.00183   0.00000   0.00401   0.00401   2.06708
    R8        2.30319   0.01230   0.00000   0.02945   0.02945   2.33264
    R9        2.09034   0.00367   0.00000   0.00988   0.00988   2.10022
   R10        4.07782  -0.02006   0.00000  -0.27406  -0.27406   3.80376
   R11        1.83404   0.00604   0.00000   0.00790   0.00790   1.84194
    A1        1.94464   0.02698   0.00000  -0.01251  -0.01248   1.93217
    A2        1.83602  -0.00261   0.00000   0.02050   0.02046   1.85648
    A3        1.94712  -0.00873   0.00000   0.00945   0.00938   1.95650
    A4        1.93725  -0.00990   0.00000   0.00211   0.00217   1.93942
    A5        1.85226  -0.00666   0.00000  -0.00723  -0.00720   1.84505
    A6        1.94872   0.00135   0.00000  -0.01261  -0.01274   1.93598
    A7        1.81443   0.05612   0.00000   0.00277   0.00276   1.81719
    A8        2.08840  -0.01550   0.00000   0.01681   0.01685   2.10525
    A9        1.80710  -0.01177   0.00000  -0.01066  -0.01063   1.79647
   A10        1.94524  -0.02570   0.00000  -0.01144  -0.01148   1.93376
   A11        1.89590  -0.00882   0.00000   0.00608   0.00608   1.90198
   A12        1.90120   0.00713   0.00000  -0.00336  -0.00332   1.89788
   A13        2.10151   0.02845   0.00000  -0.00170  -0.00301   2.09850
   A14        2.02935  -0.01594   0.00000  -0.04778  -0.04912   1.98023
   A15        2.02195  -0.00868   0.00000   0.00540   0.00377   2.02572
   A16        1.58140   0.00063   0.00000   0.01531   0.01531   1.59671
   A17        1.71033  -0.00962   0.00000  -0.07374  -0.07374   1.63659
    D1       -0.09440  -0.00383   0.00000   0.05750   0.05751  -0.03689
    D2       -2.27808  -0.00711   0.00000   0.05868   0.05865  -2.21943
    D3        1.88616   0.00288   0.00000   0.06117   0.06118   1.94734
    D4       -2.19502  -0.00501   0.00000   0.04918   0.04925  -2.14577
    D5        1.90448  -0.00829   0.00000   0.05037   0.05039   1.95487
    D6       -0.21446   0.00170   0.00000   0.05286   0.05292  -0.16154
    D7        1.97232  -0.00015   0.00000   0.04634   0.04631   2.01863
    D8       -0.21136  -0.00343   0.00000   0.04752   0.04745  -0.16391
    D9       -2.33031   0.00656   0.00000   0.05002   0.04998  -2.28033
   D10       -0.79008   0.00370   0.00000   0.07441   0.07444  -0.71564
   D11        1.24989   0.01115   0.00000   0.09339   0.09339   1.34328
   D12       -2.91285   0.00293   0.00000   0.07475   0.07472  -2.83813
   D13       -0.79169  -0.00526   0.00000  -0.23513  -0.23483  -1.02652
   D14        2.89803  -0.00933   0.00000  -0.15151  -0.15177   2.74625
   D15        1.48078  -0.00102   0.00000  -0.21947  -0.21920   1.26158
   D16       -1.11269  -0.00509   0.00000  -0.13584  -0.13615  -1.24883
   D17       -2.70765  -0.01375   0.00000  -0.22674  -0.22646  -2.93412
   D18        0.98206  -0.01782   0.00000  -0.14312  -0.14340   0.83866
   D19       -3.07487  -0.00933   0.00000  -0.17681  -0.17681   3.03150
         Item               Value     Threshold  Converged?
 Maximum Force            0.056121     0.000450     NO 
 RMS     Force            0.013851     0.000300     NO 
 Maximum Displacement     0.559045     0.001800     NO 
 RMS     Displacement     0.137324     0.001200     NO 
 Predicted change in Energy=-2.085901D-02
 GradGradGradGradGradGradGradGradGradGradGradGradGradGradGradGradGradGrad

                          Input orientation:                          
 ---------------------------------------------------------------------
 Center     Atomic      Atomic             Coordinates (Angstroms)
 Number     Number       Type             X           Y           Z
 ---------------------------------------------------------------------
      1          6           0        1.181790    1.354231   -2.794488
      2          6           0        0.100854    0.860710   -1.759870
      3          6           0        0.899582    0.610821   -0.475048
      4          8           0        2.410888    1.436021   -2.206305
      5          8           0        1.614886    2.216733   -0.530453
      6          8           0        1.832596   -0.197363   -0.470442
      7          1           0        2.457654    2.191467   -0.041405
      8          1           0        0.845376    2.339413   -3.147825
      9          1           0        1.300474    0.650460   -3.640177
     10          1           0        0.278236    0.644619    0.445807
     11          1           0       -0.540553    0.007149   -1.989933
     12          1           0       -0.527520    1.745335   -1.621665
 ---------------------------------------------------------------------
                    Distance matrix (angstroms):
                    1          2          3          4          5
     1  C    0.000000
     2  C    1.575570   0.000000
     3  C    2.451958   1.533355   0.000000
     4  O    1.365039   2.422095   2.441772   0.000000
     5  O    2.461166   2.375406   1.758886   2.012861   0.000000
     6  O    2.869178   2.404386   1.234382   2.452669   2.424636
     7  H    3.147739   3.206016   2.261432   2.293398   0.974713
     8  H    1.099366   2.160392   3.183505   2.037991   2.730904
     9  H    1.106603   2.240278   3.190662   1.976390   3.496062
    10  H    3.437946   2.223324   1.111390   3.494026   2.282818
    11  H    2.329893   1.092199   2.175612   3.286259   3.414419
    12  H    2.109554   1.093854   2.153711   3.011930   2.450074
                    6          7          8          9         10
     6  O    0.000000
     7  H    2.506248   0.000000
     8  H    3.818143   3.503024   0.000000
     9  H    3.324030   4.082270   1.817164   0.000000
    10  H    1.991101   2.716611   4.013498   4.211920   0.000000
    11  H    2.825335   4.190137   2.949740   2.554708   2.647568
    12  H    3.266426   3.406981   2.137039   2.935082   2.476945
                   11         12
    11  H    0.000000
    12  H    1.776817   0.000000
 Stoichiometry    C3H6O3
 Framework group  C1[X(C3H6O3)]
 Deg. of freedom    30
 Full point group                 C1      NOp   1
 Largest Abelian subgroup         C1      NOp   1
 Largest concise Abelian subgroup C1      NOp   1
                         Standard orientation:                         
 ---------------------------------------------------------------------
 Center     Atomic      Atomic             Coordinates (Angstroms)
 Number     Number       Type             X           Y           Z
 ---------------------------------------------------------------------
      1          6           0       -1.425767   -0.254343   -0.143280
      2          6           0       -0.299396   -1.201876    0.418760
      3          6           0        1.001133   -0.432785    0.157416
      4          8           0       -0.887961    0.909446   -0.611994
      5          8           0        0.381494    1.011761    0.946731
      6          8           0        1.310950   -0.108188   -0.992518
      7          1           0        0.859547    1.782452    0.589568
      8          1           0       -2.115544   -0.064073    0.691352
      9          1           0       -1.959016   -0.705193   -1.001738
     10          1           0        1.838326   -0.741199    0.820120
     11          1           0       -0.216063   -2.233981    0.071321
     12          1           0       -0.498934   -1.208135    1.494242
 ---------------------------------------------------------------------
 Rotational constants (GHZ):           4.8630807           3.7066119           3.2901749
 Standard basis: 6-31+G(d) (6D, 7F)
 There are   126 symmetry adapted cartesian basis functions of A   symmetry.
 There are   126 symmetry adapted basis functions of A   symmetry.
   126 basis functions,   216 primitive gaussians,   126 cartesian basis functions
    24 alpha electrons       24 beta electrons
       nuclear repulsion energy       256.4133386099 Hartrees.
 NAtoms=   12 NActive=   12 NUniq=   12 SFac= 1.00D+00 NAtFMM=   60 NAOKFM=F Big=F
 Integral buffers will be    131072 words long.
 Raffenetti 2 integral format.
 Two-electron integral symmetry is turned on.
 One-electron integrals computed using PRISM.
 NBasis=   126 RedAO= T EigKep=  1.02D-04  NBF=   126
 NBsUse=   126 1.00D-06 EigRej= -1.00D+00 NBFU=   126
 Initial guess from the checkpoint file:  "/scratch/bell/zhao922/YARP/paper-example/KHP-network/pp_0/TS-folder/Gau-105762.chk"
 B after Tr=     0.000000    0.000000    0.000000
         Rot=    0.995831   -0.085311    0.026111   -0.019000 Ang= -10.47 deg.
 ExpMin= 4.38D-02 ExpMax= 5.48D+03 ExpMxC= 8.25D+02 IAcc=3 IRadAn=         5 AccDes= 0.00D+00
 Harris functional with IExCor=  402 and IRadAn=       5 diagonalized for initial guess.
 HarFok:  IExCor=  402 AccDes= 0.00D+00 IRadAn=         5 IDoV= 1 UseB2=F ITyADJ=14
 ICtDFT=  3500011 ScaDFX=  1.000000  1.000000  1.000000  1.000000
 FoFCou: FMM=F IPFlag=           0 FMFlag=      100000 FMFlg1=           0
         NFxFlg=           0 DoJE=T BraDBF=F KetDBF=T FulRan=T
         wScrn=  0.000000 ICntrl=       500 IOpCl=  0 I1Cent=   200000004 NGrid=           0
         NMat0=    1 NMatS0=      1 NMatT0=    0 NMatD0=    1 NMtDS0=    0 NMtDT0=    0
 Petite list used in FoFCou.
 Keep R1 ints in memory in canonical form, NReq=47237537.
 Requested convergence on RMS density matrix=1.00D-08 within 128 cycles.
 Requested convergence on MAX density matrix=1.00D-06.
 Requested convergence on             energy=1.00D-06.
 No special actions if energy rises.
 SCF Done:  E(RB3LYP) =  -343.403888836     A.U. after   17 cycles
            NFock= 17  Conv=0.31D-08     -V/T= 2.0090
 DoSCS=F DFT=T ScalE2(SS,OS)=  1.000000  1.000000
 Range of M.O.s used for correlation:     1   126
 NBasis=   126 NAE=    24 NBE=    24 NFC=     0 NFV=     0
 NROrb=    126 NOA=    24 NOB=    24 NVA=   102 NVB=   102

 **** Warning!!: The largest alpha MO coefficient is  0.30660872D+02


 **** Warning!!: The smallest alpha delta epsilon is  0.64897630D-01

 Symmetrizing basis deriv contribution to polar:
 IMax=3 JMax=2 DiffMx= 0.00D+00
 G2DrvN: will do    13 centers at a time, making    1 passes.
 Calling FoFCou, ICntrl=  3107 FMM=F I1Cent=   0 AccDes= 0.00D+00.
 End of G2Drv F.D. properties file   721 does not exist.
 End of G2Drv F.D. properties file   722 does not exist.
 End of G2Drv F.D. properties file   788 does not exist.
          IDoAtm=111111111111
          Differentiating once with respect to electric field.
                with respect to dipole field.
          Differentiating once with respect to nuclear coordinates.
 Keep R1 ints in memory in canonical form, NReq=47193552.
          There are    39 degrees of freedom in the 1st order CPHF.  IDoFFX=6 NUNeed=     3.
     36 vectors produced by pass  0 Test12= 6.28D-15 2.56D-09 XBig12= 3.68D+02 1.65D+01.
 AX will form    36 AO Fock derivatives at one time.
     36 vectors produced by pass  1 Test12= 6.28D-15 2.56D-09 XBig12= 2.63D+02 2.66D+00.
     36 vectors produced by pass  2 Test12= 6.28D-15 2.56D-09 XBig12= 3.71D+00 3.03D-01.
     36 vectors produced by pass  3 Test12= 6.28D-15 2.56D-09 XBig12= 1.50D-02 1.38D-02.
     36 vectors produced by pass  4 Test12= 6.28D-15 2.56D-09 XBig12= 1.93D-05 5.14D-04.
     28 vectors produced by pass  5 Test12= 6.28D-15 2.56D-09 XBig12= 1.98D-08 1.61D-05.
      3 vectors produced by pass  6 Test12= 6.28D-15 2.56D-09 XBig12= 1.72D-11 4.57D-07.
      3 vectors produced by pass  7 Test12= 6.28D-15 2.56D-09 XBig12= 1.52D-14 1.36D-08.
 InvSVY:  IOpt=1 It=  1 EMax= 8.88D-15
 Solved reduced A of dimension   214 with    39 vectors.
 Isotropic polarizability for W=    0.000000       62.58 Bohr**3.
 End of Minotr F.D. properties file   721 does not exist.
 End of Minotr F.D. properties file   722 does not exist.
 End of Minotr F.D. properties file   788 does not exist.
 Calling FoFJK, ICntrl=    100127 FMM=F ISym2X=0 I1Cent= 0 IOpClX= 0 NMat=1 NMatS=1 NMatT=0.
 ***** Axes restored to original set *****
 -------------------------------------------------------------------
 Center     Atomic                   Forces (Hartrees/Bohr)
 Number     Number              X              Y              Z
 -------------------------------------------------------------------
      1        6          -0.003887336    0.002417542   -0.000615284
      2        6          -0.002452991    0.014527602    0.000128790
      3        6           0.006218319   -0.006541562   -0.004976336
      4        8          -0.002500961    0.019762418    0.005069656
      5        8           0.001854711   -0.006437024   -0.008515620
      6        8           0.000976569   -0.017363545    0.011301897
      7        1           0.003572499   -0.004844609    0.000178725
      8        1           0.002195707   -0.001433998   -0.005702965
      9        1          -0.001176190   -0.004174506    0.002888899
     10        1          -0.002327269    0.012343579    0.001346425
     11        1           0.005744554   -0.003420014   -0.004918974
     12        1          -0.008217612   -0.004835884    0.003814789
 -------------------------------------------------------------------
 Cartesian Forces:  Max     0.019762418 RMS     0.006975150
 FormGI is forming the generalized inverse of G from B-inverse, IUseBI=4.

 GradGradGradGradGradGradGradGradGradGradGradGradGradGradGradGradGradGrad
 Berny optimization.
 Internal  Forces:  Max     0.023199133 RMS     0.007706659
 Search for a saddle point.
 Step number   3 out of a maximum of  100
 All quantities printed in internal units (Hartrees-Bohrs-Radians)
 Swapping is turned off.
 Second derivative matrix not updated -- analytic derivatives used.
 ITU=  0  0  0
     Eigenvalues ---   -0.44775  -0.00009   0.00628   0.03232   0.03532
     Eigenvalues ---    0.04768   0.05072   0.05877   0.06249   0.06601
     Eigenvalues ---    0.07184   0.07641   0.09821   0.11147   0.13025
     Eigenvalues ---    0.17789   0.22583   0.23800   0.23911   0.28927
     Eigenvalues ---    0.30584   0.30717   0.31767   0.34170   0.35070
     Eigenvalues ---    0.38692   0.50257   0.79692   0.84387   1.63540
 Eigenvectors required to have negative eigenvalues:
                          D10       R10       D12       A7        D11
   1                    0.41932   0.39517   0.33696  -0.25159   0.23027
                          A10       A1        R8        A16       D4
   1                    0.21282  -0.21188   0.19523  -0.18874   0.18575
 RFO step:  Lambda0=2.307905899D-04 Lambda=-2.79758135D-02.
 Linear search not attempted -- option 19 set.
 Maximum step size (   0.300) exceeded in Quadratic search.
    -- Step size scaled by   0.758
 Iteration  1 RMS(Cart)=  0.11328119 RMS(Int)=  0.01772971
 Iteration  2 RMS(Cart)=  0.02531852 RMS(Int)=  0.00052812
 Iteration  3 RMS(Cart)=  0.00026298 RMS(Int)=  0.00051003
 Iteration  4 RMS(Cart)=  0.00000007 RMS(Int)=  0.00051003
 Variable       Old X    -DE/DX   Delta X   Delta X   Delta X     New X
                                 (Linear)    (Quad)   (Total)
    R1        2.97740   0.00609   0.00000  -0.00605  -0.00605   2.97134
    R2        2.57955   0.00174   0.00000   0.01713   0.01713   2.59668
    R3        2.07750  -0.00012   0.00000   0.00012   0.00012   2.07762
    R4        2.09118   0.00032   0.00000  -0.00441  -0.00441   2.08676
    R5        2.89762   0.01085   0.00000   0.02901   0.02901   2.92664
    R6        2.06396   0.00034   0.00000  -0.00150  -0.00150   2.06245
    R7        2.06708   0.00129   0.00000   0.00460   0.00460   2.07169
    R8        2.33264   0.01215   0.00000   0.03392   0.03392   2.36656
    R9        2.10022   0.00279   0.00000   0.01457   0.01457   2.11479
   R10        3.80376  -0.01346   0.00000  -0.26494  -0.26494   3.53882
   R11        1.84194   0.00330   0.00000   0.00780   0.00780   1.84974
    A1        1.93217   0.01346   0.00000  -0.00643  -0.00645   1.92572
    A2        1.85648  -0.00178   0.00000   0.02151   0.02155   1.87803
    A3        1.95650  -0.00417   0.00000  -0.01207  -0.01205   1.94445
    A4        1.93942  -0.00473   0.00000  -0.00839  -0.00837   1.93105
    A5        1.84505  -0.00346   0.00000   0.00812   0.00807   1.85312
    A6        1.93598   0.00079   0.00000  -0.00374  -0.00369   1.93229
    A7        1.81719   0.02320   0.00000  -0.00275  -0.00303   1.81416
    A8        2.10525  -0.00712   0.00000  -0.01950  -0.01965   2.08560
    A9        1.79647  -0.00396   0.00000   0.02234   0.02232   1.81879
   A10        1.93376  -0.01014   0.00000  -0.01149  -0.01177   1.92198
   A11        1.90198  -0.00410   0.00000   0.01697   0.01688   1.91886
   A12        1.89788   0.00265   0.00000   0.00000   0.00020   1.89807
   A13        2.09850   0.01498   0.00000  -0.00878  -0.01041   2.08809
   A14        1.98023  -0.01052   0.00000  -0.05612  -0.05785   1.92238
   A15        2.02572  -0.00386   0.00000   0.00689   0.00464   2.03036
   A16        1.59671   0.00980   0.00000   0.07496   0.07496   1.67167
   A17        1.63659  -0.00620   0.00000  -0.05441  -0.05441   1.58219
    D1       -0.03689  -0.00142   0.00000  -0.05705  -0.05704  -0.09392
    D2       -2.21943  -0.00327   0.00000  -0.02477  -0.02489  -2.24432
    D3        1.94734   0.00099   0.00000  -0.03112  -0.03108   1.91626
    D4       -2.14577  -0.00224   0.00000  -0.05649  -0.05646  -2.20223
    D5        1.95487  -0.00410   0.00000  -0.02420  -0.02431   1.93056
    D6       -0.16154   0.00016   0.00000  -0.03055  -0.03050  -0.19204
    D7        2.01863   0.00042   0.00000  -0.05883  -0.05876   1.95986
    D8       -0.16391  -0.00143   0.00000  -0.02655  -0.02662  -0.19053
    D9       -2.28033   0.00283   0.00000  -0.03290  -0.03280  -2.31313
   D10       -0.71564   0.00774   0.00000   0.15124   0.15122  -0.56441
   D11        1.34328   0.01112   0.00000   0.16861   0.16861   1.51189
   D12       -2.83813   0.00733   0.00000   0.16443   0.16445  -2.67369
   D13       -1.02652  -0.00823   0.00000  -0.20277  -0.20232  -1.22884
   D14        2.74625  -0.00713   0.00000  -0.11379  -0.11424   2.63202
   D15        1.26158  -0.00716   0.00000  -0.23696  -0.23645   1.02513
   D16       -1.24883  -0.00606   0.00000  -0.14798  -0.14837  -1.39720
   D17       -2.93412  -0.01268   0.00000  -0.23325  -0.23285   3.11622
   D18        0.83866  -0.01158   0.00000  -0.14427  -0.14477   0.69389
   D19        3.03150  -0.00688   0.00000  -0.14231  -0.14231   2.88919
         Item               Value     Threshold  Converged?
 Maximum Force            0.023199     0.000450     NO 
 RMS     Force            0.007707     0.000300     NO 
 Maximum Displacement     0.361860     0.001800     NO 
 RMS     Displacement     0.114821     0.001200     NO 
 Predicted change in Energy=-1.875580D-02
 GradGradGradGradGradGradGradGradGradGradGradGradGradGradGradGradGradGrad

                          Input orientation:                          
 ---------------------------------------------------------------------
 Center     Atomic      Atomic             Coordinates (Angstroms)
 Number     Number       Type             X           Y           Z
 ---------------------------------------------------------------------
      1          6           0        1.163944    1.399865   -2.797975
      2          6           0        0.108341    0.864078   -1.763098
      3          6           0        0.926428    0.668916   -0.462659
      4          8           0        2.371233    1.618026   -2.179093
      5          8           0        1.648267    2.104542   -0.521541
      6          8           0        1.768613   -0.255361   -0.393623
      7          1           0        2.523741    1.999978   -0.096402
      8          1           0        0.770267    2.335490   -3.220316
      9          1           0        1.356439    0.661581   -3.596278
     10          1           0        0.267998    0.808314    0.431444
     11          1           0       -0.455918   -0.041864   -1.991227
     12          1           0       -0.595086    1.696028   -1.641035
 ---------------------------------------------------------------------
                    Distance matrix (angstroms):
                    1          2          3          4          5
     1  C    0.000000
     2  C    1.572367   0.000000
     3  C    2.458536   1.548709   0.000000
     4  O    1.374102   2.421192   2.436066   0.000000
     5  O    2.431726   2.334864   1.607962   1.872660   0.000000
     6  O    2.980991   2.425925   1.252330   2.657186   2.366430
     7  H    3.083452   3.146793   2.111227   2.122910   0.978842
     8  H    1.099431   2.174094   3.225915   2.040096   2.847386
     9  H    1.104267   2.226949   3.162994   1.988217   3.409004
    10  H    3.403204   2.201049   1.119099   3.448788   2.119795
    11  H    2.313737   1.091403   2.180048   3.283795   3.345838
    12  H    2.126126   1.096289   2.181407   3.015732   2.540233
                    6          7          8          9         10
     6  O    0.000000
     7  H    2.396897   0.000000
     8  H    3.962247   3.598066   0.000000
     9  H    3.356735   3.924670   1.812985   0.000000
    10  H    2.015933   2.605199   3.989974   4.174779   0.000000
    11  H    2.747082   4.078952   2.943807   2.521043   2.667620
    12  H    3.309234   3.493617   2.183399   2.949832   2.414150
                   11         12
    11  H    0.000000
    12  H    1.778278   0.000000
 Stoichiometry    C3H6O3
 Framework group  C1[X(C3H6O3)]
 Deg. of freedom    30
 Full point group                 C1      NOp   1
 Largest Abelian subgroup         C1      NOp   1
 Largest concise Abelian subgroup C1      NOp   1
                         Standard orientation:                         
 ---------------------------------------------------------------------
 Center     Atomic      Atomic             Coordinates (Angstroms)
 Number     Number       Type             X           Y           Z
 ---------------------------------------------------------------------
      1          6           0       -1.436412   -0.309280   -0.198504
      2          6           0       -0.283385   -1.213403    0.371958
      3          6           0        0.986050   -0.339359    0.220033
      4          8           0       -0.955221    0.940359   -0.506747
      5          8           0        0.332612    0.986985    0.851992
      6          8           0        1.448928   -0.112655   -0.921316
      7          1           0        0.771380    1.750874    0.425274
      8          1           0       -2.219349   -0.244245    0.570606
      9          1           0       -1.844946   -0.721930   -1.137772
     10          1           0        1.729940   -0.598727    1.014853
     11          1           0       -0.112520   -2.201658   -0.058528
     12          1           0       -0.532573   -1.329569    1.433213
 ---------------------------------------------------------------------
 Rotational constants (GHZ):           5.1965595           3.6969783           3.1506901
 Standard basis: 6-31+G(d) (6D, 7F)
 There are   126 symmetry adapted cartesian basis functions of A   symmetry.
 There are   126 symmetry adapted basis functions of A   symmetry.
   126 basis functions,   216 primitive gaussians,   126 cartesian basis functions
    24 alpha electrons       24 beta electrons
       nuclear repulsion energy       258.0424470877 Hartrees.
 NAtoms=   12 NActive=   12 NUniq=   12 SFac= 1.00D+00 NAtFMM=   60 NAOKFM=F Big=F
 Integral buffers will be    131072 words long.
 Raffenetti 2 integral format.
 Two-electron integral symmetry is turned on.
 One-electron integrals computed using PRISM.
 NBasis=   126 RedAO= T EigKep=  1.12D-04  NBF=   126
 NBsUse=   126 1.00D-06 EigRej= -1.00D+00 NBFU=   126
 Initial guess from the checkpoint file:  "/scratch/bell/zhao922/YARP/paper-example/KHP-network/pp_0/TS-folder/Gau-105762.chk"
 B after Tr=     0.000000   -0.000000   -0.000000
         Rot=    0.999682   -0.005272    0.019029   -0.015691 Ang=  -2.89 deg.
 ExpMin= 4.38D-02 ExpMax= 5.48D+03 ExpMxC= 8.25D+02 IAcc=3 IRadAn=         5 AccDes= 0.00D+00
 Harris functional with IExCor=  402 and IRadAn=       5 diagonalized for initial guess.
 HarFok:  IExCor=  402 AccDes= 0.00D+00 IRadAn=         5 IDoV= 1 UseB2=F ITyADJ=14
 ICtDFT=  3500011 ScaDFX=  1.000000  1.000000  1.000000  1.000000
 FoFCou: FMM=F IPFlag=           0 FMFlag=      100000 FMFlg1=           0
         NFxFlg=           0 DoJE=T BraDBF=F KetDBF=T FulRan=T
         wScrn=  0.000000 ICntrl=       500 IOpCl=  0 I1Cent=   200000004 NGrid=           0
         NMat0=    1 NMatS0=      1 NMatT0=    0 NMatD0=    1 NMtDS0=    0 NMtDT0=    0
 Petite list used in FoFCou.
 Keep R1 ints in memory in canonical form, NReq=47237537.
 Requested convergence on RMS density matrix=1.00D-08 within 128 cycles.
 Requested convergence on MAX density matrix=1.00D-06.
 Requested convergence on             energy=1.00D-06.
 No special actions if energy rises.
 SCF Done:  E(RB3LYP) =  -343.421293105     A.U. after   15 cycles
            NFock= 15  Conv=0.23D-08     -V/T= 2.0090
 DoSCS=F DFT=T ScalE2(SS,OS)=  1.000000  1.000000
 Range of M.O.s used for correlation:     1   126
 NBasis=   126 NAE=    24 NBE=    24 NFC=     0 NFV=     0
 NROrb=    126 NOA=    24 NOB=    24 NVA=   102 NVB=   102

 **** Warning!!: The largest alpha MO coefficient is  0.30859610D+02


 **** Warning!!: The smallest alpha delta epsilon is  0.73196412D-01

 Symmetrizing basis deriv contribution to polar:
 IMax=3 JMax=2 DiffMx= 0.00D+00
 G2DrvN: will do    13 centers at a time, making    1 passes.
 Calling FoFCou, ICntrl=  3107 FMM=F I1Cent=   0 AccDes= 0.00D+00.
 End of G2Drv F.D. properties file   721 does not exist.
 End of G2Drv F.D. properties file   722 does not exist.
 End of G2Drv F.D. properties file   788 does not exist.
          IDoAtm=111111111111
          Differentiating once with respect to electric field.
                with respect to dipole field.
          Differentiating once with respect to nuclear coordinates.
 Keep R1 ints in memory in canonical form, NReq=47193552.
          There are    39 degrees of freedom in the 1st order CPHF.  IDoFFX=6 NUNeed=     3.
     36 vectors produced by pass  0 Test12= 6.28D-15 2.56D-09 XBig12= 3.56D+02 1.71D+01.
 AX will form    36 AO Fock derivatives at one time.
     36 vectors produced by pass  1 Test12= 6.28D-15 2.56D-09 XBig12= 2.23D+02 2.63D+00.
     36 vectors produced by pass  2 Test12= 6.28D-15 2.56D-09 XBig12= 3.09D+00 2.64D-01.
     36 vectors produced by pass  3 Test12= 6.28D-15 2.56D-09 XBig12= 1.59D-02 1.65D-02.
     36 vectors produced by pass  4 Test12= 6.28D-15 2.56D-09 XBig12= 2.35D-05 6.72D-04.
     29 vectors produced by pass  5 Test12= 6.28D-15 2.56D-09 XBig12= 2.36D-08 2.31D-05.
      3 vectors produced by pass  6 Test12= 6.28D-15 2.56D-09 XBig12= 1.94D-11 5.43D-07.
      2 vectors produced by pass  7 Test12= 6.28D-15 2.56D-09 XBig12= 1.70D-14 1.57D-08.
 InvSVY:  IOpt=1 It=  1 EMax= 7.11D-15
 Solved reduced A of dimension   214 with    39 vectors.
 Isotropic polarizability for W=    0.000000       61.38 Bohr**3.
 End of Minotr F.D. properties file   721 does not exist.
 End of Minotr F.D. properties file   722 does not exist.
 End of Minotr F.D. properties file   788 does not exist.
 Calling FoFJK, ICntrl=    100127 FMM=F ISym2X=0 I1Cent= 0 IOpClX= 0 NMat=1 NMatS=1 NMatT=0.
 ***** Axes restored to original set *****
 -------------------------------------------------------------------
 Center     Atomic                   Forces (Hartrees/Bohr)
 Number     Number              X              Y              Z
 -------------------------------------------------------------------
      1        6          -0.003907577    0.001346950   -0.001471867
      2        6          -0.002527281    0.012066295    0.001803922
      3        6           0.005869468   -0.012309800   -0.004025614
      4        8          -0.001745278    0.012008967    0.004121713
      5        8           0.004445573    0.000917977   -0.006458359
      6        8          -0.004437331   -0.007835669    0.006435233
      7        1           0.000716474   -0.003369986    0.001044236
      8        1           0.001317447   -0.001534150   -0.004079905
      9        1           0.000124936   -0.003217370    0.003289315
     10        1           0.000078149    0.008569486    0.000242912
     11        1           0.005295421   -0.002163713   -0.004395855
     12        1          -0.005230000   -0.004478988    0.003494269
 -------------------------------------------------------------------
 Cartesian Forces:  Max     0.012309800 RMS     0.005179538
 FormGI is forming the generalized inverse of G from B-inverse, IUseBI=4.

 GradGradGradGradGradGradGradGradGradGradGradGradGradGradGradGradGradGrad
 Berny optimization.
 Internal  Forces:  Max     0.015474927 RMS     0.005214507
 Search for a saddle point.
 Step number   4 out of a maximum of  100
 All quantities printed in internal units (Hartrees-Bohrs-Radians)
 Swapping is turned off.
 Second derivative matrix not updated -- analytic derivatives used.
 ITU=  0  0  0  0
     Eigenvalues ---   -0.15077  -0.00066   0.01970   0.03428   0.04594
     Eigenvalues ---    0.04925   0.05276   0.06319   0.06557   0.07600
     Eigenvalues ---    0.07915   0.09678   0.10286   0.11188   0.14223
     Eigenvalues ---    0.17360   0.22866   0.24173   0.26976   0.28837
     Eigenvalues ---    0.30691   0.31865   0.33666   0.35255   0.37349
     Eigenvalues ---    0.42351   0.48636   0.81088   1.02749   2.19261
 Eigenvectors required to have negative eigenvalues:
                          R10       D12       D10       D18       D16
   1                   -0.67893  -0.24969  -0.24350  -0.22863  -0.19882
                          D14       D11       A14       R8        D13
   1                   -0.18490  -0.16542   0.16297  -0.16108   0.15994
 RFO step:  Lambda0=1.018010401D-03 Lambda=-1.26952370D-02.
 Linear search not attempted -- option 19 set.
 Iteration  1 RMS(Cart)=  0.10699478 RMS(Int)=  0.06379382
 Iteration  2 RMS(Cart)=  0.06495085 RMS(Int)=  0.00476635
 Iteration  3 RMS(Cart)=  0.00898463 RMS(Int)=  0.00066411
 Iteration  4 RMS(Cart)=  0.00005666 RMS(Int)=  0.00066350
 Iteration  5 RMS(Cart)=  0.00000001 RMS(Int)=  0.00066350
 Variable       Old X    -DE/DX   Delta X   Delta X   Delta X     New X
                                 (Linear)    (Quad)   (Total)
    R1        2.97134   0.00507   0.00000   0.01097   0.01097   2.98232
    R2        2.59668   0.00394   0.00000   0.00721   0.00721   2.60389
    R3        2.07762  -0.00021   0.00000   0.00069   0.00069   2.07832
    R4        2.08676  -0.00021   0.00000  -0.00296  -0.00296   2.08380
    R5        2.92664   0.00448   0.00000   0.00117   0.00117   2.92780
    R6        2.06245  -0.00002   0.00000   0.00057   0.00057   2.06302
    R7        2.07169   0.00035   0.00000  -0.00182  -0.00182   2.06987
    R8        2.36656   0.00315   0.00000   0.01954   0.01954   2.38610
    R9        2.11479   0.00122   0.00000   0.01723   0.01723   2.13202
   R10        3.53882  -0.00742   0.00000  -0.01699  -0.01699   3.52182
   R11        1.84974   0.00145   0.00000   0.00495   0.00495   1.85469
    A1        1.92572   0.01313   0.00000   0.01095   0.01098   1.93669
    A2        1.87803   0.00080   0.00000   0.00114   0.00096   1.87899
    A3        1.94445  -0.00693   0.00000  -0.07535  -0.07545   1.86900
    A4        1.93105  -0.00601   0.00000   0.00458   0.00443   1.93548
    A5        1.85312  -0.00213   0.00000   0.02701   0.02682   1.87994
    A6        1.93229   0.00115   0.00000   0.03167   0.03098   1.96327
    A7        1.81416   0.01547   0.00000  -0.00341  -0.00498   1.80917
    A8        2.08560  -0.00589   0.00000  -0.08527  -0.08528   2.00032
    A9        1.81879  -0.00167   0.00000   0.06324   0.06356   1.88235
   A10        1.92198  -0.00812   0.00000   0.00252   0.00021   1.92220
   A11        1.91886  -0.00116   0.00000   0.01924   0.01835   1.93721
   A12        1.89807   0.00206   0.00000   0.01124   0.01259   1.91066
   A13        2.08809   0.00567   0.00000   0.00768   0.00677   2.09486
   A14        1.92238  -0.00400   0.00000  -0.06494  -0.06596   1.85642
   A15        2.03036  -0.00153   0.00000   0.00186   0.00046   2.03082
   A16        1.67167   0.00915   0.00000   0.10418   0.10418   1.77586
   A17        1.58219  -0.00045   0.00000  -0.03342  -0.03342   1.54877
    D1       -0.09392  -0.00444   0.00000  -0.31796  -0.31756  -0.41148
    D2       -2.24432  -0.00270   0.00000  -0.26157  -0.26263  -2.50695
    D3        1.91626  -0.00025   0.00000  -0.27320  -0.27264   1.64363
    D4       -2.20223  -0.00536   0.00000  -0.33072  -0.33017  -2.53240
    D5        1.93056  -0.00362   0.00000  -0.27433  -0.27524   1.65532
    D6       -0.19204  -0.00117   0.00000  -0.28596  -0.28525  -0.47729
    D7        1.95986  -0.00305   0.00000  -0.32445  -0.32411   1.63576
    D8       -0.19053  -0.00131   0.00000  -0.26807  -0.26918  -0.45971
    D9       -2.31313   0.00114   0.00000  -0.27970  -0.27919  -2.59232
   D10       -0.56441  -0.00171   0.00000   0.36302   0.36291  -0.20151
   D11        1.51189   0.00383   0.00000   0.37429   0.37406   1.88595
   D12       -2.67369   0.00058   0.00000   0.43129   0.43164  -2.24205
   D13       -1.22884  -0.00438   0.00000  -0.00699  -0.00646  -1.23530
   D14        2.63202  -0.00353   0.00000   0.06393   0.06384   2.69585
   D15        1.02513  -0.00622   0.00000  -0.11274  -0.11260   0.91253
   D16       -1.39720  -0.00537   0.00000  -0.04183  -0.04230  -1.43950
   D17        3.11622  -0.00950   0.00000  -0.08513  -0.08488   3.03134
   D18        0.69389  -0.00865   0.00000  -0.01422  -0.01458   0.67930
   D19        2.88919  -0.00607   0.00000  -0.26528  -0.26528   2.62391
         Item               Value     Threshold  Converged?
 Maximum Force            0.015475     0.000450     NO 
 RMS     Force            0.005215     0.000300     NO 
 Maximum Displacement     0.588474     0.001800     NO 
 RMS     Displacement     0.157590     0.001200     NO 
 Predicted change in Energy=-1.000290D-02
 GradGradGradGradGradGradGradGradGradGradGradGradGradGradGradGradGradGrad

                          Input orientation:                          
 ---------------------------------------------------------------------
 Center     Atomic      Atomic             Coordinates (Angstroms)
 Number     Number       Type             X           Y           Z
 ---------------------------------------------------------------------
      1          6           0        1.160606    1.420215   -2.805590
      2          6           0        0.095659    0.932345   -1.747996
[...]
    D7        1.28091  -0.00000   0.00000   0.00001   0.00001   1.28093
    D8       -0.77789  -0.00000   0.00000   0.00001   0.00001  -0.77788
    D9       -2.95297  -0.00000   0.00000   0.00001   0.00001  -2.95296
   D10        0.37749  -0.00000   0.00000  -0.00002  -0.00002   0.37747
   D11        2.34827  -0.00000   0.00000  -0.00002  -0.00002   2.34825
   D12       -1.75482  -0.00000   0.00000  -0.00002  -0.00002  -1.75483
   D13       -1.24393   0.00000   0.00000  -0.00000  -0.00000  -1.24393
   D14        2.69873  -0.00000   0.00000   0.00001   0.00001   2.69874
   D15        0.83708   0.00000   0.00000  -0.00000  -0.00000   0.83708
   D16       -1.50345  -0.00000   0.00000   0.00001   0.00001  -1.50344
   D17        2.98544   0.00000   0.00000  -0.00000  -0.00000   2.98544
   D18        0.64492  -0.00000   0.00000   0.00001   0.00001   0.64492
   D19        2.09668  -0.00000   0.00000   0.00002   0.00002   2.09670
         Item               Value     Threshold  Converged?
 Maximum Force            0.000001     0.000450     YES
 RMS     Force            0.000000     0.000300     YES
 Maximum Displacement     0.000024     0.001800     YES
 RMS     Displacement     0.000009     0.001200     YES
 Predicted change in Energy= 4.248440D-12
 Optimization completed.
    -- Stationary point found.
                           ----------------------------
                           !   Optimized Parameters   !
                           ! (Angstroms and Degrees)  !
 --------------------------                            --------------------------
 ! Name  Definition              Value          Derivative Info.                !
 --------------------------------------------------------------------------------
 ! R1    R(1,2)                  1.5572         -DE/DX =    0.0                 !
 ! R2    R(1,4)                  1.3598         -DE/DX =    0.0                 !
 ! R3    R(1,8)                  1.1084         -DE/DX =    0.0                 !
 ! R4    R(1,9)                  1.0996         -DE/DX =    0.0                 !
 ! R5    R(2,3)                  1.5786         -DE/DX =    0.0                 !
 ! R6    R(2,11)                 1.093          -DE/DX =    0.0                 !
 ! R7    R(2,12)                 1.0936         -DE/DX =    0.0                 !
 ! R8    R(3,6)                  1.2564         -DE/DX =    0.0                 !
 ! R9    R(3,10)                 1.1271         -DE/DX =    0.0                 !
 ! R10   R(4,5)                  1.9303         -DE/DX =    0.0                 !
 ! R11   R(5,7)                  0.9813         -DE/DX =    0.0                 !
 ! A1    A(2,1,4)              110.4606         -DE/DX =    0.0                 !
 ! A2    A(2,1,8)              103.9359         -DE/DX =    0.0                 !
 ! A3    A(2,1,9)              108.769          -DE/DX =    0.0                 !
 ! A4    A(4,1,8)              107.7586         -DE/DX =    0.0                 !
 ! A5    A(4,1,9)              113.0971         -DE/DX =    0.0                 !
 ! A6    A(8,1,9)              112.438          -DE/DX =    0.0                 !
 ! A7    A(1,2,3)              101.3205         -DE/DX =    0.0                 !
 ! A8    A(1,2,11)             112.3061         -DE/DX =    0.0                 !
 ! A9    A(1,2,12)             110.9373         -DE/DX =    0.0                 !
 ! A10   A(3,2,11)             110.5386         -DE/DX =    0.0                 !
 ! A11   A(3,2,12)             110.5811         -DE/DX =    0.0                 !
 ! A12   A(11,2,12)            110.813          -DE/DX =    0.0                 !
 ! A13   A(2,3,6)              120.1059         -DE/DX =    0.0                 !
 ! A14   A(2,3,10)             104.2955         -DE/DX =    0.0                 !
 ! A15   A(6,3,10)             117.3587         -DE/DX =    0.0                 !
 ! A16   A(1,4,5)               98.8264         -DE/DX =    0.0                 !
 ! A17   A(4,5,7)               91.8347         -DE/DX =    0.0                 !
 ! D1    D(4,1,2,3)            -51.2902         -DE/DX =    0.0                 !
 ! D2    D(4,1,2,11)          -169.2511         -DE/DX =    0.0                 !
 ! D3    D(4,1,2,12)            66.1258         -DE/DX =    0.0                 !
 ! D4    D(8,1,2,3)           -166.6309         -DE/DX =    0.0                 !
 ! D5    D(8,1,2,11)            75.4082         -DE/DX =    0.0                 !
 ! D6    D(8,1,2,12)           -49.2149         -DE/DX =    0.0                 !
 ! D7    D(9,1,2,3)             73.391          -DE/DX =    0.0                 !
 ! D8    D(9,1,2,11)           -44.5699         -DE/DX =    0.0                 !
 ! D9    D(9,1,2,12)          -169.193          -DE/DX =    0.0                 !
 ! D10   D(2,1,4,5)             21.6286         -DE/DX =    0.0                 !
 ! D11   D(8,1,4,5)            134.5461         -DE/DX =    0.0                 !
 ! D12   D(9,1,4,5)           -100.5436         -DE/DX =    0.0                 !
 ! D13   D(1,2,3,6)            -71.2719         -DE/DX =    0.0                 !
 ! D14   D(1,2,3,10)           154.6258         -DE/DX =    0.0                 !
 ! D15   D(11,2,3,6)            47.9611         -DE/DX =    0.0                 !
 ! D16   D(11,2,3,10)          -86.1412         -DE/DX =    0.0                 !
 ! D17   D(12,2,3,6)           171.0532         -DE/DX =    0.0                 !
 ! D18   D(12,2,3,10)           36.9509         -DE/DX =    0.0                 !
 ! D19   D(1,4,5,7)            120.1312         -DE/DX =    0.0                 !
 --------------------------------------------------------------------------------
 GradGradGradGradGradGradGradGradGradGradGradGradGradGradGradGradGradGrad


 ----------------------------------------------------------------------

 Electric dipole moment (input orientation):
 (Debye = 10**-18 statcoulomb cm , SI units = C m)
                  (au)            (Debye)         (10**-30 SI)
   Tot        0.107059D+01      0.272116D+01      0.907680D+01
   x         -0.908567D+00     -0.230935D+01     -0.770315D+01
   y          0.475770D+00      0.120929D+01      0.403375D+01
   z         -0.307087D+00     -0.780536D+00     -0.260359D+01

 Dipole polarizability, Alpha (input orientation).
 (esu units = cm**3 , SI units = C**2 m**2 J**-1)
 Alpha(0;0):
               (au)            (10**-24 esu)      (10**-40 SI)
   iso        0.631029D+02      0.935089D+01      0.104043D+02
   aniso      0.315988D+02      0.468245D+01      0.520993D+01
   xx         0.524948D+02      0.777893D+01      0.865523D+01
   yx         0.524657D+01      0.777461D+00      0.865042D+00
   yy         0.651336D+02      0.965181D+01      0.107391D+02
   zx        -0.857409D+00     -0.127055D+00     -0.141368D+00
   zy        -0.144725D+02     -0.214460D+01     -0.238619D+01
   zz         0.716803D+02      0.106219D+02      0.118185D+02

 ----------------------------------------------------------------------

 Dipole orientation:
     6          6.22149698         -0.58936327          0.78676245
     6          3.43488643         -0.19347481          1.64566147
     6          1.94148813         -1.13729478         -0.75816255
     8          6.55806967         -2.97841220         -0.09762432
     8          3.08932779         -3.77202931         -0.90015897
     8          1.94796283          0.15730630         -2.74849876
     1          3.50393456         -4.05123148         -2.68594261
     1          7.32631789         -0.40163302          2.55636704
     1          6.70499904          0.87220033         -0.60894334
     1          0.04969887         -1.74977420          0.00494091
     1          3.00774631          1.79014864          2.03147884
     1          2.99274443         -1.37210317          3.28472114

 Electric dipole moment (dipole orientation):
 (Debye = 10**-18 statcoulomb cm , SI units = C m)
                  (au)            (Debye)         (10**-30 SI)
   Tot        0.107059D+01      0.272116D+01      0.907680D+01
   x          0.000000D+00      0.000000D+00      0.000000D+00
   y          0.000000D+00      0.000000D+00      0.000000D+00
   z          0.107059D+01      0.272116D+01      0.907680D+01

 Dipole polarizability, Alpha (dipole orientation).
 (esu units = cm**3 , SI units = C**2 m**2 J**-1)
 Alpha(0;0):
               (au)            (10**-24 esu)      (10**-40 SI)
   iso        0.631029D+02      0.935089D+01      0.104043D+02
   aniso      0.315988D+02      0.468245D+01      0.520993D+01
   xx         0.765927D+02      0.113499D+02      0.126284D+02
   yx        -0.686396D+01     -0.101713D+01     -0.113171D+01
   yy         0.568319D+02      0.842162D+01      0.937031D+01
   zx         0.122038D+02      0.180842D+01      0.201214D+01
   zy        -0.274611D+00     -0.406931D-01     -0.452772D-01
   zz         0.558842D+02      0.828118D+01      0.921406D+01

 ----------------------------------------------------------------------
 1\1\GINC-BELL-A094\Freq\RB3LYP\6-31+G(d)\C3H6O3\ZHAO922\23-Dec-2020\0\
 \#N Geom=AllCheck Guess=TCheck SCRF=Check GenChk RB3LYP/6-31+G(d) Freq
 \\pp_22_0 TS\\0,1\C,1.1877006769,1.41393532,-2.7748565376\C,0.09128817
 94,1.0063970489,-1.7468796097\C,0.969242445,0.6322800496,-0.4893741926
 \O,2.0338164354,2.3283633143,-2.2299426465\O,1.7090866655,1.9571727972
 ,-0.3637045749\O,1.6638164055,-0.4147120642,-0.4946182683\H,2.65097673
 63,1.7265893356,-0.2131799182\H,0.6212937074,1.9173403869,-3.583779192
 5\H,1.7004841929,0.505970553,-3.1238530526\H,0.2807361079,0.7927051873
 ,0.3884202303\H,-0.4891477448,0.1422915189,-2.0801000153\H,-0.56502780
 74,1.8512605525,-1.5199332221\\Version=ES64L-G16RevB.01\State=1-A\HF=-
 343.4372294\RMSD=6.554e-09\RMSF=9.365e-07\ZeroPoint=0.0907985\Thermal=
 0.0963175\Dipole=-0.9085668,0.47577,-0.3070867\DipoleDeriv=-0.0904134,
 -0.0857545,-0.2936177,-0.1769642,0.1545365,0.3688722,-0.1116873,-0.033
 9113,0.2749363,0.3728674,0.1057688,0.0990566,0.0106936,0.1999609,-0.03
 21437,0.0337888,0.2038645,-0.0379292,0.1677074,-0.6430966,0.4016523,-0
 .331201,0.9351801,0.0985872,0.0477577,0.0610745,0.3063545,-0.2988531,-
 0.3104103,0.329698,0.0055102,-0.4182306,0.0397855,0.4691232,0.6748309,
 -0.2713632,-0.166104,0.0580919,-0.4944413,0.1318116,-0.297373,-0.31740
 8,-0.4807694,-0.8443583,-0.1991209,-0.5507353,0.5732738,-0.2482139,0.1
 533959,-0.9660295,0.1307583,-0.0663224,-0.0343956,-0.3918686,0.3315294
 ,0.0906118,0.1085954,0.0384617,0.1965505,0.0497454,0.0726594,0.0755562
 ,0.2626297,0.128403,0.097002,-0.0171946,0.0365265,0.0982858,-0.0923988
 ,-0.1019695,0.0343622,-0.0619742,0.0079847,0.0672471,0.0170641,0.05940
 38,-0.0266451,-0.1482964,0.0019571,-0.0169761,-0.0509396,0.0823461,0.0
 230003,0.1096631,0.0367164,0.1280681,-0.038001,0.1449132,-0.0085847,0.
 0457447,0.0314039,-0.0158399,-0.034694,-0.0732603,0.0052063,-0.0518928
 ,-0.035793,-0.0494213,0.1008086,-0.0161359,0.0401056,0.0224319,0.10890
 58,-0.0095098,-0.0076079,0.0263421,-0.062041,0.0227218\Polar=52.494813
 6,5.2465696,65.1336122,-0.8574087,-14.4724544,71.6803401\Quadrupole=3.
 2153796,-6.4498747,3.2344951,1.069976,1.5497178,2.4080753\PG=C01 [X(C3
 H6O3)]\NImag=1\\0.40540908,-0.10021152,0.54147635,0.04813961,0.0496256
 3,0.46595125,-0.06699215,0.01173183,0.04911455,0.50125009,-0.00862610,
 -0.05929377,-0.01236126,0.00792464,0.60378720,0.03685708,-0.02350207,-
 0.05986277,0.00535777,0.10873200,0.32322879,-0.03305788,-0.02404094,-0
 .01034213,-0.03895276,0.00394094,-0.01549693,0.44299345,-0.01140160,-0
 .01145266,0.01022998,0.01413991,-0.05196836,-0.00915634,-0.23882143,0.
 39345783,-0.00110802,0.03379047,-0.05508104,-0.01319682,-0.00789083,-0
 .04273063,-0.08401263,-0.00586942,0.36156304,-0.11746009,-0.10297499,-
 0.03352013,-0.04495601,-0.02733226,-0.00346949,0.00028994,-0.00632872,
 0.00678705,0.19603404,-0.06261896,-0.16827522,-0.06516838,-0.03405610,
 -0.02163842,0.02143927,-0.00238846,-0.00107641,0.00176878,0.16103878,0
 .22700160,-0.00743765,-0.05150411,-0.08409660,-0.02343381,0.01218032,-
 0.00506740,0.06670179,0.05061765,-0.00232260,0.04334476,0.05739100,0.0
 9999120,0.00520448,0.01413228,-0.00925598,-0.03287350,-0.02751531,-0.0
 1318821,-0.04530051,0.02641625,-0.02075447,-0.01457446,-0.01028177,-0.
 00461047,0.52616955,0.01826491,0.00607388,0.00819485,-0.03054150,-0.00
 057405,-0.01842391,0.07426540,0.01061054,0.00533218,-0.00612554,-0.015
 65810,-0.02519093,-0.10635916,0.17230451,-0.04921529,-0.02883809,-0.03
 142267,0.00097366,-0.01447474,-0.01624407,-0.04116306,-0.03371485,-0.0
 5469596,0.00828919,0.00367683,0.01928104,0.10533800,0.02463856,0.10262
 394,0.00452654,0.00538227,0.00622300,-0.02164771,0.03012910,-0.0115912
 7,-0.22276811,0.19524402,0.00252918,0.00274499,0.00111051,-0.01322143,
 0.02268689,-0.00956461,0.00945902,0.23360792,0.00005819,0.00010848,-0.
 00585342,0.02319684,-0.02348360,0.01976466,0.20326831,-0.33951905,-0.0
 0003564,0.00013630,0.00214904,-0.00575702,0.00483116,-0.09079990,-0.00
 159943,-0.26103408,0.46946388,-0.00337596,-0.00496602,0.00294148,-0.01
 983300,0.02500265,-0.00735399,0.00843868,-0.01081747,-0.06706297,-0.00
 058382,-0.00211208,0.00430629,0.00579576,-0.00215332,0.01175488,0.0011
 0041,0.00580455,0.05631139,0.00406520,0.00080758,0.00183616,-0.0036932
 6,-0.00237596,0.00061906,-0.01438494,0.00334492,-0.00067055,0.00125670
 ,-0.00094322,-0.00427892,-0.43155669,0.08887572,-0.06474568,0.00116418
 ,0.00367858,0.00032077,0.44553281,-0.00020379,-0.00078157,-0.00034868,
 -0.00294213,-0.00572707,0.00095385,-0.03735385,0.01279883,-0.01023839,
 0.00015076,-0.00134948,0.00352076,0.12404408,-0.06578201,0.02235929,0.
 00957293,0.00198338,0.00183669,-0.09127605,0.05838062,-0.00252468,0.00
 211865,-0.00351513,-0.00155270,0.00130918,-0.00404479,0.00034839,0.002
 09069,0.01016887,-0.00623400,0.00164852,-0.00478270,-0.05752123,0.0123
 7094,-0.02487077,0.00046606,0.00124771,-0.00402713,0.06756237,-0.01685
 019,0.03220332,-0.07676827,0.07835886,-0.08080419,-0.00028667,-0.00755
 511,0.01568972,0.00567636,0.00386867,0.00605413,-0.02793639,-0.0142053
 2,-0.03600394,-0.00352370,-0.00513316,0.01084400,-0.00074266,-0.000185
 39,-0.00205308,-0.00080582,0.00009278,-0.00028184,0.11037897,0.0645719
 5,-0.10305821,0.07472801,0.00419401,-0.00582718,0.01138460,0.00130487,
 -0.00121837,-0.00213113,-0.01089884,0.00959956,-0.01783572,-0.00545560
 ,-0.00071342,-0.00086943,-0.00182462,0.00105166,0.00230614,0.00054984,
 0.00023584,-0.00123828,-0.06162865,0.10734097,-0.08873941,0.07547761,-
 0.15934735,-0.00340412,0.01127202,-0.01944285,-0.00181050,0.00053519,-
 0.00219696,-0.01025177,0.00058855,-0.01402091,-0.00215443,0.00059158,-
 0.00131476,0.00041572,-0.00071299,0.00091922,0.00062808,0.00022137,-0.
 00075387,0.09978502,-0.08399177,0.18627108,-0.11431237,0.10738730,0.03
 712686,-0.01536578,0.01916016,0.00602350,0.00313907,0.00053414,-0.0002
 8662,0.01103756,-0.02931189,-0.01403889,-0.00017817,-0.00175624,0.0016
 4923,-0.00038255,-0.00026007,-0.00011433,0.00006184,-0.00006759,0.0000
 1825,-0.00607917,0.00966614,0.00519176,0.12433909,0.11053613,-0.204875
 66,-0.05903065,-0.00523628,0.00500989,0.00494906,0.00213422,0.00100358
 ,-0.00166461,-0.00600310,-0.03241454,-0.01983858,-0.00236547,0.0000492
 5,0.00387622,-0.00122639,0.00005859,0.00063323,0.00002013,0.00009172,-
 0.00052602,0.00660877,-0.00866207,-0.00278147,-0.10359693,0.23863683,0
 .03223637,-0.06004679,-0.07228253,0.01389070,-0.01167286,-0.01315390,0
 .00422083,-0.00345380,0.00277704,-0.00224876,-0.01552816,-0.00487461,0
 .00112883,-0.00346797,-0.00049686,-0.00225744,0.00173994,0.00199451,0.
 00017712,-0.00032853,0.00058263,-0.01105699,0.01848579,0.00758317,-0.0
 3862679,0.07348869,0.07768411,0.00895015,0.00522196,-0.00264967,-0.002
 07324,0.00247164,-0.00835509,-0.08370803,0.01446672,0.09669217,-0.0045
 3490,-0.00529296,-0.00837411,-0.02271104,-0.01962777,0.02134329,-0.018
 84539,0.02326928,0.01344654,-0.00200872,-0.00139976,0.00017062,-0.0011
 6850,-0.00022582,0.00074065,-0.00050744,-0.00007522,0.00010106,0.12564
 819,-0.00192746,-0.00003406,-0.00147946,0.00202657,0.00167573,0.000958
 48,0.00893158,-0.01164574,-0.01503487,-0.00187053,-0.00163340,-0.00314
 066,-0.01750475,-0.01575017,0.02249509,0.03160009,-0.02311311,-0.01757
 823,-0.00296746,-0.00058506,-0.00195697,-0.00008210,0.00006983,-0.0003
 6675,0.00030175,-0.00014003,0.00007276,-0.01855773,0.05124211,0.006854
 51,0.00336636,0.00188657,0.00459505,0.00418714,-0.02917480,0.10047200,
 -0.00202298,-0.14470882,-0.00311559,-0.00118424,-0.00817669,-0.0000620
 9,-0.00439723,-0.00144299,0.00791054,-0.01504246,0.00206477,-0.0014224
 7,0.00031841,-0.00124347,-0.00116999,0.00069984,0.00042319,-0.00052787
 ,-0.00032271,0.00017640,-0.11320198,0.01493616,0.17804191,-0.00711546,
 -0.01260171,-0.00986391,-0.12697849,-0.11329056,-0.04340054,-0.0058402
 3,-0.01237371,-0.00121804,-0.00371732,-0.00242051,0.00047976,-0.003436
 59,-0.00189177,-0.00032006,0.00109521,0.00131323,0.00155039,0.00003146
 ,-0.00062159,-0.00072584,0.00016055,0.00012303,0.00018851,0.00024340,0
 .00041526,-0.00035782,0.00004951,0.00038970,-0.00045385,0.13264426,-0.
 00166716,-0.00472821,-0.00266191,-0.11641985,-0.22545419,-0.06953324,0
 .00627448,0.00363001,0.00296607,-0.00047453,0.00139668,0.00067540,0.00
 103243,0.00034495,0.00160416,-0.00062015,0.00174161,0.00045725,0.00032
 834,0.00060627,-0.00043321,0.00012088,-0.00013672,-0.00002475,0.000100
 64,0.00054529,0.00022962,-0.00042884,0.00014073,-0.00065144,0.12534815
 ,0.23780917,0.01395015,0.01808828,0.00557141,-0.04407831,-0.06893665,-
 0.07265058,-0.01261515,-0.01632023,-0.00526232,0.00117468,-0.00089110,
 -0.00365048,-0.00368021,0.00167666,-0.00177724,0.00222305,-0.00128006,
 0.00050192,-0.00066171,-0.00158335,0.00096358,-0.00102225,-0.00014298,
 0.00082665,-0.00058468,-0.00015650,0.00076821,0.00092045,-0.00043562,0
 .00089954,0.04784311,0.07425149,0.07419657,-0.01244923,0.01680708,0.00
 399585,-0.14743053,0.12306884,0.03095440,-0.00808636,0.01091082,0.0091
 8462,0.00181595,-0.00063010,0.00087291,0.00009373,-0.00040629,-0.00245
 229,-0.00143932,0.00172763,-0.00469237,0.00033724,0.00000424,0.0002745
 9,0.00109530,-0.00037631,-0.00058952,-0.00199548,-0.00121112,0.0027928
 8,0.00090941,-0.00033967,0.00012175,0.01286369,-0.01359440,-0.00346913
 ,0.15428562,-0.00677460,0.00484067,0.00412530,0.12598207,-0.21650616,-
 0.04756637,0.00248487,-0.00462020,-0.00099259,0.00068268,0.00189870,-0
 .00111811,-0.00097413,-0.00010547,0.00084638,0.00123092,0.00035901,0.0
 0158662,-0.00004242,0.00012854,0.00021899,-0.00026023,0.00131812,-0.00
 080858,-0.00215740,0.00069715,0.00048131,0.00017849,-0.00022683,0.0001
 1314,0.01561047,-0.01589557,-0.00426993,-0.13596072,0.22811202,0.01436
 329,-0.01360991,-0.01074263,0.03156703,-0.04734695,-0.05350300,-0.0147
 4130,0.01788158,-0.00044765,-0.00017211,-0.00162899,0.00341348,-0.0010
 3550,0.00082859,-0.00139454,-0.00325684,0.00172417,-0.00235036,0.00063
 578,0.00013876,-0.00068053,0.00001939,-0.00139506,0.00105340,0.0041696
 0,0.00137335,-0.00075817,-0.00083393,0.00153007,0.00125439,0.00627829,
 -0.00687945,-0.00038726,-0.03699369,0.04738385,0.06454287\\0.00000145,
 -0.00000144,0.00000016,-0.00000055,-0.00000004,-0.00000082,0.00000013,
 0.00000226,0.00000045,-0.00000059,0.00000026,-0.00000092,-0.00000074,0
 .00000074,0.00000056,0.00000032,-0.00000005,0.00000140,-0.00000096,0.0
 0000164,0.00000081,0.00000074,-0.00000152,-0.00000065,0.00000119,-0.00
 000075,0.00000086,-0.00000144,0.00000050,-0.00000023,0.00000074,-0.000
 00093,-0.00000034,-0.00000030,-0.00000065,-0.00000129\\\@


 NO SCIENCE HAS EVER MADE MORE RAPID PROGRESS IN A
 SHORTER TIME THAN CHEMISTRY.
   -- MARTIN HEINRICH KLOPROTH, 1791
 (FIRST PROFESSOR OF CHEMISTRY AT THE UNIVERSITY OF BERLIN)
 Job cpu time:       0 days  0 hours  4 minutes 27.5 seconds.
 Elapsed time:       0 days  0 hours  0 minutes 16.9 seconds.
 File lengths (MBytes):  RWF=     27 Int=      0 D2E=      0 Chk=      3 Scr=      1
 Normal termination of Gaussian 16 at Wed Dec 23 22:05:22 2020.
