 Entering Gaussian System, Link 0=g16
 Initial command:
 /apps/cent7/gaussian/g16-B.01/g16-haswell/g16/l1.exe "/scratch/bell/zhao922/YARP/paper-example/KHP-network/pp_0/TS-folder/Gau-105227.inp" -scrdir="/scratch/bell/zhao922/YARP/paper-example/KHP-network/pp_0/TS-folder/"
 Entering Link 1 = /apps/cent7/gaussian/g16-B.01/g16-haswell/g16/l1.exe PID=    105230.
  
 Copyright (c) 1988-2017, Gaussian, Inc.  All Rights Reserved.
  
 This is part of the Gaussian(R) 16 program.  It is based on
 the Gaussian(R) 09 system (copyright 2009, Gaussian, Inc.),
 the Gaussian(R) 03 system (copyright 2003, Gaussian, Inc.),
 the Gaussian(R) 98 system (copyright 1998, Gaussian, Inc.),
 the Gaussian(R) 94 system (copyright 1995, Gaussian, Inc.),
 the Gaussian 92(TM) system (copyright 1992, Gaussian, Inc.),
 the Gaussian 90(TM) system (copyright 1990, Gaussian, Inc.),
 the Gaussian 88(TM) system (copyright 1988, Gaussian, Inc.),
 the Gaussian 86(TM) system (copyright 1986, Carnegie Mellon
 University), and the Gaussian 82(TM) system (copyright 1983,
 Carnegie Mellon University). Gaussian is a federally registered
 trademark of Gaussian, Inc.
  
 This software contains proprietary and confidential information,
 including trade secrets, belonging to Gaussian, Inc.
  
 This software is provided under written license and may be
 used, copied, transmitted, or stored only in accord with that
 written license.
  
 The following legend is applicable only to US Government
 contracts under FAR:
  
                    RESTRICTED RIGHTS LEGEND
  
 Use, reproduction and disclosure by the US Government is
 subject to restrictions as set forth in subparagraphs (a)
 and (c) of the Commercial Computer Software - Restricted
 Rights clause in FAR 52.227-19.
  
 Gaussian, Inc.
 340 Quinnipiac St., Bldg. 40, Wallingford CT 06492
  
  
 ---------------------------------------------------------------
 Warning -- This program may not be used in any manner that
 competes with the business of Gaussian, Inc. or will provide
 assistance to any competitor of Gaussian, Inc.  The licensee
 of this program is prohibited from giving any competitor of
 Gaussian, Inc. access to this program.  By using this program,
 the user acknowledges that Gaussian, Inc. is engaged in the
 business of creating and licensing software in the field of
 computational chemistry and represents and warrants to the
 licensee that it is not a competitor of Gaussian, Inc. and that
 it will not use this program in any manner prohibited above.
 ---------------------------------------------------------------
  

 Cite this work as:
 Gaussian 16, Revision B.01,
 M. J. Frisch, G. W. Trucks, H. B. Schlegel, G. E. Scuseria, 
 M. A. Robb, J. R. Cheeseman, G. Scalmani, V. Barone, 
 G. A. Petersson, H. Nakatsuji, X. Li, M. Caricato, A. V. Marenich, 
 J. Bloino, B. G. Janesko, R. Gomperts, B. Mennucci, H. P. Hratchian, 
 J. V. Ortiz, A. F. Izmaylov, J. L. Sonnenberg, D. Williams-Young, 
 F. Ding, F. Lipparini, F. Egidi, J. Goings, B. Peng, A. Petrone, 
 T. Henderson, D. Ranasinghe, V. G. Zakrzewski, J. Gao, N. Rega, 
 G. Zheng, W. Liang, M. Hada, M. Ehara, K. Toyota, R. Fukuda, 
 J. Hasegawa, M. Ishida, T. Nakajima, Y. Honda, O. Kitao, H. Nakai, 
 T. Vreven, K. Throssell, J. A. Montgomery, Jr., J. E. Peralta, 
 F. Ogliaro, M. J. Bearpark, J. J. Heyd, E. N. Brothers, K. N. Kudin, 
 V. N. Staroverov, T. A. Keith, R. Kobayashi, J. Normand, 
 K. Raghavachari, A. P. Rendell, J. C. Burant, S. S. Iyengar, 
 J. Tomasi, M. Cossi, J. M. Millam, M. Klene, C. Adamo, R. Cammi, 
 J. W. Ochterski, R. L. Martin, K. Morokuma, O. Farkas, 
 J. B. Foresman, and D. J. Fox, Gaussian, Inc., Wallingford CT, 2016.
 
 ******************************************
 Gaussian 16:  ES64L-G16RevB.01 20-Dec-2017
                23-Dec-2020 
 ******************************************
 %NProcShared=16
 Will use up to   16 processors via shared memory.
 %Mem=6GB
 --------------------------------------------------------------
 # B3LYP/6-31+G* OPT=(TS, CALCALL, NOEIGEN, maxcycles=100) Freq
 --------------------------------------------------------------
 1/5=1,6=100,10=4,11=1,18=20,26=3,38=1/1,3;
 2/9=110,12=2,17=6,18=5,40=1/2;
 3/5=1,6=6,7=11,11=2,25=1,30=1,71=2,74=-5,140=1/1,2,3;
 4//1;
 5/5=2,38=5/2;
 8/6=4,10=90,11=11/1;
 11/6=1,8=1,9=11,15=111,16=1/1,2,10;
 10/6=1/2;
 6/7=2,8=2,9=2,10=2,18=1,28=1/1;
 7/10=1,25=1/1,2,3,16;
 1/5=1,6=100,10=4,11=1,18=20,26=3/3(3);
 2/9=110/2;
 7/8=1,9=1,25=1,44=-1/16;
 99//99;
 2/9=110/2;
 3/5=1,6=6,7=11,11=2,25=1,30=1,71=2,74=-5,140=1/1,2,3;
 4/5=5,16=3,69=1/1;
 5/5=2,38=5/2;
 8/6=4,10=90,11=11/1;
 11/6=1,8=1,9=11,15=111,16=1/1,2,10;
 10/6=1/2;
 7/10=1,25=1/1,2,3,16;
 1/5=1,6=100,10=4,11=1,18=20,26=3/3(-8);
 2/9=110/2;
 6/7=2,8=2,9=2,10=2,18=1,19=2,28=1/1;
 7/8=1,9=1,25=1,44=-1/16;
 99//99;
 ----------
 pp_21_0 TS
 ----------
 Symbolic Z-matrix:
 Charge =  0 Multiplicity = 1
 C                     0.76256   1.13265  -2.58849 
 C                     0.52068   0.67501  -1.16398 
 C                     1.86534   0.23152  -0.56279 
 O                     0.42817   2.47648  -2.42055 
 O                     1.62565   2.55528  -0.80379 
 O                     2.36367   0.59014   0.45518 
 H                     1.21531   3.42407  -0.86268 
 H                     1.78915   1.01254  -2.95198 
 H                     0.08683   0.65301  -3.31328 
 H                     2.30272  -0.58426  -1.18293 
 H                    -0.49534   1.91814  -1.70565 
 H                     0.038    -0.30169  -1.05256 
 
 Add virtual bond connecting atoms H11        and O4         Dist= 2.45D+00.
 Add virtual bond connecting atoms O5         and O4         Dist= 3.80D+00.
 Add virtual bond connecting atoms H7         and O4         Dist= 3.75D+00.

 GradGradGradGradGradGradGradGradGradGradGradGradGradGradGradGradGradGrad
 Berny optimization.
 Initialization pass.
                           ----------------------------
                           !    Initial Parameters    !
                           ! (Angstroms and Degrees)  !
 --------------------------                            --------------------------
 ! Name  Definition              Value          Derivative Info.                !
 --------------------------------------------------------------------------------
 ! R1    R(1,2)                  1.5156         calculate D2E/DX2 analytically  !
 ! R2    R(1,4)                  1.395          calculate D2E/DX2 analytically  !
 ! R3    R(1,8)                  1.0956         calculate D2E/DX2 analytically  !
 ! R4    R(1,9)                  1.1009         calculate D2E/DX2 analytically  !
 ! R5    R(2,3)                  1.5383         calculate D2E/DX2 analytically  !
 ! R6    R(2,12)                 1.0951         calculate D2E/DX2 analytically  !
 ! R7    R(3,6)                  1.1888         calculate D2E/DX2 analytically  !
 ! R8    R(3,10)                 1.1142         calculate D2E/DX2 analytically  !
 ! R9    R(4,5)                  2.0135         calculate D2E/DX2 analytically  !
 ! R10   R(4,7)                  1.9861         calculate D2E/DX2 analytically  !
 ! R11   R(4,11)                 1.2945         calculate D2E/DX2 analytically  !
 ! R12   R(5,7)                  0.9626         calculate D2E/DX2 analytically  !
 ! A1    A(2,1,4)               98.0173         calculate D2E/DX2 analytically  !
 ! A2    A(2,1,8)              115.3557         calculate D2E/DX2 analytically  !
 ! A3    A(2,1,9)              112.9093         calculate D2E/DX2 analytically  !
 ! A4    A(4,1,8)              111.7248         calculate D2E/DX2 analytically  !
 ! A5    A(4,1,9)              110.6001         calculate D2E/DX2 analytically  !
 ! A6    A(8,1,9)              107.9947         calculate D2E/DX2 analytically  !
 ! A7    A(1,2,3)              108.3536         calculate D2E/DX2 analytically  !
 ! A8    A(1,2,12)             115.8015         calculate D2E/DX2 analytically  !
 ! A9    A(3,2,12)              95.0706         calculate D2E/DX2 analytically  !
 ! A10   A(2,3,6)              127.8896         calculate D2E/DX2 analytically  !
 ! A11   A(2,3,10)             109.6768         calculate D2E/DX2 analytically  !
 ! A12   A(6,3,10)             122.204          calculate D2E/DX2 analytically  !
 ! A13   A(1,4,5)               89.5308         calculate D2E/DX2 analytically  !
 ! A14   A(1,4,7)              117.3267         calculate D2E/DX2 analytically  !
 ! A15   A(1,4,11)              79.7459         calculate D2E/DX2 analytically  !
 ! A16   A(5,4,11)              89.8692         calculate D2E/DX2 analytically  !
 ! A17   A(7,4,11)              93.1726         calculate D2E/DX2 analytically  !
 ! D1    D(4,1,2,3)           -114.9404         calculate D2E/DX2 analytically  !
 ! D2    D(4,1,2,12)           139.7628         calculate D2E/DX2 analytically  !
 ! D3    D(8,1,2,3)              3.771          calculate D2E/DX2 analytically  !
 ! D4    D(8,1,2,12)          -101.5259         calculate D2E/DX2 analytically  !
 ! D5    D(9,1,2,3)            128.6192         calculate D2E/DX2 analytically  !
 ! D6    D(9,1,2,12)            23.3224         calculate D2E/DX2 analytically  !
 ! D7    D(2,1,4,5)             49.2148         calculate D2E/DX2 analytically  !
 ! D8    D(2,1,4,7)             47.5339         calculate D2E/DX2 analytically  !
 ! D9    D(2,1,4,11)           -40.7372         calculate D2E/DX2 analytically  !
 ! D10   D(8,1,4,5)            -72.2281         calculate D2E/DX2 analytically  !
 ! D11   D(8,1,4,7)            -73.9091         calculate D2E/DX2 analytically  !
 ! D12   D(8,1,4,11)          -162.1801         calculate D2E/DX2 analytically  !
 ! D13   D(9,1,4,5)            167.4383         calculate D2E/DX2 analytically  !
 ! D14   D(9,1,4,7)            165.7573         calculate D2E/DX2 analytically  !
 ! D15   D(9,1,4,11)            77.4863         calculate D2E/DX2 analytically  !
 ! D16   D(1,2,3,6)            127.2559         calculate D2E/DX2 analytically  !
 ! D17   D(1,2,3,10)           -58.2167         calculate D2E/DX2 analytically  !
 ! D18   D(12,2,3,6)          -113.4153         calculate D2E/DX2 analytically  !
 ! D19   D(12,2,3,10)           61.1121         calculate D2E/DX2 analytically  !
 --------------------------------------------------------------------------------
 Trust Radius=3.00D-01 FncErr=1.00D-07 GrdErr=1.00D-06 EigMax=2.50D+02 EigMin=1.00D-04
 Number of steps in this run=    100 maximum allowed number of steps=    100.
 Search for a saddle point of order  1.
 GradGradGradGradGradGradGradGradGradGradGradGradGradGradGradGradGradGrad

                          Input orientation:                          
 ---------------------------------------------------------------------
 Center     Atomic      Atomic             Coordinates (Angstroms)
 Number     Number       Type             X           Y           Z
 ---------------------------------------------------------------------
      1          6           0        0.762555    1.132652   -2.588490
      2          6           0        0.520678    0.675012   -1.163981
      3          6           0        1.865338    0.231524   -0.562785
      4          8           0        0.428170    2.476479   -2.420550
      5          8           0        1.625649    2.555282   -0.803788
      6          8           0        2.363672    0.590137    0.455177
      7          1           0        1.215313    3.424074   -0.862677
      8          1           0        1.789150    1.012544   -2.951976
      9          1           0        0.086834    0.653010   -3.313284
     10          1           0        2.302718   -0.584256   -1.182931
     11          1           0       -0.495338    1.918135   -1.705645
     12          1           0        0.038000   -0.301692   -1.052555
 ---------------------------------------------------------------------
                    Distance matrix (angstroms):
                    1          2          3          4          5
     1  C    0.000000
     2  C    1.515640   0.000000
     3  C    2.476215   1.538255   0.000000
     4  O    1.394951   2.198365   3.249087   0.000000
     5  O    2.440076   2.210456   2.348486   2.013476   0.000000
     6  O    3.481639   2.454690   1.188775   3.946424   2.447747
     7  H    2.904141   2.851428   3.271826   1.986076   0.962623
     8  H    1.095648   2.218079   2.514763   2.068281   2.649808
     9  H    1.100900   2.192763   3.302419   2.058767   3.504877
    10  H    2.701013   2.182151   1.114172   3.796542   3.234018
    11  H    1.725889   1.694415   3.118265   1.294490   2.391211
    12  H    2.222930   1.095146   1.965543   3.121198   3.277928
                    6          7          8          9         10
     6  O    0.000000
     7  H    3.329665   0.000000
     8  H    3.480976   3.241903   0.000000
     9  H    4.403322   3.867523   1.776988   0.000000
    10  H    2.016510   4.165540   2.437836   3.313514   0.000000
    11  H    3.821867   2.429974   2.755417   2.126962   3.790027
    12  H    2.911591   3.911963   2.898541   2.454534   2.285998
                   11         12
    11  H    0.000000
    12  H    2.374575   0.000000
 Stoichiometry    C3H6O3
 Framework group  C1[X(C3H6O3)]
 Deg. of freedom    30
 Full point group                 C1      NOp   1
 Largest Abelian subgroup         C1      NOp   1
 Largest concise Abelian subgroup C1      NOp   1
                         Standard orientation:                         
 ---------------------------------------------------------------------
 Center     Atomic      Atomic             Coordinates (Angstroms)
 Number     Number       Type             X           Y           Z
 ---------------------------------------------------------------------
      1          6           0       -1.149538   -0.798335   -0.372057
      2          6           0       -0.007713   -0.734231    0.622574
      3          6           0        1.304944   -0.550589   -0.158090
      4          8           0       -1.805925    0.371878    0.009580
      5          8           0       -0.055000    1.362324   -0.076237
      6          8           0        2.139440    0.280766    0.002074
      7          1           0       -0.699166    2.005163    0.237533
      8          1           0       -0.854838   -0.772426   -1.427010
      9          1           0       -1.799932   -1.673812   -0.222025
     10          1           0        1.436695   -1.393945   -0.874171
     11          1           0       -1.479589   -0.098417    1.170627
     12          1           0        0.282546   -1.687363    1.077145
 ---------------------------------------------------------------------
 Rotational constants (GHZ):           6.7149389           2.7672289           2.1634599
 Standard basis: 6-31+G(d) (6D, 7F)
 There are   126 symmetry adapted cartesian basis functions of A   symmetry.
 There are   126 symmetry adapted basis functions of A   symmetry.
   126 basis functions,   216 primitive gaussians,   126 cartesian basis functions
    24 alpha electrons       24 beta electrons
       nuclear repulsion energy       245.9586280809 Hartrees.
 NAtoms=   12 NActive=   12 NUniq=   12 SFac= 1.00D+00 NAtFMM=   60 NAOKFM=F Big=F
 Integral buffers will be    131072 words long.
 Raffenetti 2 integral format.
 Two-electron integral symmetry is turned on.
 One-electron integrals computed using PRISM.
 NBasis=   126 RedAO= T EigKep=  1.47D-04  NBF=   126
 NBsUse=   126 1.00D-06 EigRej= -1.00D+00 NBFU=   126
 ExpMin= 4.38D-02 ExpMax= 5.48D+03 ExpMxC= 8.25D+02 IAcc=3 IRadAn=         5 AccDes= 0.00D+00
 Harris functional with IExCor=  402 and IRadAn=       5 diagonalized for initial guess.
 HarFok:  IExCor=  402 AccDes= 0.00D+00 IRadAn=         5 IDoV= 1 UseB2=F ITyADJ=14
 ICtDFT=  3500011 ScaDFX=  1.000000  1.000000  1.000000  1.000000
 FoFCou: FMM=F IPFlag=           0 FMFlag=      100000 FMFlg1=           0
         NFxFlg=           0 DoJE=T BraDBF=F KetDBF=T FulRan=T
         wScrn=  0.000000 ICntrl=       500 IOpCl=  0 I1Cent=   200000004 NGrid=           0
         NMat0=    1 NMatS0=      1 NMatT0=    0 NMatD0=    1 NMtDS0=    0 NMtDT0=    0
 Petite list used in FoFCou.
 Keep R1 ints in memory in canonical form, NReq=47237537.
 Requested convergence on RMS density matrix=1.00D-08 within 128 cycles.
 Requested convergence on MAX density matrix=1.00D-06.
 Requested convergence on             energy=1.00D-06.
 No special actions if energy rises.
 EnCoef did     2 forward-backward iterations
 EnCoef did     3 forward-backward iterations
 EnCoef did     5 forward-backward iterations
 SCF Done:  E(RB3LYP) =  -343.272007443     A.U. after   19 cycles
            NFock= 19  Conv=0.93D-08     -V/T= 2.0084
 DoSCS=F DFT=T ScalE2(SS,OS)=  1.000000  1.000000
 Range of M.O.s used for correlation:     1   126
 NBasis=   126 NAE=    24 NBE=    24 NFC=     0 NFV=     0
 NROrb=    126 NOA=    24 NOB=    24 NVA=   102 NVB=   102

 **** Warning!!: The largest alpha MO coefficient is  0.27650195D+02


 **** Warning!!: The smallest alpha delta epsilon is  0.63086433D-01

 Symmetrizing basis deriv contribution to polar:
 IMax=3 JMax=2 DiffMx= 0.00D+00
 G2DrvN: will do    13 centers at a time, making    1 passes.
 Calling FoFCou, ICntrl=  3107 FMM=F I1Cent=   0 AccDes= 0.00D+00.
 End of G2Drv F.D. properties file   721 does not exist.
 End of G2Drv F.D. properties file   722 does not exist.
 End of G2Drv F.D. properties file   788 does not exist.
          IDoAtm=111111111111
          Differentiating once with respect to electric field.
                with respect to dipole field.
          Differentiating once with respect to nuclear coordinates.
 Keep R1 ints in memory in canonical form, NReq=47193552.
          There are    39 degrees of freedom in the 1st order CPHF.  IDoFFX=6 NUNeed=     3.
     36 vectors produced by pass  0 Test12= 6.28D-15 2.56D-09 XBig12= 2.88D+02 1.25D+01.
 AX will form    36 AO Fock derivatives at one time.
     36 vectors produced by pass  1 Test12= 6.28D-15 2.56D-09 XBig12= 1.15D+02 2.05D+00.
     36 vectors produced by pass  2 Test12= 6.28D-15 2.56D-09 XBig12= 2.22D+00 2.04D-01.
     36 vectors produced by pass  3 Test12= 6.28D-15 2.56D-09 XBig12= 9.00D-03 1.69D-02.
     36 vectors produced by pass  4 Test12= 6.28D-15 2.56D-09 XBig12= 1.26D-05 4.51D-04.
     32 vectors produced by pass  5 Test12= 6.28D-15 2.56D-09 XBig12= 1.35D-08 1.44D-05.
      5 vectors produced by pass  6 Test12= 6.28D-15 2.56D-09 XBig12= 1.04D-11 4.51D-07.
      2 vectors produced by pass  7 Test12= 6.28D-15 2.56D-09 XBig12= 1.04D-14 1.39D-08.
 InvSVY:  IOpt=1 It=  1 EMax= 6.22D-15
 Solved reduced A of dimension   219 with    39 vectors.
 Isotropic polarizability for W=    0.000000       66.24 Bohr**3.
 End of Minotr F.D. properties file   721 does not exist.
 End of Minotr F.D. properties file   722 does not exist.
 End of Minotr F.D. properties file   788 does not exist.

 **********************************************************************

            Population analysis using the SCF Density.

 **********************************************************************

 Orbital symmetries:
       Occupied  (A) (A) (A) (A) (A) (A) (A) (A) (A) (A) (A) (A)
                 (A) (A) (A) (A) (A) (A) (A) (A) (A) (A) (A) (A)
       Virtual   (A) (A) (A) (A) (A) (A) (A) (A) (A) (A) (A) (A)
                 (A) (A) (A) (A) (A) (A) (A) (A) (A) (A) (A) (A)
                 (A) (A) (A) (A) (A) (A) (A) (A) (A) (A) (A) (A)
                 (A) (A) (A) (A) (A) (A) (A) (A) (A) (A) (A) (A)
                 (A) (A) (A) (A) (A) (A) (A) (A) (A) (A) (A) (A)
                 (A) (A) (A) (A) (A) (A) (A) (A) (A) (A) (A) (A)
                 (A) (A) (A) (A) (A) (A) (A) (A) (A) (A) (A) (A)
                 (A) (A) (A) (A) (A) (A) (A) (A) (A) (A) (A) (A)
                 (A) (A) (A) (A) (A) (A)
 The electronic state is 1-A.
 Alpha  occ. eigenvalues --  -19.22543 -19.19720 -19.17215 -10.29586 -10.27147
 Alpha  occ. eigenvalues --  -10.24490  -1.07926  -1.06970  -0.96814  -0.79169
 Alpha  occ. eigenvalues --   -0.66174  -0.59275  -0.53661  -0.52142  -0.48583
 Alpha  occ. eigenvalues --   -0.46009  -0.45479  -0.41741  -0.39167  -0.36659
 Alpha  occ. eigenvalues --   -0.34227  -0.31630  -0.27830  -0.24251
 Alpha virt. eigenvalues --   -0.17942  -0.03365  -0.02447   0.00045   0.02342
 Alpha virt. eigenvalues --    0.03353   0.03833   0.06238   0.06946   0.07221
 Alpha virt. eigenvalues --    0.08143   0.08566   0.11953   0.12985   0.15180
 Alpha virt. eigenvalues --    0.15708   0.17895   0.18649   0.19361   0.20669
 Alpha virt. eigenvalues --    0.22981   0.23076   0.25266   0.25693   0.26484
 Alpha virt. eigenvalues --    0.27890   0.28253   0.28909   0.30237   0.31799
 Alpha virt. eigenvalues --    0.33292   0.34085   0.35425   0.38046   0.42621
 Alpha virt. eigenvalues --    0.44734   0.59685   0.65453   0.65875   0.68641
 Alpha virt. eigenvalues --    0.71296   0.76305   0.80720   0.82954   0.84586
 Alpha virt. eigenvalues --    0.90799   0.91657   0.96273   0.97000   1.01228
 Alpha virt. eigenvalues --    1.04090   1.08018   1.11299   1.15135   1.17283
 Alpha virt. eigenvalues --    1.19586   1.21982   1.23622   1.28653   1.29156
 Alpha virt. eigenvalues --    1.32313   1.33889   1.39018   1.43238   1.44451
 Alpha virt. eigenvalues --    1.53721   1.59946   1.63687   1.65955   1.67319
 Alpha virt. eigenvalues --    1.74793   1.75837   1.81244   1.83214   1.84857
 Alpha virt. eigenvalues --    1.88599   1.91491   1.92651   1.98991   2.02461
 Alpha virt. eigenvalues --    2.08144   2.10192   2.17959   2.20055   2.32360
 Alpha virt. eigenvalues --    2.35310   2.41738   2.46492   2.49498   2.56768
 Alpha virt. eigenvalues --    2.61420   2.63764   2.67997   2.85987   2.92438
 Alpha virt. eigenvalues --    3.10229   4.11393   4.15204   4.23882   4.31364
 Alpha virt. eigenvalues --    4.36027   4.49760
          Condensed to atoms (all electrons):
               1          2          3          4          5          6
     1  C    5.510450   0.107635  -0.004389   0.023870  -0.074832   0.005151
     2  C    0.107635   6.558774  -0.292775  -0.268678   0.080868  -0.092794
     3  C   -0.004389  -0.292775   5.308653   0.010594   0.001319   0.519955
     4  O    0.023870  -0.268678   0.010594   8.629537  -0.054359  -0.011824
     5  O   -0.074832   0.080868   0.001319  -0.054359   8.515651  -0.079875
     6  O    0.005151  -0.092794   0.519955  -0.011824  -0.079875   8.013440
     7  H    0.010195   0.008903  -0.003247  -0.024390   0.164229   0.005488
     8  H    0.438164  -0.165475   0.068393  -0.050425   0.002405   0.002501
     9  H    0.372067  -0.035922  -0.015878  -0.019252   0.006363  -0.000538
    10  H   -0.001608  -0.121600   0.368485  -0.003627   0.000945  -0.065032
    11  H    0.015675   0.023445   0.067105   0.044189   0.005718   0.003476
    12  H   -0.066037   0.306552   0.002362   0.012160   0.007385  -0.009331
               7          8          9         10         11         12
     1  C    0.010195   0.438164   0.372067  -0.001608   0.015675  -0.066037
     2  C    0.008903  -0.165475  -0.035922  -0.121600   0.023445   0.306552
     3  C   -0.003247   0.068393  -0.015878   0.368485   0.067105   0.002362
     4  O   -0.024390  -0.050425  -0.019252  -0.003627   0.044189   0.012160
     5  O    0.164229   0.002405   0.006363   0.000945   0.005718   0.007385
     6  O    0.005488   0.002501  -0.000538  -0.065032   0.003476  -0.009331
     7  H    0.341397   0.000090  -0.000165  -0.000027   0.001886  -0.000333
     8  H    0.000090   0.513142  -0.038358   0.003850   0.013343   0.003036
     9  H   -0.000165  -0.038358   0.519263  -0.000827  -0.015267  -0.000138
    10  H   -0.000027   0.003850  -0.000827   0.661890   0.000792  -0.000822
    11  H    0.001886   0.013343  -0.015267   0.000792   0.519125  -0.000684
    12  H   -0.000333   0.003036  -0.000138  -0.000822  -0.000684   0.528518
 Mulliken charges:
               1
     1  C   -0.336340
     2  C   -0.108932
     3  C   -0.030577
     4  O   -0.287794
     5  O   -0.575815
     6  O   -0.290615
     7  H    0.495974
     8  H    0.209334
     9  H    0.228653
    10  H    0.157582
    11  H    0.321198
    12  H    0.217332
 Sum of Mulliken charges =  -0.00000
 Mulliken charges with hydrogens summed into heavy atoms:
               1
     1  C    0.101647
     2  C    0.108401
     3  C    0.127005
     4  O    0.033404
     5  O   -0.079841
     6  O   -0.290615
 APT charges:
               1
     1  C    0.174515
     2  C   -0.458837
     3  C    0.872146
     4  O   -0.183422
     5  O   -0.192701
     6  O   -0.640524
     7  H    0.268929
     8  H   -0.009616
     9  H    0.039934
    10  H   -0.082092
    11  H    0.122245
    12  H    0.089422
 Sum of APT charges =  -0.00000
 APT charges with hydrogens summed into heavy atoms:
               1
     1  C    0.204833
     2  C   -0.369415
     3  C    0.790054
     4  O   -0.061176
     5  O    0.076228
     6  O   -0.640524
 Electronic spatial extent (au):  <R**2>=            568.5446
 Charge=             -0.0000 electrons
 Dipole moment (field-independent basis, Debye):
    X=             -2.2654    Y=             -2.9125    Z=              0.3866  Tot=              3.7100
 Quadrupole moment (field-independent basis, Debye-Ang):
   XX=            -43.4164   YY=            -31.4423   ZZ=            -35.9330
   XY=             -2.2220   XZ=             -1.7293   YZ=              1.1316
 Traceless Quadrupole moment (field-independent basis, Debye-Ang):
   XX=             -6.4859   YY=              5.4883   ZZ=              0.9976
   XY=             -2.2220   XZ=             -1.7293   YZ=              1.1316
 Octapole moment (field-independent basis, Debye-Ang**2):
  XXX=             -7.5753  YYY=             13.6372  ZZZ=             -2.8790  XYY=             -4.7224
  XXY=             -5.9969  XXZ=              2.2444  XZZ=             -1.3200  YZZ=              1.1099
  YYZ=              2.1939  XYZ=             -1.9274
 Hexadecapole moment (field-independent basis, Debye-Ang**3):
 XXXX=           -492.1853 YYYY=           -172.2603 ZZZZ=            -84.9270 XXXY=              0.4110
 XXXZ=             -4.0494 YYYX=            -10.6954 YYYZ=              3.1948 ZZZX=             -0.7609
 ZZZY=              2.2066 XXYY=            -97.5054 XXZZ=            -82.1411 YYZZ=            -47.4412
 XXYZ=              1.2545 YYXZ=             -1.3533 ZZXY=             -1.6850
 N-N= 2.459586280809D+02 E-N=-1.296526332580D+03  KE= 3.404099812513D+02
  Exact polarizability:  78.017   0.782  69.773  -2.544  -3.100  50.938
 Approx polarizability: 144.249   3.828 163.711   1.655 -35.479  90.164
 Calling FoFJK, ICntrl=    100127 FMM=F ISym2X=0 I1Cent= 0 IOpClX= 0 NMat=1 NMatS=1 NMatT=0.
 ***** Axes restored to original set *****
 -------------------------------------------------------------------
 Center     Atomic                   Forces (Hartrees/Bohr)
 Number     Number              X              Y              Z
 -------------------------------------------------------------------
      1        6           0.014850251   -0.016485291   -0.004195670
      2        6           0.037612220   -0.039516231   -0.012503290
      3        6          -0.016910293   -0.013975795   -0.018511738
      4        8          -0.056777971   -0.004126509   -0.001153543
      5        8          -0.004286876    0.009473153    0.008998275
      6        8           0.009340425    0.000599794    0.026479613
      7        1           0.001674146    0.016874377    0.001040053
      8        1           0.001907914    0.004783183   -0.001185758
      9        1          -0.002567965   -0.000706161    0.002669557
     10        1           0.007927186    0.000845804   -0.001081333
     11        1           0.034578546    0.037915597   -0.009264625
     12        1          -0.027347583    0.004318078    0.008708459
 -------------------------------------------------------------------
 Cartesian Forces:  Max     0.056777971 RMS     0.018740433
 FormGI is forming the generalized inverse of G from B-inverse, IUseBI=4.

 GradGradGradGradGradGradGradGradGradGradGradGradGradGradGradGradGradGrad
 Berny optimization.
 Internal  Forces:  Max     0.082744100 RMS     0.023881685
 Search for a saddle point.
 Step number   1 out of a maximum of  100
 All quantities printed in internal units (Hartrees-Bohrs-Radians)
 Swapping is turned off.
 Second derivative matrix not updated -- analytic derivatives used.
 ITU=  0
     Eigenvalues ---   -0.44523  -0.08060  -0.01223  -0.00104   0.00477
     Eigenvalues ---    0.02255   0.03163   0.03931   0.04974   0.06013
     Eigenvalues ---    0.06693   0.07005   0.07585   0.07778   0.12363
     Eigenvalues ---    0.13657   0.16075   0.18734   0.21150   0.23110
     Eigenvalues ---    0.27257   0.29551   0.31913   0.33182   0.33732
     Eigenvalues ---    0.34607   0.39884   0.53858   0.97878   1.11153
 Eigenvectors required to have negative eigenvalues:
                          R11       A15       R9        D9        D7
   1                    0.53568  -0.39671  -0.34527   0.31169   0.28520
                          A2        D12       A14       D15       A13
   1                    0.19436   0.15268   0.14859   0.14318   0.14236
 RFO step:  Lambda0=3.834787035D-03 Lambda=-1.05508328D-01.
 Linear search not attempted -- option 19 set.
 Maximum step size (   0.300) exceeded in Quadratic search.
    -- Step size scaled by   0.403
 Iteration  1 RMS(Cart)=  0.12997816 RMS(Int)=  0.00901634
 Iteration  2 RMS(Cart)=  0.01122062 RMS(Int)=  0.00105698
 Iteration  3 RMS(Cart)=  0.00008574 RMS(Int)=  0.00105543
 Iteration  4 RMS(Cart)=  0.00000002 RMS(Int)=  0.00105543
 Variable       Old X    -DE/DX   Delta X   Delta X   Delta X     New X
                                 (Linear)    (Quad)   (Total)
    R1        2.86414   0.01562   0.00000   0.00518   0.00518   2.86933
    R2        2.63608   0.06383   0.00000   0.04656   0.04656   2.68263
    R3        2.07048   0.00166   0.00000  -0.00096  -0.00096   2.06951
    R4        2.08040   0.00013   0.00000  -0.00275  -0.00275   2.07765
    R5        2.90688   0.00662   0.00000  -0.05720  -0.05720   2.84969
    R6        2.06953   0.00909   0.00000   0.00380   0.00380   2.07332
    R7        2.24646   0.02677   0.00000   0.01988   0.01988   2.26634
    R8        2.10548   0.00309   0.00000   0.00609   0.00609   2.11157
    R9        3.80492   0.00480   0.00000  -0.11374  -0.11379   3.69113
   R10        3.75314   0.00933   0.00000   0.05422   0.05413   3.80727
   R11        2.44623  -0.04614   0.00000  -0.18074  -0.18074   2.26549
   R12        1.81909   0.00093   0.00000   0.00299   0.00329   1.82238
    A1        1.71072   0.08274   0.00000   0.05918   0.05933   1.77006
    A2        2.01334  -0.01684   0.00000   0.03052   0.03137   2.04471
    A3        1.97064  -0.02985   0.00000  -0.05765  -0.05737   1.91327
    A4        1.94997  -0.01604   0.00000  -0.04626  -0.04732   1.90264
    A5        1.93034  -0.03448   0.00000  -0.00681  -0.00613   1.92421
    A6        1.88486   0.01497   0.00000   0.01922   0.01906   1.90393
    A7        1.89113   0.02949   0.00000   0.06885   0.06857   1.95969
    A8        2.02112  -0.00112   0.00000  -0.03629  -0.03957   1.98155
    A9        1.65930  -0.00592   0.00000   0.06568   0.06619   1.72549
   A10        2.23209  -0.00032   0.00000  -0.02830  -0.02830   2.20379
   A11        1.91422   0.00594   0.00000   0.03285   0.03285   1.94707
   A12        2.13286  -0.00576   0.00000  -0.00416  -0.00416   2.12871
   A13        1.56261   0.04715   0.00000   0.05467   0.05591   1.61852
   A14        2.04774   0.04736   0.00000   0.06150   0.06063   2.10837
   A15        1.39183   0.04243   0.00000   0.06157   0.06035   1.45218
   A16        1.56851  -0.00469   0.00000   0.03510   0.03372   1.60224
   A17        1.62617  -0.01008   0.00000   0.01784   0.01557   1.64173
    D1       -2.00609  -0.01645   0.00000   0.10864   0.10691  -1.89917
    D2        2.43932  -0.02622   0.00000   0.00579   0.00554   2.44486
    D3        0.06582   0.00859   0.00000   0.10325   0.10317   0.16898
    D4       -1.77196  -0.00118   0.00000   0.00040   0.00179  -1.77017
    D5        2.24483  -0.01081   0.00000   0.10555   0.10514   2.34997
    D6        0.40705  -0.02059   0.00000   0.00270   0.00377   0.41082
    D7        0.85896   0.00196   0.00000   0.08619   0.08621   0.94517
    D8        0.82962   0.01693   0.00000   0.10137   0.10160   0.93122
    D9       -0.71100   0.01559   0.00000   0.06090   0.05937  -0.65163
   D10       -1.26062  -0.01787   0.00000   0.03722   0.03814  -1.22248
   D11       -1.28996  -0.00290   0.00000   0.05240   0.05353  -1.23642
   D12       -2.83058  -0.00424   0.00000   0.01193   0.01130  -2.81928
   D13        2.92235  -0.00262   0.00000   0.04844   0.04884   2.97119
   D14        2.89301   0.01235   0.00000   0.06362   0.06423   2.95724
   D15        1.35239   0.01101   0.00000   0.02315   0.02200   1.37439
   D16        2.22103   0.00461   0.00000   0.05830   0.05631   2.27734
   D17       -1.01607   0.00277   0.00000   0.06335   0.06136  -0.95471
   D18       -1.97947   0.00934   0.00000   0.06677   0.06876  -1.91071
   D19        1.06661   0.00750   0.00000   0.07182   0.07381   1.14042
         Item               Value     Threshold  Converged?
 Maximum Force            0.082744     0.000450     NO 
 RMS     Force            0.023882     0.000300     NO 
 Maximum Displacement     0.327263     0.001800     NO 
 RMS     Displacement     0.132379     0.001200     NO 
 Predicted change in Energy=-3.322154D-02
 GradGradGradGradGradGradGradGradGradGradGradGradGradGradGradGradGradGrad

                          Input orientation:                          
 ---------------------------------------------------------------------
 Center     Atomic      Atomic             Coordinates (Angstroms)
 Number     Number       Type             X           Y           Z
 ---------------------------------------------------------------------
      1          6           0        0.728514    1.109877   -2.576336
      2          6           0        0.534095    0.542003   -1.181630
      3          6           0        1.842421    0.185445   -0.521948
      4          8           0        0.396444    2.474978   -2.372725
      5          8           0        1.683106    2.667551   -0.915795
      6          8           0        2.190492    0.502727    0.581000
      7          1           0        1.298611    3.551854   -0.928590
      8          1           0        1.734050    1.047495   -3.005677
      9          1           0        0.012643    0.643208   -3.268090
     10          1           0        2.446124   -0.508919   -1.155963
     11          1           0       -0.428816    2.016491   -1.633832
     12          1           0        0.065055   -0.449808   -1.173899
 ---------------------------------------------------------------------
                    Distance matrix (angstroms):
                    1          2          3          4          5
     1  C    0.000000
     2  C    1.518382   0.000000
     3  C    2.513140   1.507989   0.000000
     4  O    1.419587   2.274653   3.279967   0.000000
     5  O    2.468803   2.430813   2.518203   1.953261   0.000000
     6  O    3.531965   2.419103   1.199298   3.979054   2.680354
     7  H    3.000555   3.115721   3.434210   2.014719   0.964362
     8  H    1.095139   2.241107   2.631308   2.056094   2.644765
     9  H    1.099443   2.153014   3.331506   2.074696   3.524444
    10  H    2.754659   2.181961   1.117396   3.819076   3.275643
    11  H    1.746331   1.818185   3.122103   1.198844   2.323719
    12  H    2.199914   1.097154   1.996902   3.178266   3.521738
                    6          7          8          9         10
     6  O    0.000000
     7  H    3.517313   0.000000
     8  H    3.656414   3.282638   0.000000
     9  H    4.424732   3.948062   1.787611   0.000000
    10  H    2.026281   4.225916   2.520102   3.422033   0.000000
    11  H    3.749364   2.416342   2.738412   2.179814   3.856337
    12  H    2.916244   4.194656   2.895319   2.362851   2.381871
                   11         12
    11  H    0.000000
    12  H    2.556966   0.000000
 Stoichiometry    C3H6O3
 Framework group  C1[X(C3H6O3)]
 Deg. of freedom    30
 Full point group                 C1      NOp   1
 Largest Abelian subgroup         C1      NOp   1
 Largest concise Abelian subgroup C1      NOp   1
                         Standard orientation:                         
 ---------------------------------------------------------------------
 Center     Atomic      Atomic             Coordinates (Angstroms)
 Number     Number       Type             X           Y           Z
 ---------------------------------------------------------------------
      1          6           0       -1.109749   -0.865943   -0.356012
      2          6           0        0.120359   -0.855153    0.534045
      3          6           0        1.367669   -0.466533   -0.219097
      4          8           0       -1.809653    0.274488    0.118098
      5          8           0       -0.269079    1.445818   -0.146189
      6          8           0        2.168441    0.361797    0.113989
      7          1           0       -0.903737    2.070981    0.223100
      8          1           0       -0.947516   -0.762302   -1.434097
      9          1           0       -1.694656   -1.777383   -0.166444
     10          1           0        1.526781   -1.117212   -1.113455
     11          1           0       -1.396770   -0.091224    1.182527
     12          1           0        0.428553   -1.853914    0.867574
 ---------------------------------------------------------------------
 Rotational constants (GHZ):           6.1896151           2.7025689           2.0625439
 Standard basis: 6-31+G(d) (6D, 7F)
 There are   126 symmetry adapted cartesian basis functions of A   symmetry.
 There are   126 symmetry adapted basis functions of A   symmetry.
   126 basis functions,   216 primitive gaussians,   126 cartesian basis functions
    24 alpha electrons       24 beta electrons
       nuclear repulsion energy       242.0467979757 Hartrees.
 NAtoms=   12 NActive=   12 NUniq=   12 SFac= 1.00D+00 NAtFMM=   60 NAOKFM=F Big=F
 Integral buffers will be    131072 words long.
 Raffenetti 2 integral format.
 Two-electron integral symmetry is turned on.
 One-electron integrals computed using PRISM.
 NBasis=   126 RedAO= T EigKep=  1.57D-04  NBF=   126
 NBsUse=   126 1.00D-06 EigRej= -1.00D+00 NBFU=   126
 Initial guess from the checkpoint file:  "/scratch/bell/zhao922/YARP/paper-example/KHP-network/pp_0/TS-folder/Gau-105230.chk"
 B after Tr=     0.000000   -0.000000   -0.000000
         Rot=    0.999280   -0.017962   -0.007111   -0.032645 Ang=  -4.35 deg.
 ExpMin= 4.38D-02 ExpMax= 5.48D+03 ExpMxC= 8.25D+02 IAcc=3 IRadAn=         5 AccDes= 0.00D+00
 Harris functional with IExCor=  402 and IRadAn=       5 diagonalized for initial guess.
 HarFok:  IExCor=  402 AccDes= 0.00D+00 IRadAn=         5 IDoV= 1 UseB2=F ITyADJ=14
 ICtDFT=  3500011 ScaDFX=  1.000000  1.000000  1.000000  1.000000
 FoFCou: FMM=F IPFlag=           0 FMFlag=      100000 FMFlg1=           0
         NFxFlg=           0 DoJE=T BraDBF=F KetDBF=T FulRan=T
         wScrn=  0.000000 ICntrl=       500 IOpCl=  0 I1Cent=   200000004 NGrid=           0
         NMat0=    1 NMatS0=      1 NMatT0=    0 NMatD0=    1 NMtDS0=    0 NMtDT0=    0
 Petite list used in FoFCou.
 Keep R1 ints in memory in canonical form, NReq=47237537.
 Requested convergence on RMS density matrix=1.00D-08 within 128 cycles.
 Requested convergence on MAX density matrix=1.00D-06.
 Requested convergence on             energy=1.00D-06.
 No special actions if energy rises.
 SCF Done:  E(RB3LYP) =  -343.303086703     A.U. after   16 cycles
            NFock= 16  Conv=0.88D-08     -V/T= 2.0088
 DoSCS=F DFT=T ScalE2(SS,OS)=  1.000000  1.000000
 Range of M.O.s used for correlation:     1   126
 NBasis=   126 NAE=    24 NBE=    24 NFC=     0 NFV=     0
 NROrb=    126 NOA=    24 NOB=    24 NVA=   102 NVB=   102

 **** Warning!!: The largest alpha MO coefficient is  0.26364064D+02


 **** Warning!!: The smallest alpha delta epsilon is  0.56549851D-01

 Symmetrizing basis deriv contribution to polar:
 IMax=3 JMax=2 DiffMx= 0.00D+00
 G2DrvN: will do    13 centers at a time, making    1 passes.
 Calling FoFCou, ICntrl=  3107 FMM=F I1Cent=   0 AccDes= 0.00D+00.
 End of G2Drv F.D. properties file   721 does not exist.
 End of G2Drv F.D. properties file   722 does not exist.
 End of G2Drv F.D. properties file   788 does not exist.
          IDoAtm=111111111111
          Differentiating once with respect to electric field.
                with respect to dipole field.
          Differentiating once with respect to nuclear coordinates.
 Keep R1 ints in memory in canonical form, NReq=47193552.
          There are    39 degrees of freedom in the 1st order CPHF.  IDoFFX=6 NUNeed=     3.
     36 vectors produced by pass  0 Test12= 6.28D-15 2.56D-09 XBig12= 4.10D+02 1.44D+01.
 AX will form    36 AO Fock derivatives at one time.
     36 vectors produced by pass  1 Test12= 6.28D-15 2.56D-09 XBig12= 1.98D+02 2.46D+00.
     36 vectors produced by pass  2 Test12= 6.28D-15 2.56D-09 XBig12= 3.68D+00 3.06D-01.
     36 vectors produced by pass  3 Test12= 6.28D-15 2.56D-09 XBig12= 1.95D-02 3.47D-02.
     36 vectors produced by pass  4 Test12= 6.28D-15 2.56D-09 XBig12= 3.71D-05 1.05D-03.
     30 vectors produced by pass  5 Test12= 6.28D-15 2.56D-09 XBig12= 3.99D-08 2.31D-05.
      5 vectors produced by pass  6 Test12= 6.28D-15 2.56D-09 XBig12= 3.28D-11 7.40D-07.
      3 vectors produced by pass  7 Test12= 6.28D-15 2.56D-09 XBig12= 2.87D-14 2.44D-08.
 InvSVY:  IOpt=1 It=  1 EMax= 1.42D-14
 Solved reduced A of dimension   218 with    39 vectors.
 Isotropic polarizability for W=    0.000000       66.93 Bohr**3.
 End of Minotr F.D. properties file   721 does not exist.
 End of Minotr F.D. properties file   722 does not exist.
 End of Minotr F.D. properties file   788 does not exist.
 Calling FoFJK, ICntrl=    100127 FMM=F ISym2X=0 I1Cent= 0 IOpClX= 0 NMat=1 NMatS=1 NMatT=0.
 ***** Axes restored to original set *****
 -------------------------------------------------------------------
 Center     Atomic                   Forces (Hartrees/Bohr)
 Number     Number              X              Y              Z
 -------------------------------------------------------------------
      1        6           0.010264262   -0.015719231   -0.004145884
      2        6           0.029385273   -0.036055959   -0.016111087
      3        6          -0.011631892   -0.000190654   -0.008503936
      4        8          -0.053125712   -0.018997401    0.024643432
      5        8          -0.002951934    0.005971235   -0.000853055
      6        8           0.005407808   -0.002093060    0.016997316
      7        1           0.003563905    0.015166340    0.003332098
      8        1           0.002183596    0.002150339    0.001351413
      9        1          -0.001081451    0.002924626   -0.000014602
     10        1           0.006845651    0.002412946   -0.000531477
     11        1           0.034613327    0.039457501   -0.022197161
     12        1          -0.023472833    0.004973318    0.006032943
 -------------------------------------------------------------------
 Cartesian Forces:  Max     0.053125712 RMS     0.017753000
 FormGI is forming the generalized inverse of G from B-inverse, IUseBI=4.

 GradGradGradGradGradGradGradGradGradGradGradGradGradGradGradGradGradGrad
 Berny optimization.
 Internal  Forces:  Max     0.054192340 RMS     0.017554923
 Search for a saddle point.
 Step number   2 out of a maximum of  100
 All quantities printed in internal units (Hartrees-Bohrs-Radians)
 Swapping is turned off.
 Second derivative matrix not updated -- analytic derivatives used.
 ITU=  0  0
     Eigenvalues ---   -0.25384  -0.04067  -0.00405  -0.00015   0.00402
     Eigenvalues ---    0.02266   0.03024   0.04264   0.04522   0.05138
     Eigenvalues ---    0.06444   0.06578   0.07295   0.08552   0.10101
     Eigenvalues ---    0.12089   0.16118   0.17381   0.19635   0.20748
     Eigenvalues ---    0.26970   0.28008   0.29126   0.32665   0.33309
     Eigenvalues ---    0.33673   0.36242   0.52826   0.70887   0.92803
 Eigenvectors required to have negative eigenvalues:
                          R11       R9        A15       D9        D7
   1                    0.57626  -0.41652  -0.39114   0.26532   0.26075
                          A2        A1        D12       D10       D15
   1                    0.18059  -0.16632   0.13725   0.13268   0.12076
 RFO step:  Lambda0=9.935490158D-03 Lambda=-7.08296428D-02.
 Linear search not attempted -- option 19 set.
 Maximum step size (   0.300) exceeded in Quadratic search.
    -- Step size scaled by   0.402
 Iteration  1 RMS(Cart)=  0.10940877 RMS(Int)=  0.01002319
 Iteration  2 RMS(Cart)=  0.00874163 RMS(Int)=  0.00135703
 Iteration  3 RMS(Cart)=  0.00005748 RMS(Int)=  0.00135555
 Iteration  4 RMS(Cart)=  0.00000011 RMS(Int)=  0.00135555
 Variable       Old X    -DE/DX   Delta X   Delta X   Delta X     New X
                                 (Linear)    (Quad)   (Total)
    R1        2.86933   0.00880   0.00000  -0.00294  -0.00294   2.86639
    R2        2.68263   0.04489   0.00000   0.05251   0.05251   2.73515
    R3        2.06951   0.00135   0.00000   0.00053   0.00053   2.07004
    R4        2.07765  -0.00053   0.00000  -0.00533  -0.00533   2.07232
    R5        2.84969   0.00399   0.00000  -0.02575  -0.02575   2.82393
    R6        2.07332   0.00558   0.00000   0.00002   0.00002   2.07334
    R7        2.26634   0.01665   0.00000   0.01055   0.01055   2.27690
    R8        2.11157   0.00250   0.00000   0.00689   0.00689   2.11846
    R9        3.69113  -0.00232   0.00000  -0.16909  -0.16917   3.52196
   R10        3.80727   0.01154   0.00000   0.08505   0.08434   3.89161
   R11        2.26549  -0.05260   0.00000  -0.14454  -0.14454   2.12095
   R12        1.82238   0.00182   0.00000   0.00334   0.00499   1.82737
    A1        1.77006   0.05419   0.00000   0.02700   0.02707   1.79713
    A2        2.04471  -0.01106   0.00000   0.03023   0.03061   2.07532
    A3        1.91327  -0.01776   0.00000  -0.02486  -0.02470   1.88857
    A4        1.90264  -0.01295   0.00000  -0.03769  -0.03809   1.86455
    A5        1.92421  -0.02180   0.00000  -0.01082  -0.01080   1.91341
    A6        1.90393   0.00960   0.00000   0.01382   0.01351   1.91744
    A7        1.95969   0.01972   0.00000   0.03807   0.03764   1.99733
    A8        1.98155  -0.00313   0.00000  -0.02904  -0.03106   1.95049
    A9        1.72549   0.00267   0.00000   0.06830   0.06837   1.79386
   A10        2.20379   0.00203   0.00000   0.01685   0.01679   2.22058
   A11        1.94707   0.00380   0.00000  -0.00043  -0.00049   1.94658
   A12        2.12871  -0.00579   0.00000  -0.01484  -0.01491   2.11380
   A13        1.61852   0.03031   0.00000   0.05501   0.06082   1.67934
   A14        2.10837   0.03018   0.00000   0.05502   0.04939   2.15776
   A15        1.45218   0.04039   0.00000   0.05228   0.05153   1.50371
   A16        1.60224  -0.00022   0.00000   0.08764   0.08611   1.68835
   A17        1.64173  -0.01225   0.00000  -0.02757  -0.02865   1.61309
    D1       -1.89917  -0.00497   0.00000   0.10389   0.10320  -1.79598
    D2        2.44486  -0.01872   0.00000   0.01246   0.01264   2.45750
    D3        0.16898   0.01101   0.00000   0.09148   0.09125   0.26024
    D4       -1.77017  -0.00275   0.00000   0.00005   0.00070  -1.76947
    D5        2.34997  -0.00010   0.00000   0.11273   0.11234   2.46231
    D6        0.41082  -0.01386   0.00000   0.02130   0.02179   0.43261
    D7        0.94517   0.00428   0.00000   0.13600   0.13601   1.08117
    D8        0.93122   0.01258   0.00000   0.04449   0.04501   0.97623
    D9       -0.65163   0.00627   0.00000   0.05180   0.05086  -0.60077
   D10       -1.22248  -0.00670   0.00000   0.10398   0.10439  -1.11809
   D11       -1.23642   0.00160   0.00000   0.01247   0.01339  -1.22304
   D12       -2.81928  -0.00471   0.00000   0.01979   0.01924  -2.80003
   D13        2.97119   0.00281   0.00000   0.11702   0.11704   3.08823
   D14        2.95724   0.01111   0.00000   0.02551   0.02604   2.98328
   D15        1.37439   0.00480   0.00000   0.03282   0.03190   1.40628
   D16        2.27734   0.00201   0.00000   0.04044   0.03923   2.31657
   D17       -0.95471   0.00220   0.00000   0.05916   0.05796  -0.89676
   D18       -1.91071   0.00811   0.00000   0.06117   0.06237  -1.84834
   D19        1.14042   0.00830   0.00000   0.07990   0.08110   1.22152
         Item               Value     Threshold  Converged?
 Maximum Force            0.054192     0.000450     NO 
 RMS     Force            0.017555     0.000300     NO 
 Maximum Displacement     0.355982     0.001800     NO 
 RMS     Displacement     0.109528     0.001200     NO 
 Predicted change in Energy=-2.463226D-02
 GradGradGradGradGradGradGradGradGradGradGradGradGradGradGradGradGradGrad

                          Input orientation:                          
 ---------------------------------------------------------------------
 Center     Atomic      Atomic             Coordinates (Angstroms)
 Number     Number       Type             X           Y           Z
 ---------------------------------------------------------------------
      1          6           0        0.707707    1.076397   -2.564970
      2          6           0        0.533761    0.440211   -1.199037
      3          6           0        1.813473    0.159681   -0.480183
      4          8           0        0.382912    2.465436   -2.320067
      5          8           0        1.759186    2.783243   -1.104173
      6          8           0        2.077094    0.418099    0.666753
      7          1           0        1.327437    3.625155   -0.904492
      8          1           0        1.697225    1.060074   -3.034575
      9          1           0       -0.034098    0.638745   -3.243769
     10          1           0        2.530351   -0.412749   -1.124500
     11          1           0       -0.364133    2.081140   -1.575803
     12          1           0        0.071825   -0.552531   -1.268668
 ---------------------------------------------------------------------
                    Distance matrix (angstroms):
                    1          2          3          4          5
     1  C    0.000000
     2  C    1.516827   0.000000
     3  C    2.531684   1.494360   0.000000
     4  O    1.447377   2.319699   3.278442   0.000000
     5  O    2.480496   2.645840   2.697293   1.863740   0.000000
     6  O    3.571081   2.421475   1.204882   3.997866   2.971725
     7  H    3.104419   3.295534   3.525022   2.059350   0.967003
     8  H    1.095418   2.259884   2.710929   2.052555   2.588359
     9  H    1.096623   2.131386   3.358635   2.089001   3.520314
    10  H    2.759447   2.172434   1.121042   3.784816   3.287777
    11  H    1.771101   1.908092   3.103926   1.122359   2.285578
    12  H    2.176730   1.097165   2.040170   3.210972   3.741876
                    6          7          8          9         10
     6  O    0.000000
     7  H    3.649110   0.000000
     8  H    3.775747   3.354643   0.000000
     9  H    4.449495   4.030464   1.794090   0.000000
    10  H    2.025917   4.219014   2.551803   3.489032   0.000000
    11  H    3.708686   2.386639   2.723928   2.229694   3.847232
    12  H    2.951116   4.377470   2.891513   2.308978   2.466714
                   11         12
    11  H    0.000000
    12  H    2.687120   0.000000
 Stoichiometry    C3H6O3
 Framework group  C1[X(C3H6O3)]
 Deg. of freedom    30
 Full point group                 C1      NOp   1
 Largest Abelian subgroup         C1      NOp   1
 Largest concise Abelian subgroup C1      NOp   1
                         Standard orientation:                         
 ---------------------------------------------------------------------
 Center     Atomic      Atomic             Coordinates (Angstroms)
 Number     Number       Type             X           Y           Z
 ---------------------------------------------------------------------
      1          6           0       -1.035694   -0.940731   -0.355090
      2          6           0        0.247350   -0.942454    0.453958
      3          6           0        1.423109   -0.346825   -0.250264
      4          8           0       -1.781797    0.157335    0.221522
      5          8           0       -0.553243    1.488471   -0.216952
      6          8           0        2.204581    0.458404    0.188653
      7          1           0       -1.059565    2.081246    0.355194
      8          1           0       -0.981490   -0.755729   -1.433411
      9          1           0       -1.561984   -1.883819   -0.164869
     10          1           0        1.564581   -0.796451   -1.267396
     11          1           0       -1.313994   -0.136940    1.198380
     12          1           0        0.587530   -1.961926    0.674695
 ---------------------------------------------------------------------
 Rotational constants (GHZ):           5.7818060           2.6198294           1.9798375
 Standard basis: 6-31+G(d) (6D, 7F)
 There are   126 symmetry adapted cartesian basis functions of A   symmetry.
 There are   126 symmetry adapted basis functions of A   symmetry.
   126 basis functions,   216 primitive gaussians,   126 cartesian basis functions
    24 alpha electrons       24 beta electrons
       nuclear repulsion energy       239.1278610591 Hartrees.
 NAtoms=   12 NActive=   12 NUniq=   12 SFac= 1.00D+00 NAtFMM=   60 NAOKFM=F Big=F
 Integral buffers will be    131072 words long.
 Raffenetti 2 integral format.
 Two-electron integral symmetry is turned on.
 One-electron integrals computed using PRISM.
 NBasis=   126 RedAO= T EigKep=  1.54D-04  NBF=   126
 NBsUse=   126 1.00D-06 EigRej= -1.00D+00 NBFU=   126
 Initial guess from the checkpoint file:  "/scratch/bell/zhao922/YARP/paper-example/KHP-network/pp_0/TS-folder/Gau-105230.chk"
 B after Tr=    -0.000000   -0.000000    0.000000
         Rot=    0.999066   -0.017115   -0.007794   -0.038902 Ang=  -4.95 deg.
 ExpMin= 4.38D-02 ExpMax= 5.48D+03 ExpMxC= 8.25D+02 IAcc=3 IRadAn=         5 AccDes= 0.00D+00
 Harris functional with IExCor=  402 and IRadAn=       5 diagonalized for initial guess.
 HarFok:  IExCor=  402 AccDes= 0.00D+00 IRadAn=         5 IDoV= 1 UseB2=F ITyADJ=14
 ICtDFT=  3500011 ScaDFX=  1.000000  1.000000  1.000000  1.000000
 FoFCou: FMM=F IPFlag=           0 FMFlag=      100000 FMFlg1=           0
         NFxFlg=           0 DoJE=T BraDBF=F KetDBF=T FulRan=T
         wScrn=  0.000000 ICntrl=       500 IOpCl=  0 I1Cent=   200000004 NGrid=           0
         NMat0=    1 NMatS0=      1 NMatT0=    0 NMatD0=    1 NMtDS0=    0 NMtDT0=    0
 Petite list used in FoFCou.
 Keep R1 ints in memory in canonical form, NReq=47237537.
 Requested convergence on RMS density matrix=1.00D-08 within 128 cycles.
 Requested convergence on MAX density matrix=1.00D-06.
 Requested convergence on             energy=1.00D-06.
 No special actions if energy rises.
 EnCoef did     4 forward-backward iterations
 SCF Done:  E(RB3LYP) =  -343.326072161     A.U. after   15 cycles
            NFock= 15  Conv=0.82D-08     -V/T= 2.0090
 DoSCS=F DFT=T ScalE2(SS,OS)=  1.000000  1.000000
 Range of M.O.s used for correlation:     1   126
 NBasis=   126 NAE=    24 NBE=    24 NFC=     0 NFV=     0
 NROrb=    126 NOA=    24 NOB=    24 NVA=   102 NVB=   102

 **** Warning!!: The largest alpha MO coefficient is  0.28952607D+02


 **** Warning!!: The smallest alpha delta epsilon is  0.52861879D-01

 Symmetrizing basis deriv contribution to polar:
 IMax=3 JMax=2 DiffMx= 0.00D+00
 G2DrvN: will do    13 centers at a time, making    1 passes.
 Calling FoFCou, ICntrl=  3107 FMM=F I1Cent=   0 AccDes= 0.00D+00.
 End of G2Drv F.D. properties file   721 does not exist.
 End of G2Drv F.D. properties file   722 does not exist.
 End of G2Drv F.D. properties file   788 does not exist.
          IDoAtm=111111111111
          Differentiating once with respect to electric field.
                with respect to dipole field.
          Differentiating once with respect to nuclear coordinates.
 Keep R1 ints in memory in canonical form, NReq=47193552.
          There are    39 degrees of freedom in the 1st order CPHF.  IDoFFX=6 NUNeed=     3.
     36 vectors produced by pass  0 Test12= 6.28D-15 2.56D-09 XBig12= 3.25D+02 1.58D+01.
 AX will form    36 AO Fock derivatives at one time.
     36 vectors produced by pass  1 Test12= 6.28D-15 2.56D-09 XBig12= 1.32D+02 2.46D+00.
     36 vectors produced by pass  2 Test12= 6.28D-15 2.56D-09 XBig12= 1.76D+00 2.04D-01.
     36 vectors produced by pass  3 Test12= 6.28D-15 2.56D-09 XBig12= 7.74D-03 1.54D-02.
     36 vectors produced by pass  4 Test12= 6.28D-15 2.56D-09 XBig12= 1.68D-05 4.83D-04.
     30 vectors produced by pass  5 Test12= 6.28D-15 2.56D-09 XBig12= 1.93D-08 1.82D-05.
      4 vectors produced by pass  6 Test12= 6.28D-15 2.56D-09 XBig12= 1.52D-11 5.13D-07.
      3 vectors produced by pass  7 Test12= 6.28D-15 2.56D-09 XBig12= 1.13D-14 1.67D-08.
 InvSVY:  IOpt=1 It=  1 EMax= 1.07D-14
 Solved reduced A of dimension   217 with    39 vectors.
 Isotropic polarizability for W=    0.000000       69.02 Bohr**3.
 End of Minotr F.D. properties file   721 does not exist.
 End of Minotr F.D. properties file   722 does not exist.
 End of Minotr F.D. properties file   788 does not exist.
 Calling FoFJK, ICntrl=    100127 FMM=F ISym2X=0 I1Cent= 0 IOpClX= 0 NMat=1 NMatS=1 NMatT=0.
 ***** Axes restored to original set *****
 -------------------------------------------------------------------
 Center     Atomic                   Forces (Hartrees/Bohr)
 Number     Number              X              Y              Z
 -------------------------------------------------------------------
      1        6           0.006488595   -0.015905431   -0.001260637
      2        6           0.018597731   -0.027602606   -0.017957439
      3        6          -0.007622427    0.004752361   -0.002719473
      4        8          -0.039074793   -0.018443005    0.027725507
      5        8          -0.000724019    0.004198743   -0.006474802
      6        8           0.003570526   -0.002976031    0.010201663
      7        1           0.001977820    0.011181803    0.004917175
      8        1           0.002441626    0.001233685    0.002371263
      9        1          -0.000039421    0.004871137   -0.002111260
     10        1           0.005126417    0.003149840    0.000203654
     11        1           0.026888592    0.031301315   -0.019808042
     12        1          -0.017630645    0.004238188    0.004912391
 -------------------------------------------------------------------
 Cartesian Forces:  Max     0.039074793 RMS     0.014254793
 FormGI is forming the generalized inverse of G from B-inverse, IUseBI=4.

 GradGradGradGradGradGradGradGradGradGradGradGradGradGradGradGradGradGrad
 Berny optimization.
 Internal  Forces:  Max     0.041750185 RMS     0.012199821
 Search for a saddle point.
 Step number   3 out of a maximum of  100
 All quantities printed in internal units (Hartrees-Bohrs-Radians)
 Swapping is turned off.
 Second derivative matrix not updated -- analytic derivatives used.
 ITU=  0  0  0
     Eigenvalues ---   -0.14139  -0.02022  -0.00081   0.00166   0.00671
     Eigenvalues ---    0.02146   0.03302   0.03366   0.04909   0.05083
     Eigenvalues ---    0.06702   0.06872   0.08577   0.09525   0.10383
     Eigenvalues ---    0.11370   0.14605   0.16455   0.18544   0.19320
     Eigenvalues ---    0.24151   0.27805   0.29192   0.31483   0.33356
     Eigenvalues ---    0.33664   0.34812   0.50006   0.53820   0.89906
 Eigenvectors required to have negative eigenvalues:
                          R9        R11       A15       D7        D9
   1                   -0.52688   0.48819  -0.37260   0.27034   0.24554
                          A1        A2        D10       D13       D12
   1                   -0.20303   0.17877   0.15269   0.13951   0.12789
 RFO step:  Lambda0=7.530195061D-03 Lambda=-4.28637042D-02.
 Linear search not attempted -- option 19 set.
 Maximum step size (   0.300) exceeded in Quadratic search.
    -- Step size scaled by   0.517
 Iteration  1 RMS(Cart)=  0.11396340 RMS(Int)=  0.02797078
 Iteration  2 RMS(Cart)=  0.03214008 RMS(Int)=  0.00732392
 Iteration  3 RMS(Cart)=  0.00157095 RMS(Int)=  0.00696749
 Iteration  4 RMS(Cart)=  0.00003357 RMS(Int)=  0.00696747
 Iteration  5 RMS(Cart)=  0.00000187 RMS(Int)=  0.00696747
 Iteration  6 RMS(Cart)=  0.00000012 RMS(Int)=  0.00696747
 Variable       Old X    -DE/DX   Delta X   Delta X   Delta X     New X
                                 (Linear)    (Quad)   (Total)
    R1        2.86639   0.00267   0.00000  -0.02238  -0.02238   2.84400
    R2        2.73515   0.03063   0.00000   0.05633   0.05633   2.79148
    R3        2.07004   0.00117   0.00000   0.00173   0.00173   2.07177
    R4        2.07232  -0.00061   0.00000  -0.00428  -0.00428   2.06803
    R5        2.82393   0.00369   0.00000  -0.01144  -0.01144   2.81249
    R6        2.07334   0.00328   0.00000  -0.00351  -0.00351   2.06983
    R7        2.27690   0.00985   0.00000   0.00810   0.00810   2.28499
    R8        2.11846   0.00155   0.00000   0.00263   0.00263   2.12109
    R9        3.52196  -0.00413   0.00000  -0.09744  -0.09685   3.42511
   R10        3.89161   0.00976   0.00000   0.08621   0.08021   3.97182
   R11        2.12095  -0.04175   0.00000  -0.12901  -0.12901   1.99194
   R12        1.82737   0.00194   0.00000   0.00645   0.01827   1.84564
    A1        1.79713   0.03254   0.00000   0.00988   0.01002   1.80715
    A2        2.07532  -0.00573   0.00000   0.02313   0.02312   2.09845
    A3        1.88857  -0.00942   0.00000   0.00326   0.00320   1.89177
    A4        1.86455  -0.00937   0.00000  -0.03585  -0.03594   1.82861
    A5        1.91341  -0.01379   0.00000  -0.01447  -0.01459   1.89882
    A6        1.91744   0.00579   0.00000   0.00992   0.00926   1.92669
    A7        1.99733   0.01100   0.00000   0.02028   0.01906   2.01639
    A8        1.95049  -0.00232   0.00000   0.00591   0.00347   1.95396
    A9        1.79386   0.00510   0.00000   0.07596   0.07474   1.86860
   A10        2.22058   0.00239   0.00000   0.01616   0.01612   2.23670
   A11        1.94658   0.00264   0.00000   0.00099   0.00094   1.94752
   A12        2.11380  -0.00495   0.00000  -0.01611  -0.01616   2.09764
   A13        1.67934   0.01909   0.00000   0.03912   0.07048   1.74982
   A14        2.15776   0.01861   0.00000  -0.01531  -0.04400   2.11376
   A15        1.50371   0.03108   0.00000   0.06939   0.07030   1.57401
   A16        1.68835   0.00213   0.00000   0.13058   0.12172   1.81007
   A17        1.61309  -0.01284   0.00000  -0.13262  -0.12773   1.48536
    D1       -1.79598   0.00018   0.00000   0.11317   0.11307  -1.68291
    D2        2.45750  -0.01212   0.00000  -0.00229  -0.00218   2.45533
    D3        0.26024   0.00940   0.00000   0.08781   0.08760   0.34784
    D4       -1.76947  -0.00289   0.00000  -0.02765  -0.02765  -1.79712
    D5        2.46231   0.00416   0.00000   0.12347   0.12346   2.58577
    D6        0.43261  -0.00814   0.00000   0.00801   0.00821   0.44082
    D7        1.08117   0.00755   0.00000   0.19337   0.18806   1.26924
    D8        0.97623   0.00734   0.00000  -0.05551  -0.04871   0.92752
    D9       -0.60077   0.00329   0.00000   0.05689   0.05538  -0.54539
   D10       -1.11809   0.00131   0.00000   0.17928   0.17414  -0.94395
   D11       -1.22304   0.00110   0.00000  -0.06960  -0.06263  -1.28567
   D12       -2.80003  -0.00295   0.00000   0.04281   0.04145  -2.75858
   D13        3.08823   0.00729   0.00000   0.19595   0.19050  -3.00446
   D14        2.98328   0.00708   0.00000  -0.05292  -0.04627   2.93701
   D15        1.40628   0.00303   0.00000   0.05948   0.05782   1.46410
   D16        2.31657   0.00044   0.00000   0.07909   0.07806   2.39464
   D17       -0.89676   0.00140   0.00000   0.09499   0.09396  -0.80279
   D18       -1.84834   0.00699   0.00000   0.14828   0.14930  -1.69904
   D19        1.22152   0.00795   0.00000   0.16417   0.16520   1.38672
         Item               Value     Threshold  Converged?
 Maximum Force            0.041750     0.000450     NO 
 RMS     Force            0.012200     0.000300     NO 
 Maximum Displacement     0.509081     0.001800     NO 
 RMS     Displacement     0.134243     0.001200     NO 
 Predicted change in Energy=-2.027658D-02
 GradGradGradGradGradGradGradGradGradGradGradGradGradGradGradGradGradGrad

                          Input orientation:                          
 ---------------------------------------------------------------------
 Center     Atomic      Atomic             Coordinates (Angstroms)
 Number     Number       Type             X           Y           Z
 ---------------------------------------------------------------------
      1          6           0        0.686301    1.029809   -2.565871
      2          6           0        0.526059    0.363006   -1.226220
      3          6           0        1.780913    0.177735   -0.447718
      4          8           0        0.373552    2.446282   -2.286822
      5          8           0        1.862030    2.931590   -1.373567
      6          8           0        1.960849    0.360841    0.733883
      7          1           0        1.358486    3.494306   -0.754148
      8          1           0        1.665707    1.051511   -3.058054
      9          1           0       -0.072616    0.628237   -3.244400
     10          1           0        2.607247   -0.231524   -1.087671
     11          1           0       -0.298968    2.152284   -1.530263
     12          1           0        0.053179   -0.621178   -1.312634
 ---------------------------------------------------------------------
                    Distance matrix (angstroms):
                    1          2          3          4          5
     1  C    0.000000
     2  C    1.504981   0.000000
     3  C    2.531951   1.488304   0.000000
     4  O    1.477186   2.342685   3.241801   0.000000
     5  O    2.533910   2.898992   2.906457   1.812491   0.000000
     6  O    3.600051   2.429121   1.209167   3.999154   3.325637
     7  H    3.131760   3.274267   3.357377   2.101794   0.976670
     8  H    1.096335   2.264609   2.755106   2.051792   2.531944
     9  H    1.094356   2.121747   3.385255   2.102691   3.542358
    10  H    2.732411   2.168872   1.122435   3.687547   3.262266
    11  H    1.817468   1.993646   3.065396   1.054087   2.302560
    12  H    2.167304   1.095309   2.090791   3.234346   3.987207
                    6          7          8          9         10
     6  O    0.000000
     7  H    3.520749   0.000000
     8  H    3.865607   3.371886   0.000000
     9  H    4.475848   4.057556   1.798791   0.000000
    10  H    2.021580   3.943659   2.532802   3.545749   0.000000
    11  H    3.666388   2.269478   2.721359   2.304825   3.784774
    12  H    2.965096   4.353497   2.905964   2.304037   2.593396
                   11         12
    11  H    0.000000
    12  H    2.804186   0.000000
 Stoichiometry    C3H6O3
 Framework group  C1[X(C3H6O3)]
 Deg. of freedom    30
 Full point group                 C1      NOp   1
 Largest Abelian subgroup         C1      NOp   1
 Largest concise Abelian subgroup C1      NOp   1
                         Standard orientation:                         
 ---------------------------------------------------------------------
 Center     Atomic      Atomic             Coordinates (Angstroms)
 Number     Number       Type             X           Y           Z
 ---------------------------------------------------------------------
      1          6           0       -0.945321   -1.015880   -0.359436
      2          6           0        0.378395   -1.009078    0.356593
      3          6           0        1.450690   -0.200775   -0.285187
      4          8           0       -1.722081    0.028171    0.339620
      5          8           0       -0.894326    1.516308   -0.281183
      6          8           0        2.242465    0.544363    0.243914
      7          1           0       -0.958436    1.971449    0.580573
      8          1           0       -1.000783   -0.742694   -1.419740
      9          1           0       -1.424658   -1.984934   -0.189772
     10          1           0        1.507555   -0.392811   -1.389609
     11          1           0       -1.210636   -0.186660    1.235930
     12          1           0        0.775911   -2.020686    0.491993
 ---------------------------------------------------------------------
 Rotational constants (GHZ):           5.4072956           2.5163074           1.9001079
 Standard basis: 6-31+G(d) (6D, 7F)
 There are   126 symmetry adapted cartesian basis functions of A   symmetry.
 There are   126 symmetry adapted basis functions of A   symmetry.
   126 basis functions,   216 primitive gaussians,   126 cartesian basis functions
    24 alpha electrons       24 beta electrons
       nuclear repulsion energy       236.3456613613 Hartrees.
 NAtoms=   12 NActive=   12 NUniq=   12 SFac= 1.00D+00 NAtFMM=   60 NAOKFM=F Big=F
 Integral buffers will be    131072 words long.
 Raffenetti 2 integral format.
 Two-electron integral symmetry is turned on.
 One-electron integrals computed using PRISM.
 NBasis=   126 RedAO= T EigKep=  1.48D-04  NBF=   126
 NBsUse=   126 1.00D-06 EigRej= -1.00D+00 NBFU=   126
 Initial guess from the checkpoint file:  "/scratch/bell/zhao922/YARP/paper-example/KHP-network/pp_0/TS-folder/Gau-105230.chk"
 B after Tr=     0.000000    0.000000   -0.000000
         Rot=    0.998903   -0.020452   -0.012598   -0.040189 Ang=  -5.37 deg.
 ExpMin= 4.38D-02 ExpMax= 5.48D+03 ExpMxC= 8.25D+02 IAcc=3 IRadAn=         5 AccDes= 0.00D+00
 Harris functional with IExCor=  402 and IRadAn=       5 diagonalized for initial guess.
 HarFok:  IExCor=  402 AccDes= 0.00D+00 IRadAn=         5 IDoV= 1 UseB2=F ITyADJ=14
 ICtDFT=  3500011 ScaDFX=  1.000000  1.000000  1.000000  1.000000
 FoFCou: FMM=F IPFlag=           0 FMFlag=      100000 FMFlg1=           0
         NFxFlg=           0 DoJE=T BraDBF=F KetDBF=T FulRan=T
         wScrn=  0.000000 ICntrl=       500 IOpCl=  0 I1Cent=   200000004 NGrid=           0
         NMat0=    1 NMatS0=      1 NMatT0=    0 NMatD0=    1 NMtDS0=    0 NMtDT0=    0
 Petite list used in FoFCou.
 Keep R1 ints in memory in canonical form, NReq=47237537.
 Requested convergence on RMS density matrix=1.00D-08 within 128 cycles.
 Requested convergence on MAX density matrix=1.00D-06.
 Requested convergence on             energy=1.00D-06.
 No special actions if energy rises.
 SCF Done:  E(RB3LYP) =  -343.344731292     A.U. after   16 cycles
            NFock= 16  Conv=0.79D-08     -V/T= 2.0091
 DoSCS=F DFT=T ScalE2(SS,OS)=  1.000000  1.000000
 Range of M.O.s used for correlation:     1   126
 NBasis=   126 NAE=    24 NBE=    24 NFC=     0 NFV=     0
 NROrb=    126 NOA=    24 NOB=    24 NVA=   102 NVB=   102

 **** Warning!!: The largest alpha MO coefficient is  0.30419249D+02


 **** Warning!!: The smallest alpha delta epsilon is  0.52680421D-01

 Symmetrizing basis deriv contribution to polar:
 IMax=3 JMax=2 DiffMx= 0.00D+00
 G2DrvN: will do    13 centers at a time, making    1 passes.
 Calling FoFCou, ICntrl=  3107 FMM=F I1Cent=   0 AccDes= 0.00D+00.
 End of G2Drv F.D. properties file   721 does not exist.
 End of G2Drv F.D. properties file   722 does not exist.
 End of G2Drv F.D. properties file   788 does not exist.
          IDoAtm=111111111111
          Differentiating once with respect to electric field.
                with respect to dipole field.
          Differentiating once with respect to nuclear coordinates.
 Keep R1 ints in memory in canonical form, NReq=47193552.
          There are    39 degrees of freedom in the 1st order CPHF.  IDoFFX=6 NUNeed=     3.
     36 vectors produced by pass  0 Test12= 6.28D-15 2.56D-09 XBig12= 5.83D+02 2.30D+01.
 AX will form    36 AO Fock derivatives at one time.
     36 vectors produced by pass  1 Test12= 6.28D-15 2.56D-09 XBig12= 2.24D+02 2.64D+00.
     36 vectors produced by pass  2 Test12= 6.28D-15 2.56D-09 XBig12= 2.23D+00 2.05D-01.
     36 vectors produced by pass  3 Test12= 6.28D-15 2.56D-09 XBig12= 9.30D-03 1.57D-02.
     36 vectors produced by pass  4 Test12= 6.28D-15 2.56D-09 XBig12= 1.34D-05 5.34D-04.
     27 vectors produced by pass  5 Test12= 6.28D-15 2.56D-09 XBig12= 1.40D-08 2.34D-05.
      5 vectors produced by pass  6 Test12= 6.28D-15 2.56D-09 XBig12= 1.30D-11 4.57D-07.
      2 vectors produced by pass  7 Test12= 6.28D-15 2.56D-09 XBig12= 9.83D-15 1.04D-08.
 InvSVY:  IOpt=1 It=  1 EMax= 1.78D-14
 Solved reduced A of dimension   214 with    39 vectors.
 Isotropic polarizability for W=    0.000000       71.68 Bohr**3.
 End of Minotr F.D. properties file   721 does not exist.
 End of Minotr F.D. properties file   722 does not exist.
 End of Minotr F.D. properties file   788 does not exist.
 Calling FoFJK, ICntrl=    100127 FMM=F ISym2X=0 I1Cent= 0 IOpClX= 0 NMat=1 NMatS=1 NMatT=0.
 ***** Axes restored to original set *****
 -------------------------------------------------------------------
 Center     Atomic                   Forces (Hartrees/Bohr)
 Number     Number              X              Y              Z
 -------------------------------------------------------------------
      1        6           0.003275206   -0.012404512    0.002598425
      2        6           0.013682974   -0.019539492   -0.017211094
      3        6          -0.002793184    0.004102383   -0.003482069
      4        8          -0.024006834   -0.011146392    0.014298209
      5        8          -0.001173107    0.005783993   -0.002386318
      6        8           0.000684064   -0.002384344    0.006650199
      7        1           0.003086423    0.002417475    0.002019577
      8        1           0.002216593    0.000857150    0.002919800
      9        1           0.000592535    0.004762428   -0.003092903
     10        1           0.003116314    0.003846493    0.000870989
     11        1           0.014934188    0.019332620   -0.009308494
     12        1          -0.013615172    0.004372199    0.006123679
 -------------------------------------------------------------------
 Cartesian Forces:  Max     0.024006834 RMS     0.009258868
 FormGI is forming the generalized inverse of G from B-inverse, IUseBI=4.

 GradGradGradGradGradGradGradGradGradGradGradGradGradGradGradGradGradGrad
 Berny optimization.
 Internal  Forces:  Max     0.022211406 RMS     0.007260166
 Search for a saddle point.
 Step number   4 out of a maximum of  100
 All quantities printed in internal units (Hartrees-Bohrs-Radians)
 Swapping is turned off.
 Second derivative matrix not updated -- analytic derivatives used.
 ITU=  0  0  0  0
     Eigenvalues ---   -0.05522  -0.01034  -0.00214   0.00367   0.00656
     Eigenvalues ---    0.02317   0.02584   0.04098   0.04778   0.05261
     Eigenvalues ---    0.06775   0.07254   0.09875   0.10115   0.10478
     Eigenvalues ---    0.11239   0.12951   0.16331   0.18281   0.19594
     Eigenvalues ---    0.24045   0.27802   0.29425   0.30926   0.33645
     Eigenvalues ---    0.34150   0.34410   0.41299   0.48532   0.87615
 Eigenvectors required to have negative eigenvalues:
                          R9        A15       R11       D7        D9
   1                    0.67259   0.32585  -0.26128  -0.24068  -0.22395
                          A1        R10       A2        D13       D10
   1                    0.18841   0.18131  -0.16737  -0.14156  -0.13211
 RFO step:  Lambda0=2.722591316D-03 Lambda=-2.37044746D-02.
 Linear search not attempted -- option 19 set.
 Maximum step size (   0.300) exceeded in Quadratic search.
    -- Step size scaled by   0.439
 Iteration  1 RMS(Cart)=  0.08785915 RMS(Int)=  0.03453486
 Iteration  2 RMS(Cart)=  0.07303524 RMS(Int)=  0.02594842
 Iteration  3 RMS(Cart)=  0.03100990 RMS(Int)=  0.02056429
 Iteration  4 RMS(Cart)=  0.01932024 RMS(Int)=  0.02010191
 Iteration  5 RMS(Cart)=  0.01220659 RMS(Int)=  0.01997995
 Iteration  6 RMS(Cart)=  0.00813725 RMS(Int)=  0.01992680
 Iteration  7 RMS(Cart)=  0.00532575 RMS(Int)=  0.01990763
 Iteration  8 RMS(Cart)=  0.00354975 RMS(Int)=  0.01989868
 Iteration  9 RMS(Cart)=  0.00234104 RMS(Int)=  0.01989501
 Iteration 10 RMS(Cart)=  0.00155425 RMS(Int)=  0.01989336
 Iteration 11 RMS(Cart)=  0.00102858 RMS(Int)=  0.01989265
 Iteration 12 RMS(Cart)=  0.00068253 RMS(Int)=  0.01989233
 Iteration 13 RMS(Cart)=  0.00045239 RMS(Int)=  0.01989219
 Iteration 14 RMS(Cart)=  0.00030019 RMS(Int)=  0.01989213
 Iteration 15 RMS(Cart)=  0.00019911 RMS(Int)=  0.01989211
 Iteration 16 RMS(Cart)=  0.00013213 RMS(Int)=  0.01989209
 Iteration 17 RMS(Cart)=  0.00008766 RMS(Int)=  0.01989209
 Iteration 18 RMS(Cart)=  0.00005818 RMS(Int)=  0.01989209
 Iteration 19 RMS(Cart)=  0.00003860 RMS(Int)=  0.01989209
 Iteration 20 RMS(Cart)=  0.00002562 RMS(Int)=  0.01989209
 Iteration 21 RMS(Cart)=  0.00001700 RMS(Int)=  0.01989208
 Iteration 22 RMS(Cart)=  0.00001128 RMS(Int)=  0.01989208
 Iteration 23 RMS(Cart)=  0.00000749 RMS(Int)=  0.01989208
 Iteration 24 RMS(Cart)=  0.00000497 RMS(Int)=  0.01989208
 Iteration 25 RMS(Cart)=  0.00000330 RMS(Int)=  0.01989208
 Iteration 26 RMS(Cart)=  0.00000219 RMS(Int)=  0.01989208
 Iteration 27 RMS(Cart)=  0.00000145 RMS(Int)=  0.01989208
 Iteration 28 RMS(Cart)=  0.00000096 RMS(Int)=  0.01989208
 Variable       Old X    -DE/DX   Delta X   Delta X   Delta X     New X
                                 (Linear)    (Quad)   (Total)
    R1        2.84400  -0.00213   0.00000  -0.03375  -0.03375   2.81025
    R2        2.79148   0.01810   0.00000   0.03838   0.03838   2.82986
    R3        2.07177   0.00069   0.00000  -0.00049  -0.00049   2.07128
    R4        2.06803  -0.00024   0.00000  -0.00038  -0.00038   2.06766
    R5        2.81249   0.00227   0.00000  -0.00399  -0.00399   2.80850
    R6        2.06983   0.00147   0.00000  -0.00564  -0.00564   2.06420
    R7        2.28499   0.00624   0.00000   0.01007   0.01007   2.29507
    R8        2.12109   0.00040   0.00000  -0.00559  -0.00559   2.11550
    R9        3.42511  -0.00077   0.00000  -0.04531  -0.04154   3.38358
   R10        3.97182   0.00563   0.00000   0.05463   0.02673   3.99855
   R11        1.99194  -0.02160   0.00000  -0.04629  -0.04629   1.94564
   R12        1.84564  -0.00297   0.00000   0.00136   0.05337   1.89901
    A1        1.80715   0.01732   0.00000   0.00894   0.00903   1.81618
    A2        2.09845  -0.00327   0.00000   0.00179   0.00175   2.10019
    A3        1.89177  -0.00327   0.00000   0.02216   0.02220   1.91397
    A4        1.82861  -0.00541   0.00000  -0.02140  -0.02150   1.80710
    A5        1.89882  -0.00866   0.00000  -0.02506  -0.02520   1.87362
    A6        1.92669   0.00307   0.00000   0.00723   0.00667   1.93336
    A7        2.01639   0.00297   0.00000  -0.00152  -0.00286   2.01353
    A8        1.95396   0.00088   0.00000   0.03975   0.03796   1.99191
    A9        1.86860   0.00480   0.00000   0.05782   0.05614   1.92474
   A10        2.23670  -0.00088   0.00000  -0.01937  -0.01945   2.21725
   A11        1.94752   0.00328   0.00000   0.02644   0.02636   1.97388
   A12        2.09764  -0.00233   0.00000  -0.00592  -0.00600   2.09164
   A13        1.74982   0.01099   0.00000   0.05978   0.09714   1.84696
   A14        2.11376   0.00722   0.00000  -0.16316  -0.17970   1.93406
   A15        1.57401   0.02221   0.00000   0.06176   0.06151   1.63552
   A16        1.81007  -0.00000   0.00000   0.07793   0.03068   1.84075
   A17        1.48536  -0.00975   0.00000  -0.17533  -0.13540   1.34996
    D1       -1.68291   0.00171   0.00000   0.04894   0.04918  -1.63372
[...]
    D6       -0.46708  -0.00000   0.00000  -0.00007  -0.00007  -0.46715
    D7        2.92934   0.00000   0.00000   0.00010   0.00010   2.92944
    D8       -2.85576   0.00000   0.00000   0.00016   0.00016  -2.85560
    D9        1.45739   0.00000   0.00000   0.00008   0.00008   1.45747
   D10        0.82431  -0.00000   0.00000   0.00012   0.00012   0.82444
   D11        1.32240   0.00000   0.00000   0.00018   0.00018   1.32258
   D12       -0.64764   0.00000   0.00000   0.00010   0.00010  -0.64754
   D13       -1.26767   0.00000   0.00000   0.00013   0.00013  -1.26754
   D14       -0.76959   0.00000   0.00000   0.00019   0.00019  -0.76940
   D15       -2.73962   0.00000   0.00000   0.00010   0.00010  -2.73952
   D16        3.11988   0.00000   0.00000   0.00002   0.00002   3.11989
   D17       -0.05755   0.00000   0.00000   0.00001   0.00001  -0.05754
   D18        0.06919  -0.00000   0.00000  -0.00000  -0.00000   0.06919
   D19       -3.10823  -0.00000   0.00000  -0.00001  -0.00001  -3.10824
         Item               Value     Threshold  Converged?
 Maximum Force            0.000007     0.000450     YES
 RMS     Force            0.000002     0.000300     YES
 Maximum Displacement     0.000254     0.001800     YES
 RMS     Displacement     0.000094     0.001200     YES
 Predicted change in Energy=-7.403716D-10
 Optimization completed.
    -- Stationary point found.
                           ----------------------------
                           !   Optimized Parameters   !
                           ! (Angstroms and Degrees)  !
 --------------------------                            --------------------------
 ! Name  Definition              Value          Derivative Info.                !
 --------------------------------------------------------------------------------
 ! R1    R(1,2)                  1.4514         -DE/DX =    0.0                 !
 ! R2    R(1,4)                  1.4946         -DE/DX =    0.0                 !
 ! R3    R(1,8)                  1.092          -DE/DX =    0.0                 !
 ! R4    R(1,9)                  1.0882         -DE/DX =    0.0                 !
 ! R5    R(2,3)                  1.4464         -DE/DX =    0.0                 !
 ! R6    R(2,12)                 1.0857         -DE/DX =    0.0                 !
 ! R7    R(3,6)                  1.2282         -DE/DX =    0.0                 !
 ! R8    R(3,10)                 1.1131         -DE/DX =    0.0                 !
 ! R9    R(4,5)                  1.9744         -DE/DX =    0.0                 !
 ! R10   R(4,7)                  2.2607         -DE/DX =    0.0                 !
 ! R11   R(4,11)                 0.9767         -DE/DX =    0.0                 !
 ! R12   R(5,7)                  0.9751         -DE/DX =    0.0                 !
 ! A1    A(2,1,4)               93.7807         -DE/DX =    0.0                 !
 ! A2    A(2,1,8)              117.2473         -DE/DX =    0.0                 !
 ! A3    A(2,1,9)              117.2358         -DE/DX =    0.0                 !
 ! A4    A(4,1,8)              109.2733         -DE/DX =    0.0                 !
 ! A5    A(4,1,9)              105.0938         -DE/DX =    0.0                 !
 ! A6    A(8,1,9)              111.5824         -DE/DX =    0.0                 !
 ! A7    A(1,2,3)              121.6027         -DE/DX =    0.0                 !
 ! A8    A(1,2,12)             119.8403         -DE/DX =    0.0                 !
 ! A9    A(3,2,12)             118.3524         -DE/DX =    0.0                 !
 ! A10   A(2,3,6)              124.1038         -DE/DX =    0.0                 !
 ! A11   A(2,3,10)             115.7748         -DE/DX =    0.0                 !
 ! A12   A(6,3,10)             120.0896         -DE/DX =    0.0                 !
 ! A13   A(1,4,5)              120.228          -DE/DX =    0.0                 !
 ! A14   A(1,4,7)              131.2263         -DE/DX =    0.0                 !
 ! A15   A(1,4,11)             109.7709         -DE/DX =    0.0                 !
 ! A16   A(5,4,11)              75.4908         -DE/DX =    0.0                 !
 ! A17   A(7,4,11)              92.9921         -DE/DX =    0.0                 !
 ! D1    D(4,1,2,3)            -92.3582         -DE/DX =    0.0                 !
 ! D2    D(4,1,2,12)            82.3569         -DE/DX =    0.0                 !
 ! D3    D(8,1,2,3)             21.6025         -DE/DX =    0.0                 !
 ! D4    D(8,1,2,12)          -163.6823         -DE/DX =    0.0                 !
 ! D5    D(9,1,2,3)            158.5232         -DE/DX =    0.0                 !
 ! D6    D(9,1,2,12)           -26.7616         -DE/DX =    0.0                 !
 ! D7    D(2,1,4,5)            167.8388         -DE/DX =    0.0                 !
 ! D8    D(2,1,4,7)           -163.6232         -DE/DX =    0.0                 !
 ! D9    D(2,1,4,11)            83.5022         -DE/DX =    0.0                 !
 ! D10   D(8,1,4,5)             47.2297         -DE/DX =    0.0                 !
 ! D11   D(8,1,4,7)             75.7677         -DE/DX =    0.0                 !
 ! D12   D(8,1,4,11)           -37.1069         -DE/DX =    0.0                 !
 ! D13   D(9,1,4,5)            -72.6323         -DE/DX =    0.0                 !
 ! D14   D(9,1,4,7)            -44.0943         -DE/DX =    0.0                 !
 ! D15   D(9,1,4,11)          -156.9688         -DE/DX =    0.0                 !
 ! D16   D(1,2,3,6)            178.7557         -DE/DX =    0.0                 !
 ! D17   D(1,2,3,10)            -3.2973         -DE/DX =    0.0                 !
 ! D18   D(12,2,3,6)             3.9645         -DE/DX =    0.0                 !
 ! D19   D(12,2,3,10)         -178.0885         -DE/DX =    0.0                 !
 --------------------------------------------------------------------------------
 GradGradGradGradGradGradGradGradGradGradGradGradGradGradGradGradGradGrad


 ----------------------------------------------------------------------

 Electric dipole moment (input orientation):
 (Debye = 10**-18 statcoulomb cm , SI units = C m)
                  (au)            (Debye)         (10**-30 SI)
   Tot        0.922323D+00      0.234431D+01      0.781978D+01
   x         -0.271375D+00     -0.689765D+00     -0.230081D+01
   y          0.153797D-02      0.390914D-02      0.130395D-01
   z         -0.881495D+00     -0.224054D+01     -0.747363D+01

 Dipole polarizability, Alpha (input orientation).
 (esu units = cm**3 , SI units = C**2 m**2 J**-1)
 Alpha(0;0):
               (au)            (10**-24 esu)      (10**-40 SI)
   iso        0.876825D+02      0.129932D+02      0.144569D+02
   aniso      0.123926D+03      0.183639D+02      0.204326D+02
   xx         0.461211D+02      0.683444D+01      0.760434D+01
   yx         0.150499D+01      0.223016D+00      0.248139D+00
   yy         0.155414D+03      0.230300D+02      0.256243D+02
   zx         0.236199D+01      0.350011D+00      0.389440D+00
   zy        -0.401434D+02     -0.594864D+01     -0.661875D+01
   zz         0.615126D+02      0.911523D+01      0.101421D+02

 ----------------------------------------------------------------------

 Dipole orientation:
     6          3.10116660         -1.83714611          3.77400668
     6          1.86383163         -0.03937161          2.11278089
     6          3.08709220          0.90412811         -0.14217609
     8          1.99550793         -4.08604350          2.47126844
     8          3.30047907         -7.50569964          3.19470173
     8          2.10651148          2.39237715         -1.62882526
     1          1.65447860         -8.16437731          3.69694776
     1          5.16005864         -1.94290307          3.68581421
     1          2.42012460         -1.95184041          5.71098042
     1          5.06117643          0.24840754         -0.45434811
     1          3.01407034         -4.51455850          0.99303999
     1         -0.08348247          0.50243291          2.46410111

 Electric dipole moment (dipole orientation):
 (Debye = 10**-18 statcoulomb cm , SI units = C m)
                  (au)            (Debye)         (10**-30 SI)
   Tot        0.922323D+00      0.234431D+01      0.781978D+01
   x          0.000000D+00      0.000000D+00      0.000000D+00
   y          0.000000D+00      0.000000D+00      0.000000D+00
   z          0.922323D+00      0.234431D+01      0.781978D+01

 Dipole polarizability, Alpha (dipole orientation).
 (esu units = cm**3 , SI units = C**2 m**2 J**-1)
 Alpha(0;0):
               (au)            (10**-24 esu)      (10**-40 SI)
   iso        0.876825D+02      0.129932D+02      0.144569D+02
   aniso      0.123926D+03      0.183639D+02      0.204326D+02
   xx         0.461318D+02      0.683603D+01      0.760611D+01
   yx        -0.132732D+02     -0.196688D+01     -0.218845D+01
   yy         0.155281D+03      0.230102D+02      0.256023D+02
   zx         0.240678D+01      0.356649D+00      0.396825D+00
   zy        -0.380794D+02     -0.564278D+01     -0.627844D+01
   zz         0.616353D+02      0.913341D+01      0.101623D+02

 ----------------------------------------------------------------------
 1\1\GINC-BELL-A094\Freq\RB3LYP\6-31+G(d)\C3H6O3\ZHAO922\23-Dec-2020\0\
 \#N Geom=AllCheck Guess=TCheck SCRF=Check GenChk RB3LYP/6-31+G(d) Freq
 \\pp_21_0 TS\\0,1\C,0.9810576628,0.9759163536,-2.3899415301\C,0.613684
 9824,0.022946281,-1.3587066927\C,1.5833231169,-0.4781589507,-0.4095504
 957\O,0.6250015648,2.1646835917,-1.5569437419\O,1.1728105459,3.9750967
 166,-2.1229875969\O,1.3186642917,-1.2671473024,0.4936884353\H,0.262228
 7344,4.3238781076,-2.1201370974\H,2.0360942221,1.0320759528,-2.6658130
 357\H,0.3350480368,1.0382286617,-3.263431438\H,2.630414366,-0.13118045
 54,-0.5584540046\H,1.3703589007,2.3902744653,-0.9675377465\H,-0.425947
 4246,-0.2637124218,-1.2336700558\\Version=ES64L-G16RevB.01\State=1-A\H
 F=-343.4236791\RMSD=2.499e-09\RMSF=1.267e-06\ZeroPoint=0.0886877\Therm
 al=0.09618\Dipole=-0.2713745,0.001538,-0.881495\DipoleDeriv=0.2403364,
 -0.0737978,-0.0656739,-0.1066682,0.0860866,0.1401379,0.0104456,0.23558
 08,0.4893548,-0.0490832,0.7180995,-0.2956493,0.0288006,-0.6782741,0.07
 81497,-0.103795,0.2036702,-0.3258175,0.7201614,-0.6912653,0.3003498,0.
 0289065,0.8622037,-0.6176606,0.0683702,-1.2526869,1.0029242,-0.2316848
 ,0.3269864,-0.0775662,0.1107491,1.7605049,-0.6118982,0.0350559,-0.5905
 038,-0.3261188,-0.281944,-0.2469223,0.0204954,-0.0055643,-1.7254078,0.
 3267453,-0.0245922,0.2373775,-0.6134112,-0.4611134,0.0352852,0.0324857
 ,-0.0082221,-0.9592489,0.493472,-0.0151891,0.8611433,-0.9541521,0.0800
 477,-0.1713764,0.0740119,0.0346751,0.3104443,0.0036678,0.0089898,0.012
 8869,0.3192009,-0.0561319,0.0107834,0.0633942,-0.0120802,0.0659572,-0.
 006829,-0.0098798,-0.0045452,0.0482147,0.0356311,0.0007588,-0.066708,0
 .0298263,0.0867893,0.0391086,-0.0379307,-0.0081863,-0.0032055,-0.21527
 65,0.0175866,0.0167301,-0.1143957,0.0544917,0.0370085,0.0653349,0.0267
 681,0.0383424,0.2271545,0.0690671,0.0169501,0.0281463,0.0390788,0.0618
 981,0.0009112,0.2255602,0.2474495,-0.0080972,0.0047947,-0.0188196,-0.0
 141733,0.0973742,0.0561999,0.0022791,0.052935,0.0772186\Polar=46.12110
 29,1.5049893,155.4139299,2.3619916,-40.143395,61.5125887\Quadrupole=6.
 1346584,-6.6422753,0.5076169,-2.6981759,1.5092082,7.3095505\PG=C01 [X(
 C3H6O3)]\NImag=1\\0.65893633,0.03877127,0.27032860,0.03880695,-0.10537
 101,0.60644226,-0.11948199,-0.04444194,0.03124943,0.64878408,-0.050408
 75,-0.11353454,0.13113917,0.09746634,0.31135461,0.03191846,0.09634760,
 -0.18743115,0.02920362,-0.23356128,0.41002283,0.01626483,0.00267201,0.
 00877885,-0.21059384,0.02468366,-0.08357626,0.59778535,0.00693748,-0.0
 2334996,0.01536640,0.01375199,-0.06867985,0.01719974,0.11896999,0.4531
 3597,-0.01452035,0.01735252,-0.02015189,-0.05680560,0.02741747,-0.1221
 6747,-0.02462620,-0.32395723,0.56815024,-0.08418511,0.00996436,-0.0063
 1227,-0.00964349,0.00705863,-0.00470231,0.00098878,0.00065737,0.005016
 95,0.40905722,0.04496463,-0.01339154,-0.06971074,-0.01254875,-0.049299
 20,0.02130545,0.01077882,0.00008157,0.00914756,0.01812014,0.12154535,0
 .01977057,-0.04674537,-0.09273991,-0.00247779,-0.00738507,-0.00102488,
 -0.00389124,0.01127135,-0.00213055,0.20728726,0.14085769,0.31233768,0.
 00126484,-0.01305180,-0.00464779,0.00597322,0.00236724,-0.00270666,-0.
 00199847,-0.00042965,-0.00083244,-0.01685368,0.01140030,0.00819555,0.4
 5449938,-0.00224770,-0.02410617,0.00073714,0.00655891,0.00061109,-0.00
 090199,-0.00975046,0.00153125,-0.00672064,-0.00704990,-0.01381928,0.01
 302313,-0.15258440,0.11776342,-0.00130258,0.01359186,0.00448676,-0.001
 21418,-0.00266307,0.00562936,0.00120733,-0.00038077,-0.00022089,0.0041
 2631,0.00216331,-0.01510356,-0.00742926,-0.01978615,0.01323553,-0.0035
 0358,0.00292917,-0.00429933,0.02856857,0.01439040,-0.01375308,-0.13465
 796,-0.08741985,0.08778011,0.00035970,-0.00324669,-0.00018346,0.000792
 49,0.00254243,-0.00054812,0.10657436,0.00467025,0.01159727,0.00338820,
 0.01491194,-0.02574413,0.05369707,-0.10033167,-0.30460896,0.27671074,0
 .00081888,0.00184173,-0.00425573,0.00010259,-0.00190375,-0.00007110,0.
 10018428,0.33059450,-0.00501336,-0.00498397,-0.00073231,-0.01770135,0.
 05320598,-0.05046065,0.10353297,0.28321635,-0.37536121,-0.00161255,-0.
 00483387,0.00214192,0.00013707,0.00394219,0.00038272,-0.10170087,-0.35
 326860,0.43105931,-0.00059577,-0.00055943,0.00208267,0.00092101,-0.002
 00775,0.00023443,-0.00150497,0.00057807,-0.00161952,0.00545919,-0.0002
 6717,-0.00128341,-0.44264402,0.16346054,0.00176349,0.00018527,-0.00058
 333,0.00107465,0.43853458,-0.00034553,0.00008643,0.00160294,-0.0017566
 3,-0.00066640,0.00039078,0.00024232,-0.00011463,0.00030968,0.00972818,
 -0.00530368,-0.00107432,0.15081352,-0.07103238,0.00346924,-0.00008163,
 0.00020987,-0.00019847,-0.15907451,0.07822110,0.00078075,-0.00025568,0
 .00041215,0.00015579,0.00001601,-0.00022489,0.00006342,-0.00006378,0.0
 0008121,-0.00214862,0.00232425,-0.00125647,0.00565556,0.00189378,-0.00
 337534,0.00000761,0.00003847,-0.00012258,-0.00284388,-0.00418055,0.003
 80984,-0.31233429,-0.01551493,0.06008928,-0.00377744,-0.00330744,0.002
 53263,-0.00007016,0.00152846,-0.00247839,-0.00167831,0.00227595,0.0037
 3739,-0.00009531,0.00019790,-0.00033373,0.00007027,-0.00041573,0.00038
 333,0.00013227,0.00000910,-0.00006413,0.32976145,-0.02298648,-0.046529
 65,0.00880464,-0.02615583,-0.00149371,0.00507306,-0.00110467,-0.000343
 27,-0.00273288,0.03054482,-0.01324691,-0.01510478,-0.00031395,0.002613
 26,-0.00013716,0.00038364,-0.00000527,0.00052418,-0.00000672,0.0005179
 3,-0.00008047,0.01617333,0.05473227,0.05494076,0.00889026,-0.07065241,
 0.01899446,0.00214726,-0.00162033,0.00257580,0.00008379,0.00049646,0.0
 1802348,-0.01027252,-0.00899467,0.00006580,0.00116875,-0.00030704,-0.0
 0097489,-0.00058358,0.00043934,-0.00005191,0.00009660,-0.00012738,-0.0
 7030912,-0.00196357,0.07247958,-0.16432139,0.00744694,-0.14092537,0.00
 831832,-0.00085256,0.00819211,-0.00126133,-0.00039979,0.00014456,0.006
 93545,0.00345883,0.00773528,-0.00025405,-0.00063264,0.00033505,0.00053
 332,-0.00054927,0.00062932,-0.00003417,-0.00004407,-0.00007044,-0.0141
 2065,0.00219556,-0.02365717,0.16293665,0.01366603,-0.04340486,0.024724
 19,0.01860220,-0.00152800,0.02086468,-0.00453898,0.00150711,0.00331419
 ,-0.01958868,-0.01161608,-0.03135323,0.00118918,0.00242019,0.00060476,
 0.00107733,-0.00226147,0.00109948,0.00007569,-0.00023234,-0.00024426,-
 0.00169987,0.00200865,-0.00100968,-0.01198232,0.05598285,-0.13377673,0
 .01737789,-0.22681935,-0.01177567,0.00350616,-0.01218874,0.00357518,0.
 00006668,-0.00085428,-0.00974548,-0.00891264,-0.01639565,0.00027370,0.
 00006303,0.00008585,-0.00094971,0.00061769,-0.00061392,-0.00013848,-0.
 00011160,-0.00005042,0.00490704,0.00019466,0.00992703,0.14556185,-0.01
 182727,0.24771072,-0.00076906,-0.00038087,0.00128031,-0.02145238,-0.00
 859348,0.00147877,-0.25151976,-0.04576273,0.00294975,0.00015950,-0.002
 19698,0.00081465,0.00057465,0.00206182,-0.00032720,-0.00118409,-0.0193
 7727,0.01930826,0.00024745,-0.00002788,-0.00000523,0.00065107,0.000811
 58,-0.00097748,0.00055383,0.00015227,-0.00037455,0.27543588,0.00067760
 ,0.00017553,-0.00054856,0.00751096,0.01120177,0.00516776,-0.04917287,-
 0.06677132,0.00134839,-0.00028796,-0.00057100,-0.00113361,0.00028964,0
 .00073240,-0.00010695,-0.03061110,-0.00811783,0.02239993,0.00006315,-0
 .00008386,0.00001606,0.00000511,0.00003443,-0.00010733,-0.00024830,0.0
 0007071,-0.00000234,0.07104687,0.06200092,-0.00071564,-0.00075375,0.00
 111822,-0.02103381,0.00009786,0.00805267,0.01181909,0.00381324,-0.0566
 1741,0.00019782,-0.00012164,-0.00072881,-0.00002450,-0.00023513,-0.000
 03060,0.03169622,0.02473794,-0.00523116,-0.00007607,-0.00002825,0.0000
 1423,0.00073315,0.00012661,-0.00006510,0.00013395,-0.00032467,0.000141
 38,-0.02031302,-0.02996667,0.05442117,0.01066583,0.00992768,0.01435348
 ,-0.00014829,-0.00284213,0.00359571,0.00339110,-0.00005104,-0.00067825
 ,-0.31246740,-0.07230328,-0.23914255,-0.00109075,-0.00316639,0.0037899
 6,-0.00124435,-0.00031213,0.00036282,-0.00080796,0.00043375,-0.0015072
 5,0.00071829,0.00080940,0.00139649,0.00004151,0.00321126,0.00235230,-0
 .00108056,-0.00012519,0.00019653,0.30219914,-0.01847078,-0.01227342,-0
 .01448201,0.00108687,-0.00530709,-0.00268132,-0.00289128,-0.00057037,-
 0.00225327,-0.04516841,-0.01815380,-0.06011927,-0.00092472,-0.01442744
 ,0.00372022,0.00065764,-0.00034193,0.00126530,-0.00146015,-0.00099705,
 0.00036978,0.00021411,0.00193119,0.00018955,0.00116817,-0.00276507,-0.
 00085569,0.00120862,0.00005121,-0.00005161,0.06444742,0.05268786,-0.01
 682198,0.00169441,-0.01306243,0.00301880,0.00153669,0.00224678,0.00245
 675,-0.00062493,0.00250778,-0.20644092,-0.08269243,-0.17684080,0.00098
 235,0.00763600,-0.00476886,-0.00055263,0.00081550,-0.00185368,0.000994
 93,0.00002567,0.00069772,0.00007759,0.00027969,0.00039259,0.00197680,-
 0.00419291,-0.00181727,-0.00077431,-0.00005547,0.00025628,0.21536652,0
 .07504289,0.19186146,-0.00194065,0.00223753,-0.00045619,-0.32746776,-0
 .07795414,0.02758256,-0.01682358,-0.00836030,0.00566937,0.00186816,-0.
 00043580,-0.00056225,-0.00016831,0.00060989,-0.00006707,0.00350599,0.0
 0088146,0.00059974,0.00010712,0.00010337,-0.00002357,0.00074283,-0.000
 35066,-0.00002622,0.00067252,-0.00016411,0.00009056,-0.00161653,0.0008
 5209,-0.00261371,-0.00017658,0.00013252,-0.00028389,0.34129679,-0.0152
 2802,-0.00559768,0.00434965,-0.07498605,-0.05691455,0.01709845,0.01044
 314,0.00818248,0.00006346,-0.00479742,0.00193285,0.00201922,0.00114205
 ,-0.00038259,-0.00040421,-0.00080561,-0.00126003,-0.00236849,-0.000218
 39,-0.00060499,0.00016638,0.00053402,-0.00021891,0.00136046,0.00043944
 ,-0.00018170,-0.00011657,0.00105804,0.00127704,0.00270605,-0.00002933,
 0.00016591,0.00053490,0.08244815,0.05360216,0.02593315,0.00285524,-0.0
 0086994,0.02838630,0.02454282,-0.05083354,-0.02191570,-0.00599084,0.00
 626801,-0.00368966,0.00074557,0.00073571,0.00033062,-0.00082012,-0.000
 01394,0.00347815,-0.00182662,0.00035222,-0.00013688,-0.00030170,0.0001
 4193,0.00072496,0.00501602,-0.00196807,-0.00005592,-0.00165528,0.00087
 465,-0.00305994,0.00298878,-0.00133088,-0.00008574,-0.00014457,0.00038
 043,-0.02990934,-0.02540932,0.04626343\\0.00000376,0.00000047,-0.00000
 032,0.00000003,0.00000238,0.00000037,-0.00000143,-0.00000016,0.0000004
 1,-0.00000039,-0.00000128,0.,-0.00000063,-0.00000094,0.00000126,-0.000
 00002,-0.00000058,-0.00000130,0.00000052,0.00000094,0.00000100,-0.0000
 0042,0.00000099,-0.00000105,0.00000027,0.00000209,0.00000089,0.0000000
 1,-0.00000005,-0.00000011,-0.00000174,-0.00000382,0.00000002,0.0000000
 6,-0.00000002,-0.00000116\\\@


 When cryptography is outlawed, bayl bhgynjf jvyy unir cevinpl.
 Job cpu time:       0 days  0 hours  3 minutes 48.0 seconds.
 Elapsed time:       0 days  0 hours  0 minutes 14.5 seconds.
 File lengths (MBytes):  RWF=     27 Int=      0 D2E=      0 Chk=      3 Scr=      1
 Normal termination of Gaussian 16 at Wed Dec 23 22:08:26 2020.
