 Entering Gaussian System, Link 0=g16
 Initial command:
 /apps/cent7/gaussian/g16-B.01/g16-haswell/g16/l1.exe "/scratch/bell/zhao922/YARP/paper-example/KHP-network/pp_0/TS-folder/Gau-95646.inp" -scrdir="/scratch/bell/zhao922/YARP/paper-example/KHP-network/pp_0/TS-folder/"
 Entering Link 1 = /apps/cent7/gaussian/g16-B.01/g16-haswell/g16/l1.exe PID=     95648.
  
 Copyright (c) 1988-2017, Gaussian, Inc.  All Rights Reserved.
  
 This is part of the Gaussian(R) 16 program.  It is based on
 the Gaussian(R) 09 system (copyright 2009, Gaussian, Inc.),
 the Gaussian(R) 03 system (copyright 2003, Gaussian, Inc.),
 the Gaussian(R) 98 system (copyright 1998, Gaussian, Inc.),
 the Gaussian(R) 94 system (copyright 1995, Gaussian, Inc.),
 the Gaussian 92(TM) system (copyright 1992, Gaussian, Inc.),
 the Gaussian 90(TM) system (copyright 1990, Gaussian, Inc.),
 the Gaussian 88(TM) system (copyright 1988, Gaussian, Inc.),
 the Gaussian 86(TM) system (copyright 1986, Carnegie Mellon
 University), and the Gaussian 82(TM) system (copyright 1983,
 Carnegie Mellon University). Gaussian is a federally registered
 trademark of Gaussian, Inc.
  
 This software contains proprietary and confidential information,
 including trade secrets, belonging to Gaussian, Inc.
  
 This software is provided under written license and may be
 used, copied, transmitted, or stored only in accord with that
 written license.
  
 The following legend is applicable only to US Government
 contracts under FAR:
  
                    RESTRICTED RIGHTS LEGEND
  
 Use, reproduction and disclosure by the US Government is
 subject to restrictions as set forth in subparagraphs (a)
 and (c) of the Commercial Computer Software - Restricted
 Rights clause in FAR 52.227-19.
  
 Gaussian, Inc.
 340 Quinnipiac St., Bldg. 40, Wallingford CT 06492
  
  
 ---------------------------------------------------------------
 Warning -- This program may not be used in any manner that
 competes with the business of Gaussian, Inc. or will provide
 assistance to any competitor of Gaussian, Inc.  The licensee
 of this program is prohibited from giving any competitor of
 Gaussian, Inc. access to this program.  By using this program,
 the user acknowledges that Gaussian, Inc. is engaged in the
 business of creating and licensing software in the field of
 computational chemistry and represents and warrants to the
 licensee that it is not a competitor of Gaussian, Inc. and that
 it will not use this program in any manner prohibited above.
 ---------------------------------------------------------------
  

 Cite this work as:
 Gaussian 16, Revision B.01,
 M. J. Frisch, G. W. Trucks, H. B. Schlegel, G. E. Scuseria, 
 M. A. Robb, J. R. Cheeseman, G. Scalmani, V. Barone, 
 G. A. Petersson, H. Nakatsuji, X. Li, M. Caricato, A. V. Marenich, 
 J. Bloino, B. G. Janesko, R. Gomperts, B. Mennucci, H. P. Hratchian, 
 J. V. Ortiz, A. F. Izmaylov, J. L. Sonnenberg, D. Williams-Young, 
 F. Ding, F. Lipparini, F. Egidi, J. Goings, B. Peng, A. Petrone, 
 T. Henderson, D. Ranasinghe, V. G. Zakrzewski, J. Gao, N. Rega, 
 G. Zheng, W. Liang, M. Hada, M. Ehara, K. Toyota, R. Fukuda, 
 J. Hasegawa, M. Ishida, T. Nakajima, Y. Honda, O. Kitao, H. Nakai, 
 T. Vreven, K. Throssell, J. A. Montgomery, Jr., J. E. Peralta, 
 F. Ogliaro, M. J. Bearpark, J. J. Heyd, E. N. Brothers, K. N. Kudin, 
 V. N. Staroverov, T. A. Keith, R. Kobayashi, J. Normand, 
 K. Raghavachari, A. P. Rendell, J. C. Burant, S. S. Iyengar, 
 J. Tomasi, M. Cossi, J. M. Millam, M. Klene, C. Adamo, R. Cammi, 
 J. W. Ochterski, R. L. Martin, K. Morokuma, O. Farkas, 
 J. B. Foresman, and D. J. Fox, Gaussian, Inc., Wallingford CT, 2016.
 
 ******************************************
 Gaussian 16:  ES64L-G16RevB.01 20-Dec-2017
                23-Dec-2020 
 ******************************************
 %NProcShared=16
 Will use up to   16 processors via shared memory.
 %Mem=6GB
 --------------------------------------------------------------
 # B3LYP/6-31+G* OPT=(TS, CALCALL, NOEIGEN, maxcycles=100) Freq
 --------------------------------------------------------------
 1/5=1,6=100,10=4,11=1,18=20,26=3,38=1/1,3;
 2/9=110,12=2,17=6,18=5,40=1/2;
 3/5=1,6=6,7=11,11=2,25=1,30=1,71=2,74=-5,140=1/1,2,3;
 4//1;
 5/5=2,38=5/2;
 8/6=4,10=90,11=11/1;
 11/6=1,8=1,9=11,15=111,16=1/1,2,10;
 10/6=1/2;
 6/7=2,8=2,9=2,10=2,18=1,28=1/1;
 7/10=1,25=1/1,2,3,16;
 1/5=1,6=100,10=4,11=1,18=20,26=3/3(3);
 2/9=110/2;
 7/8=1,9=1,25=1,44=-1/16;
 99//99;
 2/9=110/2;
 3/5=1,6=6,7=11,11=2,25=1,30=1,71=2,74=-5,140=1/1,2,3;
 4/5=5,16=3,69=1/1;
 5/5=2,38=5/2;
 8/6=4,10=90,11=11/1;
 11/6=1,8=1,9=11,15=111,16=1/1,2,10;
 10/6=1/2;
 7/10=1,25=1/1,2,3,16;
 1/5=1,6=100,10=4,11=1,18=20,26=3/3(-8);
 2/9=110/2;
 6/7=2,8=2,9=2,10=2,18=1,19=2,28=1/1;
 7/8=1,9=1,25=1,44=-1/16;
 99//99;
 ----------
 pp_20_1 TS
 ----------
 Symbolic Z-matrix:
 Charge =  0 Multiplicity = 1
 C                     1.44646   1.53046  -2.65211 
 C                     1.03687   0.585    -1.59722 
 C                     1.60096   0.22043  -0.23743 
 O                     0.79827   2.77698  -2.40736 
 O                     1.25591   3.38223  -1.19595 
 O                     2.4425   -0.53586  -0.51397 
 H                     1.06939   4.32445  -1.34796 
 H                     2.54424   1.63518  -2.70792 
 H                     1.03612   1.27764  -3.63177 
 H                    -0.8309   -0.30047   0.03934 
 H                     0.36793  -0.214    -1.93252 
 H                    -0.54831   0.5848   -0.30553 
 
 Add virtual bond connecting atoms H12        and H10        Dist= 1.87D+00.
 Add virtual bond connecting atoms H12        and C2         Dist= 3.86D+00.
 Add virtual bond connecting atoms H12        and C3         Dist= 4.12D+00.
 Add virtual bond connecting atoms H12        and H11        Dist= 3.84D+00.

 GradGradGradGradGradGradGradGradGradGradGradGradGradGradGradGradGradGrad
 Berny optimization.
 Initialization pass.
                           ----------------------------
                           !    Initial Parameters    !
                           ! (Angstroms and Degrees)  !
 --------------------------                            --------------------------
 ! Name  Definition              Value          Derivative Info.                !
 --------------------------------------------------------------------------------
 ! R1    R(1,2)                  1.4746         calculate D2E/DX2 analytically  !
 ! R2    R(1,4)                  1.4261         calculate D2E/DX2 analytically  !
 ! R3    R(1,8)                  1.1042         calculate D2E/DX2 analytically  !
 ! R4    R(1,9)                  1.0918         calculate D2E/DX2 analytically  !
 ! R5    R(2,3)                  1.5166         calculate D2E/DX2 analytically  !
 ! R6    R(2,11)                 1.0947         calculate D2E/DX2 analytically  !
 ! R7    R(2,12)                 2.0448         calculate D2E/DX2 analytically  !
 ! R8    R(3,6)                  1.1647         calculate D2E/DX2 analytically  !
 ! R9    R(3,12)                 2.181          calculate D2E/DX2 analytically  !
 ! R10   R(4,5)                  1.4294         calculate D2E/DX2 analytically  !
 ! R11   R(5,7)                  0.9725         calculate D2E/DX2 analytically  !
 ! R12   R(10,12)                0.9912         calculate D2E/DX2 analytically  !
 ! R13   R(11,12)                2.0309         calculate D2E/DX2 analytically  !
 ! A1    A(2,1,4)              108.1434         calculate D2E/DX2 analytically  !
 ! A2    A(2,1,8)              111.9082         calculate D2E/DX2 analytically  !
 ! A3    A(2,1,9)              112.8943         calculate D2E/DX2 analytically  !
 ! A4    A(4,1,8)              112.1888         calculate D2E/DX2 analytically  !
 ! A5    A(4,1,9)              100.694          calculate D2E/DX2 analytically  !
 ! A6    A(8,1,9)              110.5036         calculate D2E/DX2 analytically  !
 ! A7    A(1,2,3)              133.8053         calculate D2E/DX2 analytically  !
 ! A8    A(1,2,11)             114.7467         calculate D2E/DX2 analytically  !
 ! A9    A(1,2,12)             131.8577         calculate D2E/DX2 analytically  !
 ! A10   A(3,2,11)             109.0538         calculate D2E/DX2 analytically  !
 ! A11   A(2,3,6)              102.2361         calculate D2E/DX2 analytically  !
 ! A12   A(6,3,12)             144.3959         calculate D2E/DX2 analytically  !
 ! A13   A(1,4,5)              111.7167         calculate D2E/DX2 analytically  !
 ! A14   A(4,5,7)              102.4957         calculate D2E/DX2 analytically  !
 ! A15   A(2,12,10)            116.1603         calculate D2E/DX2 analytically  !
 ! A16   A(3,12,10)             96.9428         calculate D2E/DX2 analytically  !
 ! A17   A(3,12,11)             60.9694         calculate D2E/DX2 analytically  !
 ! A18   A(10,12,11)            93.214          calculate D2E/DX2 analytically  !
 ! D1    D(4,1,2,3)            -90.8135         calculate D2E/DX2 analytically  !
 ! D2    D(4,1,2,11)           109.103          calculate D2E/DX2 analytically  !
 ! D3    D(4,1,2,12)            19.1864         calculate D2E/DX2 analytically  !
 ! D4    D(8,1,2,3)             33.2519         calculate D2E/DX2 analytically  !
 ! D5    D(8,1,2,11)          -126.8316         calculate D2E/DX2 analytically  !
 ! D6    D(8,1,2,12)           143.2517         calculate D2E/DX2 analytically  !
 ! D7    D(9,1,2,3)            158.6776         calculate D2E/DX2 analytically  !
 ! D8    D(9,1,2,11)            -1.406          calculate D2E/DX2 analytically  !
 ! D9    D(9,1,2,12)           -91.3226         calculate D2E/DX2 analytically  !
 ! D10   D(2,1,4,5)             65.8586         calculate D2E/DX2 analytically  !
 ! D11   D(8,1,4,5)            -58.0382         calculate D2E/DX2 analytically  !
 ! D12   D(9,1,4,5)           -175.5537         calculate D2E/DX2 analytically  !
 ! D13   D(1,2,3,6)            -81.7737         calculate D2E/DX2 analytically  !
 ! D14   D(11,2,3,6)            79.1214         calculate D2E/DX2 analytically  !
 ! D15   D(1,2,12,10)          155.1333         calculate D2E/DX2 analytically  !
 ! D16   D(6,3,12,10)           47.6103         calculate D2E/DX2 analytically  !
 ! D17   D(6,3,12,11)          -42.2185         calculate D2E/DX2 analytically  !
 ! D18   D(1,4,5,7)            155.7777         calculate D2E/DX2 analytically  !
 --------------------------------------------------------------------------------
 Trust Radius=3.00D-01 FncErr=1.00D-07 GrdErr=1.00D-06 EigMax=2.50D+02 EigMin=1.00D-04
 Number of steps in this run=    100 maximum allowed number of steps=    100.
 Search for a saddle point of order  1.
 GradGradGradGradGradGradGradGradGradGradGradGradGradGradGradGradGradGrad

                          Input orientation:                          
 ---------------------------------------------------------------------
 Center     Atomic      Atomic             Coordinates (Angstroms)
 Number     Number       Type             X           Y           Z
 ---------------------------------------------------------------------
      1          6           0        1.446464    1.530463   -2.652106
      2          6           0        1.036874    0.585000   -1.597220
      3          6           0        1.600963    0.220430   -0.237432
      4          8           0        0.798270    2.776980   -2.407359
      5          8           0        1.255914    3.382234   -1.195946
      6          8           0        2.442495   -0.535861   -0.513970
      7          1           0        1.069388    4.324448   -1.347962
      8          1           0        2.544244    1.635181   -2.707917
      9          1           0        1.036124    1.277643   -3.631773
     10          1           0       -0.830901   -0.300469    0.039341
     11          1           0        0.367930   -0.214003   -1.932516
     12          1           0       -0.548309    0.584800   -0.305528
 ---------------------------------------------------------------------
                    Distance matrix (angstroms):
                    1          2          3          4          5
     1  C    0.000000
     2  C    1.474601   0.000000
     3  C    2.751492   1.516618   0.000000
     4  O    1.426135   2.349049   3.448021   0.000000
     5  O    2.363423   2.834346   3.321869   1.429438   0.000000
     6  O    3.135825   2.098936   1.164743   4.154914   4.150245
     7  H    3.106337   3.747887   4.284718   1.894857   0.972455
     8  H    1.104175   2.146786   2.999099   2.107716   2.645382
     9  H    1.091808   2.149223   3.599763   1.950327   3.226587
    10  H    3.972731   2.636469   2.502379   4.255729   4.409425
    11  H    2.173524   1.094676   2.140657   3.058864   3.776767
    12  H    3.221774   2.044816   2.181003   3.322141   3.445824
                    6          7          8          9         10
     6  O    0.000000
     7  H    5.118942   0.000000
     8  H    3.088232   3.355121   0.000000
     9  H    3.871353   3.807876   1.804375   0.000000
    10  H    3.328165   5.188985   4.762958   4.410589   0.000000
    11  H    2.533710   4.629394   2.959235   2.357746   2.309306
    12  H    3.200662   4.205779   4.054461   3.748915   0.991208
                   11         12
    11  H    0.000000
    12  H    2.030928   0.000000
 Stoichiometry    C3H6O3
 Framework group  C1[X(C3H6O3)]
 Deg. of freedom    30
 Full point group                 C1      NOp   1
 Largest Abelian subgroup         C1      NOp   1
 Largest concise Abelian subgroup C1      NOp   1
                         Standard orientation:                         
 ---------------------------------------------------------------------
 Center     Atomic      Atomic             Coordinates (Angstroms)
 Number     Number       Type             X           Y           Z
 ---------------------------------------------------------------------
      1          6           0        0.575659    1.044081   -0.225310
      2          6           0       -0.601547    0.444699    0.429958
      3          6           0       -1.568290   -0.659014    0.046089
      4          8           0        1.732835    0.325236    0.196668
      5          8           0        1.717874   -1.024432   -0.273932
      6          8           0       -2.310468   -0.103033   -0.658668
      7          1           0        2.662213   -1.256552   -0.277344
      8          1           0        0.472084    1.059396   -1.324510
      9          1           0        0.808857    2.042191    0.150776
     10          1           0       -1.658173   -0.719953    2.546110
     11          1           0       -1.057535    1.064297    1.208732
     12          1           0       -0.784305   -0.750138    2.079272
 ---------------------------------------------------------------------
 Rotational constants (GHZ):           6.8530152           1.9717651           1.8043331
 Standard basis: 6-31+G(d) (6D, 7F)
 There are   126 symmetry adapted cartesian basis functions of A   symmetry.
 There are   126 symmetry adapted basis functions of A   symmetry.
   126 basis functions,   216 primitive gaussians,   126 cartesian basis functions
    24 alpha electrons       24 beta electrons
       nuclear repulsion energy       235.2253528032 Hartrees.
 NAtoms=   12 NActive=   12 NUniq=   12 SFac= 1.00D+00 NAtFMM=   60 NAOKFM=F Big=F
 Integral buffers will be    131072 words long.
 Raffenetti 2 integral format.
 Two-electron integral symmetry is turned on.
 One-electron integrals computed using PRISM.
 NBasis=   126 RedAO= T EigKep=  8.35D-05  NBF=   126
 NBsUse=   126 1.00D-06 EigRej= -1.00D+00 NBFU=   126
 ExpMin= 4.38D-02 ExpMax= 5.48D+03 ExpMxC= 8.25D+02 IAcc=3 IRadAn=         5 AccDes= 0.00D+00
 Harris functional with IExCor=  402 and IRadAn=       5 diagonalized for initial guess.
 HarFok:  IExCor=  402 AccDes= 0.00D+00 IRadAn=         5 IDoV= 1 UseB2=F ITyADJ=14
 ICtDFT=  3500011 ScaDFX=  1.000000  1.000000  1.000000  1.000000
 FoFCou: FMM=F IPFlag=           0 FMFlag=      100000 FMFlg1=           0
         NFxFlg=           0 DoJE=T BraDBF=F KetDBF=T FulRan=T
         wScrn=  0.000000 ICntrl=       500 IOpCl=  0 I1Cent=   200000004 NGrid=           0
         NMat0=    1 NMatS0=      1 NMatT0=    0 NMatD0=    1 NMtDS0=    0 NMtDT0=    0
 Petite list used in FoFCou.
 Keep R1 ints in memory in canonical form, NReq=47237537.
 Requested convergence on RMS density matrix=1.00D-08 within 128 cycles.
 Requested convergence on MAX density matrix=1.00D-06.
 Requested convergence on             energy=1.00D-06.
 No special actions if energy rises.
 SCF Done:  E(RB3LYP) =  -343.246270274     A.U. after   15 cycles
            NFock= 15  Conv=0.86D-08     -V/T= 2.0085
 DoSCS=F DFT=T ScalE2(SS,OS)=  1.000000  1.000000
 Range of M.O.s used for correlation:     1   126
 NBasis=   126 NAE=    24 NBE=    24 NFC=     0 NFV=     0
 NROrb=    126 NOA=    24 NOB=    24 NVA=   102 NVB=   102

 **** Warning!!: The largest alpha MO coefficient is  0.30605696D+02


 **** Warning!!: The smallest alpha delta epsilon is  0.57727666D-01

 Symmetrizing basis deriv contribution to polar:
 IMax=3 JMax=2 DiffMx= 0.00D+00
 G2DrvN: will do    13 centers at a time, making    1 passes.
 Calling FoFCou, ICntrl=  3107 FMM=F I1Cent=   0 AccDes= 0.00D+00.
 End of G2Drv F.D. properties file   721 does not exist.
 End of G2Drv F.D. properties file   722 does not exist.
 End of G2Drv F.D. properties file   788 does not exist.
          IDoAtm=111111111111
          Differentiating once with respect to electric field.
                with respect to dipole field.
          Differentiating once with respect to nuclear coordinates.
 Keep R1 ints in memory in canonical form, NReq=47193552.
          There are    39 degrees of freedom in the 1st order CPHF.  IDoFFX=6 NUNeed=     3.
     36 vectors produced by pass  0 Test12= 6.28D-15 2.56D-09 XBig12= 3.83D+02 1.75D+01.
 AX will form    36 AO Fock derivatives at one time.
     36 vectors produced by pass  1 Test12= 6.28D-15 2.56D-09 XBig12= 1.36D+02 2.51D+00.
     36 vectors produced by pass  2 Test12= 6.28D-15 2.56D-09 XBig12= 1.59D+00 2.32D-01.
     36 vectors produced by pass  3 Test12= 6.28D-15 2.56D-09 XBig12= 8.85D-03 1.46D-02.
     36 vectors produced by pass  4 Test12= 6.28D-15 2.56D-09 XBig12= 1.45D-05 4.94D-04.
     26 vectors produced by pass  5 Test12= 6.28D-15 2.56D-09 XBig12= 1.31D-08 1.53D-05.
      4 vectors produced by pass  6 Test12= 6.28D-15 2.56D-09 XBig12= 1.11D-11 4.34D-07.
      3 vectors produced by pass  7 Test12= 6.28D-15 2.56D-09 XBig12= 9.55D-15 1.11D-08.
 InvSVY:  IOpt=1 It=  1 EMax= 7.11D-15
 Solved reduced A of dimension   213 with    39 vectors.
 Isotropic polarizability for W=    0.000000       70.38 Bohr**3.
 End of Minotr F.D. properties file   721 does not exist.
 End of Minotr F.D. properties file   722 does not exist.
 End of Minotr F.D. properties file   788 does not exist.

 **********************************************************************

            Population analysis using the SCF Density.

 **********************************************************************

 Orbital symmetries:
       Occupied  (A) (A) (A) (A) (A) (A) (A) (A) (A) (A) (A) (A)
                 (A) (A) (A) (A) (A) (A) (A) (A) (A) (A) (A) (A)
       Virtual   (A) (A) (A) (A) (A) (A) (A) (A) (A) (A) (A) (A)
                 (A) (A) (A) (A) (A) (A) (A) (A) (A) (A) (A) (A)
                 (A) (A) (A) (A) (A) (A) (A) (A) (A) (A) (A) (A)
                 (A) (A) (A) (A) (A) (A) (A) (A) (A) (A) (A) (A)
                 (A) (A) (A) (A) (A) (A) (A) (A) (A) (A) (A) (A)
                 (A) (A) (A) (A) (A) (A) (A) (A) (A) (A) (A) (A)
                 (A) (A) (A) (A) (A) (A) (A) (A) (A) (A) (A) (A)
                 (A) (A) (A) (A) (A) (A) (A) (A) (A) (A) (A) (A)
                 (A) (A) (A) (A) (A) (A)
 The electronic state is 1-A.
 Alpha  occ. eigenvalues --  -19.25378 -19.23486 -19.22878 -10.28752 -10.28093
 Alpha  occ. eigenvalues --  -10.26340  -1.15155  -1.14919  -0.94558  -0.78570
 Alpha  occ. eigenvalues --   -0.67660  -0.57327  -0.56364  -0.51323  -0.50917
 Alpha  occ. eigenvalues --   -0.49388  -0.45486  -0.44398  -0.43342  -0.38704
 Alpha  occ. eigenvalues --   -0.37398  -0.35507  -0.27024  -0.19988
 Alpha virt. eigenvalues --   -0.14215  -0.04143  -0.00591   0.00480   0.01960
 Alpha virt. eigenvalues --    0.02525   0.03432   0.05279   0.06244   0.07683
 Alpha virt. eigenvalues --    0.09047   0.09492   0.10391   0.12465   0.13662
 Alpha virt. eigenvalues --    0.15642   0.15943   0.17518   0.19357   0.20392
 Alpha virt. eigenvalues --    0.20672   0.21550   0.22150   0.24227   0.25131
 Alpha virt. eigenvalues --    0.26176   0.27034   0.28179   0.28943   0.29453
 Alpha virt. eigenvalues --    0.31162   0.34307   0.35455   0.36525   0.40062
 Alpha virt. eigenvalues --    0.44536   0.61474   0.64672   0.67489   0.68629
 Alpha virt. eigenvalues --    0.71578   0.72647   0.75545   0.78411   0.86440
 Alpha virt. eigenvalues --    0.93026   0.94673   0.95099   0.97462   1.01301
 Alpha virt. eigenvalues --    1.05938   1.07081   1.09234   1.11749   1.14729
 Alpha virt. eigenvalues --    1.17322   1.18034   1.19796   1.21379   1.24931
 Alpha virt. eigenvalues --    1.27173   1.31606   1.36084   1.39298   1.44630
 Alpha virt. eigenvalues --    1.49523   1.51989   1.53835   1.59319   1.60602
 Alpha virt. eigenvalues --    1.67971   1.71243   1.73867   1.77416   1.81683
 Alpha virt. eigenvalues --    1.85247   1.95657   1.95912   2.00357   2.04106
 Alpha virt. eigenvalues --    2.05706   2.09632   2.17426   2.27126   2.34897
 Alpha virt. eigenvalues --    2.40936   2.45137   2.49846   2.51413   2.59388
 Alpha virt. eigenvalues --    2.63402   2.66090   2.81962   2.86744   3.08279
 Alpha virt. eigenvalues --    3.10412   3.99251   4.12827   4.17168   4.25038
 Alpha virt. eigenvalues --    4.35012   4.46919
          Condensed to atoms (all electrons):
               1          2          3          4          5          6
     1  C    6.090662  -0.367994  -0.351594   0.013939  -0.040112   0.015158
     2  C   -0.367994   7.397371  -1.195435  -0.113577   0.057344   0.028660
     3  C   -0.351594  -1.195435   7.420817   0.085401  -0.020404   0.339196
     4  O    0.013939  -0.113577   0.085401   8.163012   0.059091   0.003686
     5  O   -0.040112   0.057344  -0.020404   0.059091   8.307841  -0.001481
     6  O    0.015158   0.028660   0.339196   0.003686  -0.001481   7.753713
     7  H    0.000076   0.003386   0.001367  -0.029870   0.190686   0.000004
     8  H    0.402901  -0.057229  -0.024655  -0.048089   0.010034  -0.000108
     9  H    0.428601  -0.048232  -0.002489  -0.065428   0.008387  -0.000905
    10  H    0.041626  -0.095693   0.055366  -0.000544   0.000528   0.003406
    11  H   -0.049407   0.328024   0.016770   0.009958  -0.000360  -0.007474
    12  H    0.094223  -0.003434  -0.084184  -0.009539   0.005003   0.005840
               7          8          9         10         11         12
     1  C    0.000076   0.402901   0.428601   0.041626  -0.049407   0.094223
     2  C    0.003386  -0.057229  -0.048232  -0.095693   0.328024  -0.003434
     3  C    0.001367  -0.024655  -0.002489   0.055366   0.016770  -0.084184
     4  O   -0.029870  -0.048089  -0.065428  -0.000544   0.009958  -0.009539
     5  O    0.190686   0.010034   0.008387   0.000528  -0.000360   0.005003
     6  O    0.000004  -0.000108  -0.000905   0.003406  -0.007474   0.005840
     7  H    0.339917   0.000292  -0.000234  -0.000001   0.000000  -0.000023
     8  H    0.000292   0.517451  -0.023067  -0.000026   0.003009  -0.000010
     9  H   -0.000234  -0.023067   0.488406  -0.000064  -0.006508   0.000118
    10  H   -0.000001  -0.000026  -0.000064   0.657747  -0.002646   0.330200
    11  H    0.000000   0.003009  -0.006508  -0.002646   0.468030  -0.009429
    12  H   -0.000023  -0.000010   0.000118   0.330200  -0.009429   0.630961
 Mulliken charges:
               1
     1  C   -0.278079
     2  C    0.066808
     3  C   -0.240155
     4  O   -0.068040
     5  O   -0.576556
     6  O   -0.139694
     7  H    0.494400
     8  H    0.219495
     9  H    0.221414
    10  H    0.010100
    11  H    0.250034
    12  H    0.040274
 Sum of Mulliken charges =  -0.00000
 Mulliken charges with hydrogens summed into heavy atoms:
               1
     1  C    0.162830
     2  C    0.357116
     3  C   -0.230056
     4  O   -0.068040
     5  O   -0.082156
     6  O   -0.139694
 APT charges:
               1
     1  C    0.681463
     2  C   -0.225535
     3  C    0.198952
     4  O   -0.474086
     5  O   -0.311256
     6  O   -0.296528
     7  H    0.298416
     8  H   -0.034334
     9  H    0.008587
    10  H    0.008789
    11  H    0.091375
    12  H    0.054156
 Sum of APT charges =  -0.00000
 APT charges with hydrogens summed into heavy atoms:
               1
     1  C    0.655716
     2  C   -0.080004
     3  C    0.207741
     4  O   -0.474086
     5  O   -0.012839
     6  O   -0.296528
 Electronic spatial extent (au):  <R**2>=            690.8336
 Charge=             -0.0000 electrons
 Dipole moment (field-independent basis, Debye):
    X=              2.0853    Y=              2.0048    Z=             -0.0767  Tot=              2.8937
 Quadrupole moment (field-independent basis, Debye-Ang):
   XX=            -36.5629   YY=            -36.7029   ZZ=            -37.5871
   XY=             -4.4063   XZ=             -3.0025   YZ=              1.4316
 Traceless Quadrupole moment (field-independent basis, Debye-Ang):
   XX=              0.3881   YY=              0.2481   ZZ=             -0.6361
   XY=             -4.4063   XZ=             -3.0025   YZ=              1.4316
 Octapole moment (field-independent basis, Debye-Ang**2):
  XXX=             41.2343  YYY=              7.0922  ZZZ=             -8.3674  XYY=             14.4121
  XXY=            -11.8420  XXZ=             -1.6502  XZZ=              2.0813  YZZ=              2.4758
  YYZ=             -3.0245  XYZ=             -1.6948
 Hexadecapole moment (field-independent basis, Debye-Ang**3):
 XXXX=           -516.4699 YYYY=           -173.0826 ZZZZ=           -152.1955 XXXY=            -57.0131
 XXXZ=             -8.0406 YYYX=            -19.1634 YYYZ=             11.9797 ZZZX=              5.8625
 ZZZY=              6.2963 XXYY=           -113.3518 XXZZ=           -119.7728 YYZZ=            -54.4649
 XXYZ=              8.4150 YYXZ=              3.7163 ZZXY=             -4.0469
 N-N= 2.352253528032D+02 E-N=-1.274090854273D+03  KE= 3.403436903659D+02
  Exact polarizability:  85.758  12.594  65.926   1.291   1.298  59.463
 Approx polarizability: 173.448  56.934 124.383  36.766  22.019 100.559
 Calling FoFJK, ICntrl=    100127 FMM=F ISym2X=0 I1Cent= 0 IOpClX= 0 NMat=1 NMatS=1 NMatT=0.
 ***** Axes restored to original set *****
 -------------------------------------------------------------------
 Center     Atomic                   Forces (Hartrees/Bohr)
 Number     Number              X              Y              Z
 -------------------------------------------------------------------
      1        6           0.024226417    0.003192076    0.015694531
      2        6          -0.042856869   -0.012734204   -0.049040379
      3        6          -0.013643656    0.029582817    0.089283397
      4        8          -0.016922635    0.012676996   -0.023752505
      5        8           0.014920967   -0.004718716    0.020339884
      6        8           0.031422636   -0.027339239   -0.044692990
      7        1          -0.001871447   -0.000849745   -0.006789728
      8        1          -0.002740198    0.004263392   -0.002834533
      9        1           0.001032000   -0.002498224   -0.000539943
     10        1           0.019535843    0.070437954   -0.020529898
     11        1           0.014699773   -0.005896176   -0.000515715
     12        1          -0.027802830   -0.066116931    0.023377879
 -------------------------------------------------------------------
 Cartesian Forces:  Max     0.089283397 RMS     0.029571283
 FormGI is forming the generalized inverse of G from B-inverse, IUseBI=4.

 GradGradGradGradGradGradGradGradGradGradGradGradGradGradGradGradGradGrad
 Berny optimization.
 Internal  Forces:  Max     0.075621898 RMS     0.016402900
 Search for a saddle point.
 Step number   1 out of a maximum of  100
 All quantities printed in internal units (Hartrees-Bohrs-Radians)
 Swapping is turned off.
 Second derivative matrix not updated -- analytic derivatives used.
 ITU=  0
     Eigenvalues ---   -0.07427  -0.01862  -0.00517  -0.00335  -0.00061
     Eigenvalues ---    0.00136   0.00569   0.00771   0.01331   0.01663
     Eigenvalues ---    0.02428   0.04352   0.05514   0.06151   0.06384
     Eigenvalues ---    0.09341   0.09430   0.11984   0.18690   0.19886
     Eigenvalues ---    0.23584   0.24280   0.26734   0.31793   0.32213
     Eigenvalues ---    0.34834   0.37024   0.39062   0.50152   1.03797
 Eigenvectors required to have negative eigenvalues:
                          A11       A12       R7        D17       D15
   1                    0.52833   0.42526  -0.40413  -0.27155   0.23138
                          A16       A9        R12       D13       R5
   1                   -0.19342  -0.16638   0.16294   0.14581   0.13592
 RFO step:  Lambda0=1.904022611D-02 Lambda=-6.34792362D-02.
 Linear search not attempted -- option 19 set.
 Maximum step size (   0.300) exceeded in Quadratic search.
    -- Step size scaled by   0.354
 Iteration  1 RMS(Cart)=  0.08207796 RMS(Int)=  0.00801441
 Iteration  2 RMS(Cart)=  0.00755810 RMS(Int)=  0.00101968
 Iteration  3 RMS(Cart)=  0.00003845 RMS(Int)=  0.00101918
 Iteration  4 RMS(Cart)=  0.00000004 RMS(Int)=  0.00101918
 Variable       Old X    -DE/DX   Delta X   Delta X   Delta X     New X
                                 (Linear)    (Quad)   (Total)
    R1        2.78659   0.01140   0.00000   0.00113   0.00113   2.78773
    R2        2.69500   0.00622   0.00000   0.01272   0.01272   2.70772
    R3        2.08659  -0.00218   0.00000  -0.00246  -0.00246   2.08412
    R4        2.06322   0.00067   0.00000   0.00263   0.00263   2.06584
    R5        2.86599   0.03387   0.00000   0.06627   0.06673   2.93273
    R6        2.06864  -0.01025   0.00000  -0.00328  -0.00266   2.06598
    R7        3.86414   0.00988   0.00000   0.02623   0.02451   3.88866
    R8        2.20104   0.05107   0.00000  -0.00362  -0.00362   2.19742
    R9        4.12150   0.00568   0.00000   0.01688   0.01799   4.13949
   R10        2.70125   0.01330   0.00000   0.01534   0.01534   2.71658
   R11        1.83767   0.00060   0.00000   0.00079   0.00079   1.83846
   R12        1.87311  -0.07562   0.00000  -0.20283  -0.20283   1.67028
   R13        3.83790   0.00440   0.00000  -0.01561  -0.01576   3.82214
    A1        1.88746   0.01078   0.00000   0.00941   0.00941   1.89687
    A2        1.95317   0.00381   0.00000   0.01504   0.01507   1.96824
    A3        1.97038  -0.00540   0.00000  -0.00471  -0.00470   1.96567
    A4        1.95806  -0.00843   0.00000  -0.01932  -0.01937   1.93870
    A5        1.75744  -0.00078   0.00000   0.00233   0.00233   1.75977
    A6        1.92865  -0.00056   0.00000  -0.00473  -0.00476   1.92390
    A7        2.33534  -0.01228   0.00000  -0.00938  -0.00972   2.32562
    A8        2.00271   0.00694   0.00000   0.02383   0.02270   2.02541
    A9        2.30135   0.01578   0.00000   0.07058   0.06780   2.36915
   A10        1.90335   0.00357   0.00000  -0.03470  -0.03576   1.86759
   A11        1.78436  -0.01971   0.00000   0.09164   0.08685   1.87120
   A12        2.52018  -0.01723   0.00000   0.14459   0.14368   2.66386
   A13        1.94982  -0.02735   0.00000  -0.02876  -0.02876   1.92107
   A14        1.78889  -0.01288   0.00000  -0.01238  -0.01238   1.77651
   A15        2.02738  -0.00069   0.00000  -0.00318  -0.00283   2.02455
   A16        1.69197   0.00484   0.00000  -0.05893  -0.05951   1.63246
   A17        1.06412   0.00638   0.00000   0.00151   0.00090   1.06501
   A18        1.62689  -0.00087   0.00000   0.01903   0.01974   1.64663
    D1       -1.58499   0.00164   0.00000  -0.03713  -0.03735  -1.62235
    D2        1.90421   0.00727   0.00000   0.04990   0.05054   1.95475
    D3        0.33487  -0.00518   0.00000   0.02255   0.02207   0.35694
    D4        0.58036   0.00112   0.00000  -0.04492  -0.04511   0.53525
    D5       -2.21363   0.00675   0.00000   0.04211   0.04279  -2.17084
    D6        2.50021  -0.00571   0.00000   0.01475   0.01432   2.51453
    D7        2.76945  -0.00086   0.00000  -0.04292  -0.04313   2.72632
    D8       -0.02454   0.00477   0.00000   0.04411   0.04477   0.02023
    D9       -1.59388  -0.00769   0.00000   0.01675   0.01630  -1.57758
   D10        1.14945   0.00444   0.00000  -0.00671  -0.00677   1.14268
   D11       -1.01296  -0.00243   0.00000  -0.01959  -0.01951  -1.03246
   D12       -3.06399   0.00224   0.00000  -0.00718  -0.00720  -3.07119
   D13       -1.42722   0.00147   0.00000   0.20516   0.20605  -1.22117
   D14        1.38093  -0.00323   0.00000   0.12992   0.13196   1.51289
   D15        2.70759  -0.00065   0.00000   0.07747   0.07754   2.78513
   D16        0.83096   0.01359   0.00000   0.01456   0.01366   0.84462
   D17       -0.73685   0.01649   0.00000  -0.04024  -0.04193  -0.77878
   D18        2.71883  -0.00166   0.00000  -0.17496  -0.17496   2.54387
         Item               Value     Threshold  Converged?
 Maximum Force            0.075622     0.000450     NO 
 RMS     Force            0.016403     0.000300     NO 
 Maximum Displacement     0.328669     0.001800     NO 
 RMS     Displacement     0.081908     0.001200     NO 
 Predicted change in Energy=-1.584252D-02
 GradGradGradGradGradGradGradGradGradGradGradGradGradGradGradGradGradGrad

                          Input orientation:                          
 ---------------------------------------------------------------------
 Center     Atomic      Atomic             Coordinates (Angstroms)
 Number     Number       Type             X           Y           Z
 ---------------------------------------------------------------------
      1          6           0        1.414548    1.543042   -2.652433
      2          6           0        0.974993    0.596513   -1.609796
      3          6           0        1.557719    0.187775   -0.230718
      4          8           0        0.780978    2.807259   -2.421249
      5          8           0        1.245586    3.372964   -1.184044
      6          8           0        2.527124   -0.421500   -0.433698
      7          1           0        1.243312    4.324362   -1.387306
      8          1           0        2.511251    1.651060   -2.696000
      9          1           0        1.019738    1.293161   -3.640747
     10          1           0       -0.784592   -0.331309    0.019090
     11          1           0        0.341734   -0.228594   -1.946572
     12          1           0       -0.612935    0.472114   -0.306914
 ---------------------------------------------------------------------
                    Distance matrix (angstroms):
                    1          2          3          4          5
     1  C    0.000000
     2  C    1.475201   0.000000
     3  C    2.778841   1.551933   0.000000
     4  O    1.432865   2.362942   3.501921   0.000000
     5  O    2.352303   2.821908   3.339415   1.437553   0.000000
     6  O    3.165444   2.197423   1.162825   4.174238   4.074717
     7  H    3.060329   3.744110   4.306728   1.893250   0.972871
     8  H    1.102871   2.156849   3.021265   2.099078   2.617799
     9  H    1.093197   2.147576   3.624859   1.958743   3.226760
    10  H    3.935282   2.571043   2.412109   4.272806   4.392128
    11  H    2.188119   1.093269   2.143861   3.103975   3.790728
    12  H    3.280097   2.057788   2.190523   3.444751   3.555052
                    6          7          8          9         10
     6  O    0.000000
     7  H    5.008068   0.000000
     8  H    3.068186   3.235258   0.000000
     9  H    3.936678   3.783671   1.801459   0.000000
    10  H    3.343742   5.269309   4.707874   4.391915   0.000000
    11  H    2.664945   4.674937   2.966741   2.376059   2.267816
    12  H    3.267199   4.410524   4.105872   3.801866   0.883873
                   11         12
    11  H    0.000000
    12  H    2.022588   0.000000
 Stoichiometry    C3H6O3
 Framework group  C1[X(C3H6O3)]
 Deg. of freedom    30
 Full point group                 C1      NOp   1
 Largest Abelian subgroup         C1      NOp   1
 Largest concise Abelian subgroup C1      NOp   1
                         Standard orientation:                         
 ---------------------------------------------------------------------
 Center     Atomic      Atomic             Coordinates (Angstroms)
 Number     Number       Type             X           Y           Z
 ---------------------------------------------------------------------
      1          6           0        0.606941    0.987034   -0.386626
      2          6           0       -0.571652    0.564349    0.393421
      3          6           0       -1.621824   -0.562947    0.206771
      4          8           0        1.764993    0.324716    0.136205
      5          8           0        1.662737   -1.092666   -0.080892
      6          8           0       -2.279170   -0.272896   -0.707521
      7          1           0        2.591555   -1.337609   -0.235100
      8          1           0        0.494693    0.796037   -1.467017
      9          1           0        0.872882    2.033126   -0.213288
     10          1           0       -1.702608   -0.164370    2.584350
     11          1           0       -1.035243    1.333077    1.017422
     12          1           0       -0.890559   -0.264093    2.249889
 ---------------------------------------------------------------------
 Rotational constants (GHZ):           6.5755411           1.9651092           1.8064565
 Standard basis: 6-31+G(d) (6D, 7F)
 There are   126 symmetry adapted cartesian basis functions of A   symmetry.
 There are   126 symmetry adapted basis functions of A   symmetry.
   126 basis functions,   216 primitive gaussians,   126 cartesian basis functions
    24 alpha electrons       24 beta electrons
       nuclear repulsion energy       233.9565774016 Hartrees.
 NAtoms=   12 NActive=   12 NUniq=   12 SFac= 1.00D+00 NAtFMM=   60 NAOKFM=F Big=F
 Integral buffers will be    131072 words long.
 Raffenetti 2 integral format.
 Two-electron integral symmetry is turned on.
 One-electron integrals computed using PRISM.
 NBasis=   126 RedAO= T EigKep=  8.21D-05  NBF=   126
 NBsUse=   126 1.00D-06 EigRej= -1.00D+00 NBFU=   126
 Initial guess from the checkpoint file:  "/scratch/bell/zhao922/YARP/paper-example/KHP-network/pp_0/TS-folder/Gau-95648.chk"
 B after Tr=     0.000000   -0.000000   -0.000000
         Rot=    0.995455    0.094776    0.002896    0.008859 Ang=  10.93 deg.
 ExpMin= 4.38D-02 ExpMax= 5.48D+03 ExpMxC= 8.25D+02 IAcc=3 IRadAn=         5 AccDes= 0.00D+00
 Harris functional with IExCor=  402 and IRadAn=       5 diagonalized for initial guess.
 HarFok:  IExCor=  402 AccDes= 0.00D+00 IRadAn=         5 IDoV= 1 UseB2=F ITyADJ=14
 ICtDFT=  3500011 ScaDFX=  1.000000  1.000000  1.000000  1.000000
 FoFCou: FMM=F IPFlag=           0 FMFlag=      100000 FMFlg1=           0
         NFxFlg=           0 DoJE=T BraDBF=F KetDBF=T FulRan=T
         wScrn=  0.000000 ICntrl=       500 IOpCl=  0 I1Cent=   200000004 NGrid=           0
         NMat0=    1 NMatS0=      1 NMatT0=    0 NMatD0=    1 NMtDS0=    0 NMtDT0=    0
 Petite list used in FoFCou.
 Keep R1 ints in memory in canonical form, NReq=47237537.
 Requested convergence on RMS density matrix=1.00D-08 within 128 cycles.
 Requested convergence on MAX density matrix=1.00D-06.
 Requested convergence on             energy=1.00D-06.
 No special actions if energy rises.
 SCF Done:  E(RB3LYP) =  -343.261880870     A.U. after   16 cycles
            NFock= 16  Conv=0.43D-08     -V/T= 2.0087
 DoSCS=F DFT=T ScalE2(SS,OS)=  1.000000  1.000000
 Range of M.O.s used for correlation:     1   126
 NBasis=   126 NAE=    24 NBE=    24 NFC=     0 NFV=     0
 NROrb=    126 NOA=    24 NOB=    24 NVA=   102 NVB=   102

 **** Warning!!: The largest alpha MO coefficient is  0.30314831D+02


 **** Warning!!: The smallest alpha delta epsilon is  0.51028100D-01

 Symmetrizing basis deriv contribution to polar:
 IMax=3 JMax=2 DiffMx= 0.00D+00
 G2DrvN: will do    13 centers at a time, making    1 passes.
 Calling FoFCou, ICntrl=  3107 FMM=F I1Cent=   0 AccDes= 0.00D+00.
 End of G2Drv F.D. properties file   721 does not exist.
 End of G2Drv F.D. properties file   722 does not exist.
 End of G2Drv F.D. properties file   788 does not exist.
          IDoAtm=111111111111
          Differentiating once with respect to electric field.
                with respect to dipole field.
          Differentiating once with respect to nuclear coordinates.
 Keep R1 ints in memory in canonical form, NReq=47193552.
          There are    39 degrees of freedom in the 1st order CPHF.  IDoFFX=6 NUNeed=     3.
     36 vectors produced by pass  0 Test12= 6.28D-15 2.56D-09 XBig12= 5.07D+02 2.08D+01.
 AX will form    36 AO Fock derivatives at one time.
     36 vectors produced by pass  1 Test12= 6.28D-15 2.56D-09 XBig12= 1.77D+02 3.38D+00.
     36 vectors produced by pass  2 Test12= 6.28D-15 2.56D-09 XBig12= 2.17D+00 3.45D-01.
     36 vectors produced by pass  3 Test12= 6.28D-15 2.56D-09 XBig12= 9.81D-03 1.38D-02.
     36 vectors produced by pass  4 Test12= 6.28D-15 2.56D-09 XBig12= 1.47D-05 5.20D-04.
     27 vectors produced by pass  5 Test12= 6.28D-15 2.56D-09 XBig12= 1.20D-08 1.30D-05.
      6 vectors produced by pass  6 Test12= 6.28D-15 2.56D-09 XBig12= 9.24D-12 3.92D-07.
      3 vectors produced by pass  7 Test12= 6.28D-15 2.56D-09 XBig12= 7.86D-15 9.28D-09.
 InvSVY:  IOpt=1 It=  1 EMax= 8.88D-15
 Solved reduced A of dimension   216 with    39 vectors.
 Isotropic polarizability for W=    0.000000       70.65 Bohr**3.
 End of Minotr F.D. properties file   721 does not exist.
 End of Minotr F.D. properties file   722 does not exist.
 End of Minotr F.D. properties file   788 does not exist.
 Calling FoFJK, ICntrl=    100127 FMM=F ISym2X=0 I1Cent= 0 IOpClX= 0 NMat=1 NMatS=1 NMatT=0.
 ***** Axes restored to original set *****
 -------------------------------------------------------------------
 Center     Atomic                   Forces (Hartrees/Bohr)
 Number     Number              X              Y              Z
 -------------------------------------------------------------------
      1        6           0.022693840   -0.000299172    0.011416300
      2        6          -0.038105511   -0.001556314   -0.035245781
      3        6          -0.016847811    0.005248966    0.063850684
      4        8          -0.010901453    0.009023265   -0.016364154
      5        8           0.009319077   -0.003518096    0.015048484
      6        8           0.031185219   -0.009114202   -0.032612532
      7        1          -0.000662141   -0.000574902   -0.005149652
      8        1          -0.002023920    0.003249646   -0.002525844
      9        1           0.000852693   -0.001915090   -0.000515807
     10        1           0.009303613    0.052745573   -0.014140304
     11        1           0.012059398   -0.004958386   -0.000671838
     12        1          -0.016873005   -0.048331288    0.016910443
 -------------------------------------------------------------------
 Cartesian Forces:  Max     0.063850684 RMS     0.021629439
 FormGI is forming the generalized inverse of G from B-inverse, IUseBI=4.

 GradGradGradGradGradGradGradGradGradGradGradGradGradGradGradGradGradGrad
 Berny optimization.
 Internal  Forces:  Max     0.054967145 RMS     0.011883216
 Search for a saddle point.
 Step number   2 out of a maximum of  100
 All quantities printed in internal units (Hartrees-Bohrs-Radians)
 Swapping is turned off.
 Second derivative matrix not updated -- analytic derivatives used.
 ITU=  0  0
     Eigenvalues ---   -0.07543  -0.01911  -0.00285  -0.00240  -0.00055
     Eigenvalues ---    0.00085   0.00411   0.00874   0.01339   0.01672
     Eigenvalues ---    0.02847   0.04298   0.05260   0.05946   0.08936
     Eigenvalues ---    0.09350   0.11723   0.14158   0.18764   0.19796
     Eigenvalues ---    0.19872   0.23960   0.26329   0.31974   0.32570
     Eigenvalues ---    0.34470   0.36807   0.38757   0.49925   1.03994
 Eigenvectors required to have negative eigenvalues:
                          A12       A11       D13       D17       R7
   1                    0.52278   0.46475   0.33264  -0.30096  -0.28959
                          D14       D15       D16       A16       A9
   1                    0.23719   0.21814  -0.15636  -0.15217  -0.11937
 RFO step:  Lambda0=6.194805684D-03 Lambda=-3.98618499D-02.
 Linear search not attempted -- option 19 set.
 Maximum step size (   0.300) exceeded in Quadratic search.
    -- Step size scaled by   0.438
 Iteration  1 RMS(Cart)=  0.10859681 RMS(Int)=  0.01273574
 Iteration  2 RMS(Cart)=  0.01619304 RMS(Int)=  0.00073328
 Iteration  3 RMS(Cart)=  0.00024024 RMS(Int)=  0.00069768
 Iteration  4 RMS(Cart)=  0.00000010 RMS(Int)=  0.00069768
 Variable       Old X    -DE/DX   Delta X   Delta X   Delta X     New X
                                 (Linear)    (Quad)   (Total)
    R1        2.78773   0.00822   0.00000   0.00890   0.00890   2.79663
    R2        2.70772   0.00430   0.00000   0.00953   0.00953   2.71725
    R3        2.08412  -0.00159   0.00000  -0.00520  -0.00520   2.07892
    R4        2.06584   0.00060   0.00000   0.00268   0.00268   2.06853
    R5        2.93273   0.02287   0.00000   0.02468   0.02421   2.95694
    R6        2.06598  -0.00720   0.00000  -0.00617  -0.00559   2.06039
    R7        3.88866   0.00939   0.00000   0.15530   0.15452   4.04318
    R8        2.19742   0.03647   0.00000   0.01329   0.01329   2.21071
    R9        4.13949   0.00472   0.00000   0.06824   0.06878   4.20827
   R10        2.71658   0.00971   0.00000   0.01420   0.01420   2.73078
   R11        1.83846   0.00052   0.00000   0.00139   0.00139   1.83985
   R12        1.67028  -0.05497   0.00000  -0.15415  -0.15415   1.51613
   R13        3.82214   0.00370   0.00000  -0.01292  -0.01264   3.80950
    A1        1.89687   0.00708   0.00000  -0.00520  -0.00518   1.89169
    A2        1.96824   0.00351   0.00000   0.01663   0.01662   1.98486
    A3        1.96567  -0.00401   0.00000  -0.00198  -0.00199   1.96368
    A4        1.93870  -0.00635   0.00000  -0.01084  -0.01081   1.92789
    A5        1.75977  -0.00000   0.00000   0.00434   0.00434   1.76411
    A6        1.92390  -0.00073   0.00000  -0.00501  -0.00504   1.91886
    A7        2.32562  -0.01102   0.00000  -0.05527  -0.05579   2.26984
    A8        2.02541   0.00522   0.00000   0.02933   0.02953   2.05495
    A9        2.36915   0.01488   0.00000   0.13002   0.13192   2.50107
   A10        1.86759   0.00324   0.00000   0.00834   0.00747   1.87506
   A11        1.87120  -0.01109   0.00000  -0.00412  -0.00368   1.86752
   A12        2.66386  -0.00864   0.00000   0.10847   0.10893   2.77279
   A13        1.92107  -0.01903   0.00000  -0.02151  -0.02151   1.89956
   A14        1.77651  -0.00935   0.00000  -0.01188  -0.01188   1.76464
   A15        2.02455  -0.00024   0.00000  -0.00298  -0.00406   2.02049
   A16        1.63246   0.00363   0.00000   0.00641   0.00497   1.63744
   A17        1.06501   0.00442   0.00000  -0.00109  -0.00173   1.06329
   A18        1.64663  -0.00003   0.00000   0.02544   0.02695   1.67359
    D1       -1.62235   0.00047   0.00000  -0.03929  -0.03883  -1.66118
    D2        1.95475   0.00715   0.00000   0.01137   0.01145   1.96620
    D3        0.35694  -0.00396   0.00000   0.02335   0.02285   0.37978
    D4        0.53525  -0.00011   0.00000  -0.04558  -0.04515   0.49009
    D5       -2.17084   0.00657   0.00000   0.00507   0.00513  -2.16571
    D6        2.51453  -0.00454   0.00000   0.01706   0.01652   2.53105
    D7        2.72632  -0.00151   0.00000  -0.04049  -0.04004   2.68628
    D8        0.02023   0.00517   0.00000   0.01017   0.01024   0.03047
    D9       -1.57758  -0.00594   0.00000   0.02215   0.02164  -1.55594
   D10        1.14268   0.00354   0.00000  -0.00288  -0.00287   1.13981
   D11       -1.03246  -0.00159   0.00000  -0.01297  -0.01298  -1.04545
   D12       -3.07119   0.00185   0.00000  -0.00508  -0.00509  -3.07628
   D13       -1.22117   0.00599   0.00000   0.25537   0.25431  -0.96686
   D14        1.51289   0.00046   0.00000   0.21346   0.21387   1.72676
   D15        2.78513   0.00132   0.00000   0.02884   0.02652   2.81164
   D16        0.84462   0.01020   0.00000   0.03503   0.03641   0.88103
   D17       -0.77878   0.01210   0.00000   0.00951   0.00837  -0.77041
   D18        2.54387  -0.00195   0.00000  -0.20475  -0.20475   2.33912
         Item               Value     Threshold  Converged?
 Maximum Force            0.054967     0.000450     NO 
 RMS     Force            0.011883     0.000300     NO 
 Maximum Displacement     0.462851     0.001800     NO 
 RMS     Displacement     0.120792     0.001200     NO 
 Predicted change in Energy=-1.600372D-02
 GradGradGradGradGradGradGradGradGradGradGradGradGradGradGradGradGradGrad

                          Input orientation:                          
 ---------------------------------------------------------------------
 Center     Atomic      Atomic             Coordinates (Angstroms)
 Number     Number       Type             X           Y           Z
 ---------------------------------------------------------------------
      1          6           0        1.405386    1.549615   -2.651811
      2          6           0        0.899079    0.620117   -1.617490
      3          6           0        1.513959    0.220065   -0.235352
      4          8           0        0.794214    2.834648   -2.445095
      5          8           0        1.245315    3.367754   -1.179975
      6          8           0        2.594632   -0.176570   -0.443676
      7          1           0        1.464412    4.282974   -1.429540
      8          1           0        2.501479    1.642734   -2.664874
      9          1           0        1.039806    1.301548   -3.653310
     10          1           0       -0.790300   -0.461635    0.022493
     11          1           0        0.263317   -0.203705   -1.942913
     12          1           0       -0.711844    0.289302   -0.248845
 ---------------------------------------------------------------------
                    Distance matrix (angstroms):
                    1          2          3          4          5
     1  C    0.000000
     2  C    1.479910   0.000000
     3  C    2.760211   1.564744   0.000000
     4  O    1.437906   2.366448   3.498148   0.000000
     5  O    2.344686   2.803713   3.297336   1.445068   0.000000
     6  O    3.044648   2.210758   1.169860   4.039135   3.863292
     7  H    2.994776   3.710991   4.235064   1.891604   0.973609
     8  H    1.100119   2.170356   2.983581   2.093733   2.599724
     9  H    1.094616   2.151445   3.616195   1.967357   3.229369
    10  H    4.002258   2.591087   2.416776   4.411934   4.500431
    11  H    2.209296   1.090310   2.158576   3.125001   3.781760
    12  H    3.441701   2.139557   2.226921   3.683818   3.764883
                    6          7          8          9         10
     6  O    0.000000
     7  H    4.704982   0.000000
     8  H    2.872675   3.093934   0.000000
     9  H    3.860579   3.743573   1.797193   0.000000
    10  H    3.428751   5.450086   4.741953   4.468740   0.000000
    11  H    2.771908   4.672951   2.989972   2.407111   2.244873
    12  H    3.344814   4.698888   4.241983   3.960216   0.802300
                   11         12
    11  H    0.000000
    12  H    2.015902   0.000000
 Stoichiometry    C3H6O3
 Framework group  C1[X(C3H6O3)]
 Deg. of freedom    30
 Full point group                 C1      NOp   1
 Largest Abelian subgroup         C1      NOp   1
 Largest concise Abelian subgroup C1      NOp   1
                         Standard orientation:                         
 ---------------------------------------------------------------------
 Center     Atomic      Atomic             Coordinates (Angstroms)
 Number     Number       Type             X           Y           Z
 ---------------------------------------------------------------------
      1          6           0        0.598649    0.861939   -0.604195
      2          6           0       -0.570923    0.697126    0.287473
      3          6           0       -1.640515   -0.443536    0.344829
      4          8           0        1.757741    0.338460    0.066661
      5          8           0        1.591896   -1.086383    0.241415
      6          8           0       -2.106935   -0.529176   -0.724606
      7          1           0        2.463789   -1.412990   -0.043269
      8          1           0        0.475782    0.385309   -1.588060
      9          1           0        0.884713    1.910922   -0.730633
     10          1           0       -1.909937    0.608277    2.503974
     11          1           0       -1.033011    1.598774    0.690312
     12          1           0       -1.146227    0.433322    2.331277
 ---------------------------------------------------------------------
 Rotational constants (GHZ):           6.1669220           2.0539250           1.8961826
 Standard basis: 6-31+G(d) (6D, 7F)
 There are   126 symmetry adapted cartesian basis functions of A   symmetry.
 There are   126 symmetry adapted basis functions of A   symmetry.
   126 basis functions,   216 primitive gaussians,   126 cartesian basis functions
    24 alpha electrons       24 beta electrons
       nuclear repulsion energy       234.4730414674 Hartrees.
 NAtoms=   12 NActive=   12 NUniq=   12 SFac= 1.00D+00 NAtFMM=   60 NAOKFM=F Big=F
 Integral buffers will be    131072 words long.
 Raffenetti 2 integral format.
 Two-electron integral symmetry is turned on.
 One-electron integrals computed using PRISM.
 NBasis=   126 RedAO= T EigKep=  8.65D-05  NBF=   126
 NBsUse=   126 1.00D-06 EigRej= -1.00D+00 NBFU=   126
 Initial guess from the checkpoint file:  "/scratch/bell/zhao922/YARP/paper-example/KHP-network/pp_0/TS-folder/Gau-95648.chk"
 B after Tr=    -0.000000    0.000000    0.000000
         Rot=    0.991031    0.132748    0.015321    0.001329 Ang=  15.36 deg.
 ExpMin= 4.38D-02 ExpMax= 5.48D+03 ExpMxC= 8.25D+02 IAcc=3 IRadAn=         5 AccDes= 0.00D+00
 Harris functional with IExCor=  402 and IRadAn=       5 diagonalized for initial guess.
 HarFok:  IExCor=  402 AccDes= 0.00D+00 IRadAn=         5 IDoV= 1 UseB2=F ITyADJ=14
 ICtDFT=  3500011 ScaDFX=  1.000000  1.000000  1.000000  1.000000
 FoFCou: FMM=F IPFlag=           0 FMFlag=      100000 FMFlg1=           0
         NFxFlg=           0 DoJE=T BraDBF=F KetDBF=T FulRan=T
         wScrn=  0.000000 ICntrl=       500 IOpCl=  0 I1Cent=   200000004 NGrid=           0
         NMat0=    1 NMatS0=      1 NMatT0=    0 NMatD0=    1 NMtDS0=    0 NMtDT0=    0
 Petite list used in FoFCou.
 Keep R1 ints in memory in canonical form, NReq=47237537.
 Requested convergence on RMS density matrix=1.00D-08 within 128 cycles.
 Requested convergence on MAX density matrix=1.00D-06.
 Requested convergence on             energy=1.00D-06.
 No special actions if energy rises.
 SCF Done:  E(RB3LYP) =  -343.277202447     A.U. after   15 cycles
            NFock= 15  Conv=0.53D-08     -V/T= 2.0087
 DoSCS=F DFT=T ScalE2(SS,OS)=  1.000000  1.000000
 Range of M.O.s used for correlation:     1   126
 NBasis=   126 NAE=    24 NBE=    24 NFC=     0 NFV=     0
 NROrb=    126 NOA=    24 NOB=    24 NVA=   102 NVB=   102

 **** Warning!!: The largest alpha MO coefficient is  0.30671097D+02


 **** Warning!!: The smallest alpha delta epsilon is  0.53074988D-01

 Symmetrizing basis deriv contribution to polar:
 IMax=3 JMax=2 DiffMx= 0.00D+00
 G2DrvN: will do    13 centers at a time, making    1 passes.
 Calling FoFCou, ICntrl=  3107 FMM=F I1Cent=   0 AccDes= 0.00D+00.
 End of G2Drv F.D. properties file   721 does not exist.
 End of G2Drv F.D. properties file   722 does not exist.
 End of G2Drv F.D. properties file   788 does not exist.
          IDoAtm=111111111111
          Differentiating once with respect to electric field.
                with respect to dipole field.
          Differentiating once with respect to nuclear coordinates.
 Keep R1 ints in memory in canonical form, NReq=47193552.
          There are    39 degrees of freedom in the 1st order CPHF.  IDoFFX=6 NUNeed=     3.
     36 vectors produced by pass  0 Test12= 6.28D-15 2.56D-09 XBig12= 4.56D+02 1.95D+01.
 AX will form    36 AO Fock derivatives at one time.
     36 vectors produced by pass  1 Test12= 6.28D-15 2.56D-09 XBig12= 1.60D+02 3.65D+00.
     36 vectors produced by pass  2 Test12= 6.28D-15 2.56D-09 XBig12= 1.79D+00 3.21D-01.
     36 vectors produced by pass  3 Test12= 6.28D-15 2.56D-09 XBig12= 6.39D-03 1.21D-02.
     36 vectors produced by pass  4 Test12= 6.28D-15 2.56D-09 XBig12= 9.88D-06 3.94D-04.
     27 vectors produced by pass  5 Test12= 6.28D-15 2.56D-09 XBig12= 9.02D-09 1.21D-05.
      4 vectors produced by pass  6 Test12= 6.28D-15 2.56D-09 XBig12= 7.57D-12 3.22D-07.
      3 vectors produced by pass  7 Test12= 6.28D-15 2.56D-09 XBig12= 7.21D-15 9.06D-09.
 InvSVY:  IOpt=1 It=  1 EMax= 1.42D-14
 Solved reduced A of dimension   214 with    39 vectors.
 Isotropic polarizability for W=    0.000000       68.50 Bohr**3.
 End of Minotr F.D. properties file   721 does not exist.
 End of Minotr F.D. properties file   722 does not exist.
 End of Minotr F.D. properties file   788 does not exist.
 Calling FoFJK, ICntrl=    100127 FMM=F ISym2X=0 I1Cent= 0 IOpClX= 0 NMat=1 NMatS=1 NMatT=0.
 ***** Axes restored to original set *****
 -------------------------------------------------------------------
 Center     Atomic                   Forces (Hartrees/Bohr)
 Number     Number              X              Y              Z
 -------------------------------------------------------------------
      1        6           0.018610751   -0.003076558    0.006879321
      2        6          -0.026482362    0.005904323   -0.022224571
      3        6          -0.009059267   -0.013619368    0.038280659
      4        8          -0.006300033    0.005437748   -0.009908684
      5        8           0.004886408   -0.001791456    0.009464917
      6        8           0.021803895    0.007073611   -0.020822966
      7        1           0.000096139   -0.000498012   -0.003298100
      8        1          -0.001464597    0.002245144   -0.001786324
      9        1           0.000679582   -0.001275454   -0.000344154
     10        1           0.000360782    0.028873297   -0.004710691
     11        1           0.007326294   -0.003092786   -0.000342077
     12        1          -0.010457592   -0.026180490    0.008812670
 -------------------------------------------------------------------
 Cartesian Forces:  Max     0.038280659 RMS     0.013359230
 FormGI is forming the generalized inverse of G from B-inverse, IUseBI=4.

 GradGradGradGradGradGradGradGradGradGradGradGradGradGradGradGradGradGrad
 Berny optimization.
 Internal  Forces:  Max     0.028653020 RMS     0.007120286
 Search for a saddle point.
 Step number   3 out of a maximum of  100
 All quantities printed in internal units (Hartrees-Bohrs-Radians)
 Swapping is turned off.
 Second derivative matrix not updated -- analytic derivatives used.
 ITU=  0  0  0
     Eigenvalues ---   -0.08311  -0.00849  -0.00166  -0.00016   0.00056
     Eigenvalues ---    0.00145   0.00341   0.01039   0.01237   0.01508
     Eigenvalues ---    0.03385   0.04287   0.05185   0.05717   0.08555
     Eigenvalues ---    0.09324   0.11703   0.17689   0.18622   0.20276
     Eigenvalues ---    0.23932   0.25060   0.26490   0.32532   0.33499
     Eigenvalues ---    0.34079   0.36313   0.38802   0.49549   0.99128
 Eigenvectors required to have negative eigenvalues:
                          A12       A11       D13       D14       D17
   1                   -0.54862  -0.41893  -0.40208  -0.33235   0.28059
                          R7        D15       D16       A9        A16
   1                    0.23651  -0.18009   0.16930   0.10392   0.08934
 RFO step:  Lambda0=4.900147153D-04 Lambda=-2.24370754D-02.
 Linear search not attempted -- option 19 set.
 Maximum step size (   0.300) exceeded in Quadratic search.
    -- Step size scaled by   0.384
 Iteration  1 RMS(Cart)=  0.09857418 RMS(Int)=  0.00621897
 Iteration  2 RMS(Cart)=  0.00597105 RMS(Int)=  0.00179092
 Iteration  3 RMS(Cart)=  0.00002521 RMS(Int)=  0.00179078
 Iteration  4 RMS(Cart)=  0.00000004 RMS(Int)=  0.00179078
 Variable       Old X    -DE/DX   Delta X   Delta X   Delta X     New X
                                 (Linear)    (Quad)   (Total)
    R1        2.79663   0.00560   0.00000   0.01408   0.01408   2.81070
    R2        2.71725   0.00284   0.00000   0.00135   0.00135   2.71860
    R3        2.07892  -0.00125   0.00000  -0.00622  -0.00622   2.07270
    R4        2.06853   0.00038   0.00000   0.00143   0.00143   2.06995
    R5        2.95694   0.01266   0.00000  -0.00060  -0.00078   2.95616
    R6        2.06039  -0.00402   0.00000  -0.00310  -0.00231   2.05807
    R7        4.04318   0.00914   0.00000   0.19869   0.19599   4.23917
    R8        2.21071   0.02145   0.00000   0.01473   0.01473   2.22544
    R9        4.20827   0.00563   0.00000   0.13685   0.13563   4.34390
   R10        2.73078   0.00611   0.00000   0.01145   0.01145   2.74223
   R11        1.83985   0.00040   0.00000   0.00065   0.00065   1.84051
   R12        1.51613  -0.02865   0.00000  -0.05588  -0.05588   1.46025
   R13        3.80950   0.00300   0.00000  -0.02356  -0.01942   3.79008
    A1        1.89169   0.00442   0.00000  -0.01154  -0.01153   1.88016
    A2        1.98486   0.00272   0.00000   0.01029   0.01027   1.99513
    A3        1.96368  -0.00279   0.00000   0.00232   0.00229   1.96597
    A4        1.92789  -0.00424   0.00000  -0.00090  -0.00087   1.92702
    A5        1.76411   0.00011   0.00000   0.00004   0.00004   1.76415
    A6        1.91886  -0.00059   0.00000  -0.00179  -0.00183   1.91703
    A7        2.26984  -0.00845   0.00000  -0.04604  -0.05114   2.21870
    A8        2.05495   0.00345   0.00000   0.01205   0.01840   2.07334
    A9        2.50107   0.01226   0.00000   0.12873   0.13044   2.63151
   A10        1.87506   0.00249   0.00000   0.02063   0.01923   1.89430
   A11        1.86752  -0.00528   0.00000  -0.05233  -0.05061   1.81691
   A12        2.77279  -0.00251   0.00000   0.01559   0.01665   2.78944
   A13        1.89956  -0.01132   0.00000  -0.01293  -0.01293   1.88662
   A14        1.76464  -0.00585   0.00000  -0.01169  -0.01169   1.75295
   A15        2.02049   0.00038   0.00000   0.00865   0.00755   2.02804
   A16        1.63744   0.00363   0.00000   0.04794   0.04489   1.68233
   A17        1.06329   0.00209   0.00000  -0.01230  -0.01356   1.04973
   A18        1.67359   0.00086   0.00000   0.03548   0.03777   1.71135
    D1       -1.66118  -0.00058   0.00000  -0.07227  -0.07199  -1.73317
    D2        1.96620   0.00524   0.00000  -0.04303  -0.04407   1.92213
    D3        0.37978  -0.00242   0.00000   0.03869   0.03949   0.41927
    D4        0.49009  -0.00090   0.00000  -0.07496  -0.07471   0.41538
    D5       -2.16571   0.00492   0.00000  -0.04572  -0.04679  -2.21251
    D6        2.53105  -0.00274   0.00000   0.03600   0.03677   2.56782
    D7        2.68628  -0.00180   0.00000  -0.06693  -0.06665   2.61963
    D8        0.03047   0.00402   0.00000  -0.03769  -0.03873  -0.00826
    D9       -1.55594  -0.00364   0.00000   0.04403   0.04483  -1.51112
   D10        1.13981   0.00286   0.00000   0.02555   0.02555   1.16537
   D11       -1.04545  -0.00078   0.00000   0.02116   0.02115  -1.02430
   D12       -3.07628   0.00154   0.00000   0.02354   0.02356  -3.05273
   D13       -0.96686   0.00933   0.00000   0.18441   0.18185  -0.78502
   D14        1.72676   0.00454   0.00000   0.15772   0.15833   1.88509
   D15        2.81164   0.00087   0.00000  -0.05980  -0.06400   2.74764
   D16        0.88103   0.00638   0.00000   0.05162   0.05400   0.93504
   D17       -0.77041   0.00736   0.00000   0.03778   0.03623  -0.73418
   D18        2.33912  -0.00169   0.00000  -0.00990  -0.00990   2.32922
         Item               Value     Threshold  Converged?
 Maximum Force            0.028653     0.000450     NO 
 RMS     Force            0.007120     0.000300     NO 
 Maximum Displacement     0.312873     0.001800     NO 
 RMS     Displacement     0.101431     0.001200     NO 
 Predicted change in Energy=-9.188940D-03
 GradGradGradGradGradGradGradGradGradGradGradGradGradGradGradGradGradGrad

                          Input orientation:                          
 ---------------------------------------------------------------------
 Center     Atomic      Atomic             Coordinates (Angstroms)
 Number     Number       Type             X           Y           Z
 ---------------------------------------------------------------------
      1          6           0        1.425817    1.551676   -2.641879
      2          6           0        0.848700    0.656249   -1.603909
      3          6           0        1.501559    0.244529   -0.243251
      4          8           0        0.838165    2.853877   -2.472859
      5          8           0        1.296118    3.394084   -1.206279
      6          8           0        2.613910   -0.018523   -0.526701
      7          1           0        1.546690    4.294892   -1.478943
      8          1           0        2.520296    1.620330   -2.621207
      9          1           0        1.088296    1.298025   -3.652611
     10          1           0       -0.833210   -0.618246    0.041323
     11          1           0        0.165926   -0.133782   -1.913390
     12          1           0       -0.792810    0.123736   -0.170682
 ---------------------------------------------------------------------
                    Distance matrix (angstroms):
                    1          2          3          4          5
     1  C    0.000000
     2  C    1.487359   0.000000
     3  C    2.732726   1.564330   0.000000
     4  O    1.438621   2.363208   3.495703   0.000000
     5  O    2.339282   2.802505   3.299899   1.451127   0.000000
     6  O    2.889821   2.175238   1.177652   3.897625   3.720791
     7  H    2.981990   3.707091   4.234904   1.888492   0.973953
     8  H    1.096825   2.181417   2.930073   2.091222   2.578146
     9  H    1.095371   2.160200   3.592267   1.968516   3.228188
    10  H    4.124480   2.675807   2.505296   4.601113   4.710556
    11  H    2.226833   1.089086   2.171727   3.113040   3.771363
    12  H    3.614987   2.243271   2.298692   3.926037   4.016374
                    6          7          8          9         10
     6  O    0.000000
     7  H    4.544367   0.000000
     8  H    2.661119   3.066913   0.000000
     9  H    3.719154   3.730438   1.793962   0.000000
    10  H    3.544708   5.666926   4.831799   4.583604   0.000000
    11  H    2.815815   4.659228   3.020094   2.434282   2.248084
    12  H    3.428225   4.958159   4.384237   4.128117   0.772732
                   11         12
    11  H    0.000000
    12  H    2.005624   0.000000
 Stoichiometry    C3H6O3
 Framework group  C1[X(C3H6O3)]
 Deg. of freedom    30
 Full point group                 C1      NOp   1
 Largest Abelian subgroup         C1      NOp   1
 Largest concise Abelian subgroup C1      NOp   1
                         Standard orientation:                         
 ---------------------------------------------------------------------
 Center     Atomic      Atomic             Coordinates (Angstroms)
 Number     Number       Type             X           Y           Z
 ---------------------------------------------------------------------
      1          6           0        0.562182    0.692014   -0.774278
      2          6           0       -0.595615    0.750299    0.157572
      3          6           0       -1.655743   -0.370305    0.417392
      4          8           0        1.733084    0.379631    0.000988
      5          8           0        1.587728   -0.970388    0.512934
      6          8           0       -1.936851   -0.754629   -0.659705
      7          1           0        2.466401   -1.334278    0.302924
      8          1           0        0.444920   -0.025069   -1.595903
      9          1           0        0.831099    1.675455   -1.174734
     10          1           0       -2.183957    1.252384    2.251617
     11          1           0       -1.055038    1.715999    0.363632
     12          1           0       -1.440063    1.046550    2.214610
 ---------------------------------------------------------------------
 Rotational constants (GHZ):           5.9654580           2.1168567           1.9704086
 Standard basis: 6-31+G(d) (6D, 7F)
 There are   126 symmetry adapted cartesian basis functions of A   symmetry.
 There are   126 symmetry adapted basis functions of A   symmetry.
   126 basis functions,   216 primitive gaussians,   126 cartesian basis functions
    24 alpha electrons       24 beta electrons
       nuclear repulsion energy       235.1888168255 Hartrees.
 NAtoms=   12 NActive=   12 NUniq=   12 SFac= 1.00D+00 NAtFMM=   60 NAOKFM=F Big=F
 Integral buffers will be    131072 words long.
 Raffenetti 2 integral format.
 Two-electron integral symmetry is turned on.
 One-electron integrals computed using PRISM.
 NBasis=   126 RedAO= T EigKep=  8.99D-05  NBF=   126
 NBsUse=   126 1.00D-06 EigRej= -1.00D+00 NBFU=   126
 Initial guess from the checkpoint file:  "/scratch/bell/zhao922/YARP/paper-example/KHP-network/pp_0/TS-folder/Gau-95648.chk"
 B after Tr=     0.000000    0.000000    0.000000
         Rot=    0.992626    0.119539    0.015725   -0.012478 Ang=  13.92 deg.
 ExpMin= 4.38D-02 ExpMax= 5.48D+03 ExpMxC= 8.25D+02 IAcc=3 IRadAn=         5 AccDes= 0.00D+00
 Harris functional with IExCor=  402 and IRadAn=       5 diagonalized for initial guess.
 HarFok:  IExCor=  402 AccDes= 0.00D+00 IRadAn=         5 IDoV= 1 UseB2=F ITyADJ=14
 ICtDFT=  3500011 ScaDFX=  1.000000  1.000000  1.000000  1.000000
 FoFCou: FMM=F IPFlag=           0 FMFlag=      100000 FMFlg1=           0
         NFxFlg=           0 DoJE=T BraDBF=F KetDBF=T FulRan=T
         wScrn=  0.000000 ICntrl=       500 IOpCl=  0 I1Cent=   200000004 NGrid=           0
         NMat0=    1 NMatS0=      1 NMatT0=    0 NMatD0=    1 NMtDS0=    0 NMtDT0=    0
 Petite list used in FoFCou.
 Keep R1 ints in memory in canonical form, NReq=47237537.
 Requested convergence on RMS density matrix=1.00D-08 within 128 cycles.
 Requested convergence on MAX density matrix=1.00D-06.
 Requested convergence on             energy=1.00D-06.
 No special actions if energy rises.
 SCF Done:  E(RB3LYP) =  -343.285992054     A.U. after   14 cycles
            NFock= 14  Conv=0.63D-08     -V/T= 2.0088
 DoSCS=F DFT=T ScalE2(SS,OS)=  1.000000  1.000000
 Range of M.O.s used for correlation:     1   126
 NBasis=   126 NAE=    24 NBE=    24 NFC=     0 NFV=     0
 NROrb=    126 NOA=    24 NOB=    24 NVA=   102 NVB=   102

 **** Warning!!: The largest alpha MO coefficient is  0.28119816D+02


 **** Warning!!: The smallest alpha delta epsilon is  0.58285823D-01

 Symmetrizing basis deriv contribution to polar:
 IMax=3 JMax=2 DiffMx= 0.00D+00
 G2DrvN: will do    13 centers at a time, making    1 passes.
 Calling FoFCou, ICntrl=  3107 FMM=F I1Cent=   0 AccDes= 0.00D+00.
 End of G2Drv F.D. properties file   721 does not exist.
 End of G2Drv F.D. properties file   722 does not exist.
 End of G2Drv F.D. properties file   788 does not exist.
          IDoAtm=111111111111
          Differentiating once with respect to electric field.
                with respect to dipole field.
          Differentiating once with respect to nuclear coordinates.
 Keep R1 ints in memory in canonical form, NReq=47193552.
          There are    39 degrees of freedom in the 1st order CPHF.  IDoFFX=6 NUNeed=     3.
     36 vectors produced by pass  0 Test12= 6.28D-15 2.56D-09 XBig12= 3.65D+02 1.70D+01.
 AX will form    36 AO Fock derivatives at one time.
     36 vectors produced by pass  1 Test12= 6.28D-15 2.56D-09 XBig12= 1.24D+02 3.23D+00.
     36 vectors produced by pass  2 Test12= 6.28D-15 2.56D-09 XBig12= 1.34D+00 2.57D-01.
     36 vectors produced by pass  3 Test12= 6.28D-15 2.56D-09 XBig12= 5.07D-03 9.92D-03.
     36 vectors produced by pass  4 Test12= 6.28D-15 2.56D-09 XBig12= 8.62D-06 5.35D-04.
     27 vectors produced by pass  5 Test12= 6.28D-15 2.56D-09 XBig12= 7.81D-09 1.16D-05.
      5 vectors produced by pass  6 Test12= 6.28D-15 2.56D-09 XBig12= 5.68D-12 2.93D-07.
      3 vectors produced by pass  7 Test12= 6.28D-15 2.56D-09 XBig12= 5.00D-15 8.37D-09.
 InvSVY:  IOpt=1 It=  1 EMax= 5.33D-15
 Solved reduced A of dimension   215 with    39 vectors.
 Isotropic polarizability for W=    0.000000       66.36 Bohr**3.
 End of Minotr F.D. properties file   721 does not exist.
 End of Minotr F.D. properties file   722 does not exist.
 End of Minotr F.D. properties file   788 does not exist.
 Calling FoFJK, ICntrl=    100127 FMM=F ISym2X=0 I1Cent= 0 IOpClX= 0 NMat=1 NMatS=1 NMatT=0.
 ***** Axes restored to original set *****
 -------------------------------------------------------------------
 Center     Atomic                   Forces (Hartrees/Bohr)
 Number     Number              X              Y              Z
 -------------------------------------------------------------------
      1        6           0.012625270   -0.003597081    0.003458755
      2        6          -0.017484451    0.008617869   -0.014021387
      3        6          -0.001427591   -0.016005153    0.022957252
      4        8          -0.004515325    0.003259075   -0.006540221
      5        8           0.003246340   -0.000878534    0.006135503
      6        8           0.013423860    0.009345559   -0.012505588
      7        1           0.000177899   -0.000443131   -0.002172528
      8        1          -0.001115517    0.001722512   -0.000980849
      9        1           0.000715934   -0.000928578   -0.000306302
     10        1          -0.002254694    0.016899309   -0.000777025
     11        1           0.005019761   -0.001848619   -0.001038359
     12        1          -0.008411486   -0.016143230    0.005790748
 -------------------------------------------------------------------
 Cartesian Forces:  Max     0.022957252 RMS     0.008803766
 FormGI is forming the generalized inverse of G from B-inverse, IUseBI=4.

 GradGradGradGradGradGradGradGradGradGradGradGradGradGradGradGradGradGrad
 Berny optimization.
 Internal  Forces:  Max     0.016322822 RMS     0.004639021
 Search for a saddle point.
 Step number   4 out of a maximum of  100
 All quantities printed in internal units (Hartrees-Bohrs-Radians)
 Swapping is turned off.
 Second derivative matrix not updated -- analytic derivatives used.
 ITU=  0  0  0  0
     Eigenvalues ---   -0.08714  -0.00315  -0.00141   0.00053   0.00095
     Eigenvalues ---    0.00175   0.00430   0.00928   0.01156   0.01307
     Eigenvalues ---    0.03548   0.04303   0.05714   0.05868   0.08726
     Eigenvalues ---    0.09334   0.11922   0.17422   0.18434   0.20501
     Eigenvalues ---    0.24048   0.26690   0.30655   0.33186   0.33793
     Eigenvalues ---    0.33913   0.35739   0.39079   0.49453   0.94579
 Eigenvectors required to have negative eigenvalues:
                          A12       D13       A11       D14       D17
   1                    0.55926   0.43147   0.42801   0.34879  -0.23094
                          R7        D15       D16       R9        R13
   1                   -0.21062   0.14626  -0.14527   0.10140  -0.09782
 RFO step:  Lambda0=2.251292046D-06 Lambda=-1.30920270D-02.
 Linear search not attempted -- option 19 set.
 Maximum step size (   0.300) exceeded in Quadratic search.
    -- Step size scaled by   0.441
 Iteration  1 RMS(Cart)=  0.08584405 RMS(Int)=  0.00494781
 Iteration  2 RMS(Cart)=  0.00340617 RMS(Int)=  0.00170647
 Iteration  3 RMS(Cart)=  0.00001434 RMS(Int)=  0.00170640
 Iteration  4 RMS(Cart)=  0.00000002 RMS(Int)=  0.00170640
 Variable       Old X    -DE/DX   Delta X   Delta X   Delta X     New X
                                 (Linear)    (Quad)   (Total)
    R1        2.81070   0.00408   0.00000   0.01516   0.01516   2.82586
    R2        2.71860   0.00190   0.00000   0.00053   0.00053   2.71913
    R3        2.07270  -0.00102   0.00000  -0.00572  -0.00572   2.06698
    R4        2.06995   0.00028   0.00000   0.00142   0.00142   2.07138
    R5        2.95616   0.00915   0.00000   0.01417   0.01415   2.97031
    R6        2.05807  -0.00243   0.00000  -0.00006   0.00054   2.05861
    R7        4.23917   0.00704   0.00000   0.19430   0.19225   4.43142
    R8        2.22544   0.01360   0.00000   0.01231   0.01231   2.23775
    R9        4.34390   0.00584   0.00000   0.15584   0.15413   4.49803
   R10        2.74223   0.00405   0.00000   0.00960   0.00960   2.75183
   R11        1.84051   0.00024   0.00000   0.00075   0.00075   1.84125
   R12        1.46025  -0.01632   0.00000  -0.02991  -0.02991   1.43034
   R13        3.79008   0.00326   0.00000   0.04217   0.04623   3.83631
    A1        1.88016   0.00301   0.00000  -0.01871  -0.01869   1.86147
    A2        1.99513   0.00187   0.00000   0.00172   0.00165   1.99678
    A3        1.96597  -0.00186   0.00000   0.01432   0.01428   1.98025
    A4        1.92702  -0.00285   0.00000   0.00359   0.00356   1.93058
    A5        1.76415  -0.00003   0.00000  -0.00239  -0.00229   1.76186
    A6        1.91703  -0.00040   0.00000   0.00044   0.00037   1.91741
    A7        2.21870  -0.00535   0.00000  -0.02923  -0.03508   2.18362
    A8        2.07334   0.00216   0.00000   0.00186   0.00840   2.08174
    A9        2.63151   0.00833   0.00000   0.09657   0.09632   2.72783
   A10        1.89430   0.00113   0.00000   0.00948   0.00823   1.90253
   A11        1.81691  -0.00227   0.00000  -0.04330  -0.04186   1.77505
   A12        2.78944  -0.00025   0.00000  -0.00501  -0.00319   2.78625
   A13        1.88662  -0.00731   0.00000  -0.00673  -0.00673   1.87990
   A14        1.75295  -0.00384   0.00000  -0.01067  -0.01067   1.74228
   A15        2.02804   0.00098   0.00000   0.02953   0.02916   2.05720
   A16        1.68233   0.00277   0.00000   0.08887   0.08630   1.76863
   A17        1.04973   0.00088   0.00000  -0.02422  -0.02442   1.02530
   A18        1.71135   0.00133   0.00000   0.02881   0.03059   1.74194
    D1       -1.73317  -0.00131   0.00000  -0.14357  -0.14355  -1.87672
    D2        1.92213   0.00330   0.00000  -0.10252  -0.10358   1.81855
    D3        0.41927  -0.00123   0.00000  -0.01725  -0.01633   0.40294
    D4        0.41538  -0.00146   0.00000  -0.15176  -0.15171   0.26368
    D5       -2.21251   0.00314   0.00000  -0.11071  -0.11174  -2.32424
    D6        2.56782  -0.00138   0.00000  -0.02544  -0.02449   2.54333
    D7        2.61963  -0.00204   0.00000  -0.13727  -0.13716   2.48247
    D8       -0.00826   0.00256   0.00000  -0.09622  -0.09719  -0.10545
    D9       -1.51112  -0.00196   0.00000  -0.01095  -0.00994  -1.52106
   D10        1.16537   0.00222   0.00000   0.02968   0.02965   1.19502
   D11       -1.02430  -0.00031   0.00000   0.03796   0.03795  -0.98635
   D12       -3.05273   0.00131   0.00000   0.03723   0.03727  -3.01546
   D13       -0.78502   0.00783   0.00000   0.12790   0.12491  -0.66010
   D14        1.88509   0.00408   0.00000   0.08971   0.08991   1.97500
   D15        2.74764  -0.00064   0.00000  -0.15462  -0.15749   2.59015
   D16        0.93504   0.00441   0.00000   0.00291   0.00415   0.93919
   D17       -0.73418   0.00440   0.00000   0.02128   0.02095  -0.71322
   D18        2.32922  -0.00134   0.00000  -0.01640  -0.01640   2.31282
[...]
    D7        1.59844   0.00000   0.00000   0.00001   0.00002   1.59845
    D8       -0.72012   0.00000   0.00000  -0.00006  -0.00006  -0.72018
    D9       -2.90827  -0.00000   0.00000  -0.00402  -0.00403  -2.91230
   D10        1.26759  -0.00000   0.00000  -0.00002  -0.00002   1.26757
   D11       -0.86113   0.00000   0.00000  -0.00002  -0.00002  -0.86116
   D12       -2.89595   0.00000   0.00000  -0.00002  -0.00002  -2.89597
   D13       -0.39694   0.00000   0.00000  -0.00004   0.00005  -0.39689
   D14        1.96080   0.00000   0.00000   0.00002   0.00014   1.96094
   D15        1.11355   0.00000   0.00000   0.00154   0.00153   1.11508
   D16        0.14807  -0.00000   0.00000   0.28385   0.28386   0.43193
   D17        0.71070   0.00000   0.00000   0.28542   0.28540   0.99611
   D18        2.17895   0.00000   0.00000  -0.00001  -0.00001   2.17894
         Item               Value     Threshold  Converged?
 Maximum Force            0.000002     0.000450     YES
 RMS     Force            0.000001     0.000300     YES
 Maximum Displacement     0.008260     0.001800     NO 
 RMS     Displacement     0.002621     0.001200     NO 
 Predicted change in Energy=-1.246062D-08
 Optimization completed on the basis of negligible forces.
    -- Stationary point found.
                           ----------------------------
                           !   Optimized Parameters   !
                           ! (Angstroms and Degrees)  !
 --------------------------                            --------------------------
 ! Name  Definition              Value          Derivative Info.                !
 --------------------------------------------------------------------------------
 ! R1    R(1,2)                  1.5091         -DE/DX =    0.0                 !
 ! R2    R(1,4)                  1.4326         -DE/DX =    0.0                 !
 ! R3    R(1,8)                  1.0947         -DE/DX =    0.0                 !
 ! R4    R(1,9)                  1.0987         -DE/DX =    0.0                 !
 ! R5    R(2,3)                  1.6258         -DE/DX =    0.0                 !
 ! R6    R(2,11)                 1.0974         -DE/DX =    0.0                 !
 ! R7    R(2,12)                 3.0825         -DE/DX =    0.0                 !
 ! R8    R(3,6)                  1.1943         -DE/DX =    0.0                 !
 ! R9    R(3,12)                 2.7864         -DE/DX =    0.0                 !
 ! R10   R(4,5)                  1.4634         -DE/DX =    0.0                 !
 ! R11   R(5,7)                  0.975          -DE/DX =    0.0                 !
 ! R12   R(10,12)                0.7441         -DE/DX =    0.0                 !
 ! R13   R(11,12)                3.0729         -DE/DX =    0.0                 !
 ! A1    A(2,1,4)              104.6724         -DE/DX =    0.0                 !
 ! A2    A(2,1,8)              112.6884         -DE/DX =    0.0                 !
 ! A3    A(2,1,9)              116.0645         -DE/DX =    0.0                 !
 ! A4    A(4,1,8)              111.225          -DE/DX =    0.0                 !
 ! A5    A(4,1,9)              102.263          -DE/DX =    0.0                 !
 ! A6    A(8,1,9)              109.3156         -DE/DX =    0.0                 !
 ! A7    A(1,2,3)              122.2907         -DE/DX =    0.0                 !
 ! A8    A(1,2,11)             113.7642         -DE/DX =    0.0                 !
 ! A9    A(1,2,12)             159.0362         -DE/DX =    0.0                 !
 ! A10   A(3,2,11)             108.1086         -DE/DX =    0.0                 !
 ! A11   A(2,3,6)               95.037          -DE/DX =    0.0                 !
 ! A12   A(6,3,12)             179.2808         -DE/DX =    0.0                 !
 ! A13   A(1,4,5)              107.6215         -DE/DX =    0.0                 !
 ! A14   A(4,5,7)               99.251          -DE/DX =    0.0                 !
 ! A15   A(2,12,10)            118.2786         -DE/DX =    0.0                 !
 ! A16   A(3,12,10)            149.8524         -DE/DX =    0.0                 !
 ! A17   A(3,12,11)             44.3271         -DE/DX =    0.0                 !
 ! A18   A(10,12,11)           108.7693         -DE/DX =    0.0                 !
 ! D1    D(4,1,2,3)           -156.5475         -DE/DX =    0.0                 !
 ! D2    D(4,1,2,11)            70.6093         -DE/DX =    0.0                 !
 ! D3    D(4,1,2,12)           -54.7627         -DE/DX =    0.0                 !
 ! D4    D(8,1,2,3)            -35.5441         -DE/DX =    0.0                 !
 ! D5    D(8,1,2,11)          -168.3874         -DE/DX =    0.0                 !
 ! D6    D(8,1,2,12)            66.2407         -DE/DX =    0.0                 !
 ! D7    D(9,1,2,3)             91.5836         -DE/DX =    0.0                 !
 ! D8    D(9,1,2,11)           -41.2597         -DE/DX =    0.0                 !
 ! D9    D(9,1,2,12)          -166.6316         -DE/DX =    0.0                 !
 ! D10   D(2,1,4,5)             72.6274         -DE/DX =    0.0                 !
 ! D11   D(8,1,4,5)            -49.3393         -DE/DX =    0.0                 !
 ! D12   D(9,1,4,5)           -165.9255         -DE/DX =    0.0                 !
 ! D13   D(1,2,3,6)            -22.7428         -DE/DX =    0.0                 !
 ! D14   D(11,2,3,6)           112.3454         -DE/DX =    0.0                 !
 ! D15   D(1,2,12,10)           63.8018         -DE/DX =    0.0                 !
 ! D16   D(6,3,12,10)            8.4838         -DE/DX =    0.0                 !
 ! D17   D(6,3,12,11)           40.7202         -DE/DX =    0.0                 !
 ! D18   D(1,4,5,7)            124.8444         -DE/DX =    0.0                 !
 --------------------------------------------------------------------------------
 GradGradGradGradGradGradGradGradGradGradGradGradGradGradGradGradGradGrad


 ----------------------------------------------------------------------

 Electric dipole moment (input orientation):
 (Debye = 10**-18 statcoulomb cm , SI units = C m)
                  (au)            (Debye)         (10**-30 SI)
   Tot        0.987935D+00      0.251108D+01      0.837606D+01
   x          0.326784D+00      0.830601D+00      0.277059D+01
   y          0.660240D+00      0.167816D+01      0.559774D+01
   z         -0.658265D+00     -0.167314D+01     -0.558100D+01

 Dipole polarizability, Alpha (input orientation).
 (esu units = cm**3 , SI units = C**2 m**2 J**-1)
 Alpha(0;0):
               (au)            (10**-24 esu)      (10**-40 SI)
   iso        0.619467D+02      0.917956D+01      0.102136D+02
   aniso      0.379127D+02      0.561808D+01      0.625095D+01
   xx         0.554900D+02      0.822277D+01      0.914907D+01
   yx        -0.120688D+02     -0.178841D+01     -0.198987D+01
   yy         0.762517D+02      0.112993D+02      0.125722D+02
   zx         0.115526D+01      0.171192D+00      0.190477D+00
   zy        -0.133482D+02     -0.197800D+01     -0.220083D+01
   zz         0.540985D+02      0.801657D+01      0.891964D+01

 ----------------------------------------------------------------------

 Dipole orientation:
     6          1.15812925          1.27158268          6.34238558
     6          0.44401741          1.39460778          3.58416902
     6          2.51219974          1.92665516          1.37551464
     8         -0.79528841         -0.20940280          7.49104126
     8         -0.42353232         -2.83606255          6.70972651
     8          4.00150503          2.93658008          2.73775052
     1         -0.34160294         -3.63028137          8.37030459
     1          3.01949377          0.42213724          6.64758664
     1          1.03635457          3.05609497          7.39675348
     1         -2.20431822         -1.15165117         -1.90880796
     1         -1.22192923          2.56963671          3.20384493
     1         -0.99500880         -0.45214016         -1.74976934

 Electric dipole moment (dipole orientation):
 (Debye = 10**-18 statcoulomb cm , SI units = C m)
                  (au)            (Debye)         (10**-30 SI)
   Tot        0.987935D+00      0.251108D+01      0.837606D+01
   x          0.000000D+00      0.000000D+00      0.000000D+00
   y          0.000000D+00      0.000000D+00      0.000000D+00
   z          0.987935D+00      0.251108D+01      0.837606D+01

 Dipole polarizability, Alpha (dipole orientation).
 (esu units = cm**3 , SI units = C**2 m**2 J**-1)
 Alpha(0;0):
               (au)            (10**-24 esu)      (10**-40 SI)
   iso        0.619467D+02      0.917956D+01      0.102136D+02
   aniso      0.379127D+02      0.561808D+01      0.625095D+01
   xx         0.605806D+02      0.897712D+01      0.998840D+01
   yx         0.121676D+02      0.180306D+01      0.200617D+01
   yy         0.550719D+02      0.816081D+01      0.908012D+01
   zx        -0.132639D+02     -0.196550D+01     -0.218692D+01
   zy        -0.982954D+01     -0.145659D+01     -0.162067D+01
   zz         0.701877D+02      0.104007D+02      0.115724D+02

 ----------------------------------------------------------------------
 1\1\GINC-BELL-A091\Freq\RB3LYP\6-31+G(d)\C3H6O3\ZHAO922\23-Dec-2020\0\
 \#N Geom=AllCheck Guess=TCheck SCRF=Check GenChk RB3LYP/6-31+G(d) Freq
 \\pp_20_1 TS\\0,1\C,1.7720425465,1.6691503141,-2.4832570293\C,0.944807
 1008,0.696185781,-1.6792350465\C,1.6181321913,-0.43617979,-0.726627776
 1\O,0.9033026839,2.7861509152,-2.7064360606\O,0.7659526672,3.501148310
 6,-1.4369594297\O,2.6638329671,-0.4501605989,-1.3034171163\H,1.0413696
 14,4.390292766,-1.7272503553\H,2.6861471831,1.9754359673,-1.9646520446
 \H,2.0216650401,1.3593655692,-3.5074280805\H,-1.5048456714,-0.07422292
 49,0.6944735811\H,0.1370304068,0.2235028451,-2.2522893558\H,-0.8299807
 293,-0.3738231547,0.6026907135\\Version=ES64L-G16RevB.01\State=1-A\HF=
 -343.3041358\RMSD=5.440e-09\RMSF=1.377e-06\ZeroPoint=0.0768299\Thermal
 =0.0871205\Dipole=0.3267835,0.6602395,-0.6582646\DipoleDeriv=0.3422988
 ,-0.1100039,0.0594431,-0.1735834,0.8034777,-0.2256016,-0.0046978,-0.04
 633,0.2561339,0.0270085,0.3843894,-0.1566269,0.1996764,-0.0636351,0.02
 64465,0.1764396,-0.3994276,0.3338631,0.7646025,-0.9805748,0.2975378,-0
 .1017856,-0.0207915,0.104419,-0.5341589,0.7433932,-0.7035228,-0.246175
 8,-0.0248519,0.018932,0.000527,-0.4893863,0.2044017,-0.061372,0.318881
 7,-0.2106278,-0.3272434,0.0917847,-0.0971748,0.1731594,-0.3542276,-0.1
 162321,-0.0029017,-0.1872595,-0.2116856,-0.9777303,0.8929886,-0.192790
 5,0.047132,-0.1444065,-0.016057,0.5098234,-0.5858543,0.310192,0.329095
 9,-0.0449926,0.0545993,-0.054673,0.2719419,0.034619,0.0569081,0.050368
 7,0.2050133,-0.0489152,-0.0299179,-0.0244399,-0.0258246,-0.0087652,-0.
 0232104,-0.0808147,0.0205182,0.0422775,0.0642188,-0.0007562,0.0580354,
 0.0513429,-0.1331293,0.0605605,0.034484,0.1065035,-0.1413723,-0.017682
 7,-0.0116192,0.0112797,-0.0125032,-0.0013292,0.0000561,0.0123989,0.003
 9474,-0.0184132,0.0574547,-0.1771963,-0.0064869,-0.1076422,0.13056,-0.
 0496457,-0.0897904,-0.0171857,0.1155983,0.0330681,0.0107499,-0.0223082
 ,0.0041743,0.0096908,0.0002439,-0.0163187,-0.0075559,0.0225436\Polar=5
 5.4900056,-12.0687799,76.2516787,1.1552624,-13.3482321,54.0985142\Quad
 rupole=-1.1838357,2.2279129,-1.0440772,2.6909401,0.1469218,1.8167881\P
 G=C01 [X(C3H6O3)]\NImag=1\\0.53869853,0.06743617,0.40050372,0.03711204
 ,0.05486094,0.59316019,-0.12223845,-0.07507104,0.03029125,0.34237428,-
 0.08518304,-0.08982149,0.06340803,0.17709343,0.26239012,0.04228407,0.0
 2886948,-0.11180799,0.09226550,-0.04846830,0.29908449,-0.00578247,0.02
 114856,0.01961942,0.05309595,-0.06059318,-0.03866453,0.59450822,0.0055
 3776,0.00545764,0.01259851,-0.00788543,-0.05534284,0.06225421,-0.00699
 631,0.10365971,0.00032556,-0.01693051,-0.01406751,-0.07182571,0.063193
 87,-0.03511442,-0.28328234,-0.05747503,0.18188168,-0.10786347,0.047963
 39,-0.04920396,0.00581520,0.01262065,-0.00757914,-0.00162278,-0.001424
 08,0.00368176,0.14514407,0.07293527,-0.13897193,0.04254553,0.01165558,
 -0.02674729,0.01155538,0.00761151,-0.00342270,-0.00222343,-0.12266757,
 0.30335496,-0.03519881,0.01614823,-0.08392130,-0.00436751,0.00913959,-
 0.00177854,-0.00540944,0.00230704,0.00184207,0.05055422,0.04989608,0.2
 7720435,-0.00458404,0.01098329,0.02808104,0.00113338,-0.00076440,-0.00
 190598,0.00078185,0.00031265,-0.00054588,-0.02104403,0.00131689,-0.009
 76324,0.06537748,0.00313284,-0.01738584,-0.04186195,0.00186959,-0.0051
 5595,-0.00114708,-0.00207942,0.00015458,0.00078663,0.02227924,-0.10049
 537,-0.07271830,0.10430358,0.52197926,0.01215041,-0.00601830,-0.006374
 60,-0.00043418,-0.00022803,0.00316485,-0.00160945,-0.00085728,0.000850
 49,0.01315067,-0.05148653,-0.18157099,-0.07681324,-0.05503555,0.268886
 16,0.00151077,-0.00887930,-0.00040759,-0.07946429,0.06093498,0.0017356
 7,-0.61927534,0.00489064,0.35716694,0.00407910,-0.00106925,0.00045388,
 -0.00009450,0.00059379,0.00047507,0.67737991,0.01189400,-0.01812586,-0
 .01335372,0.00925520,0.00938970,-0.00419063,0.02995907,-0.04263154,-0.
 00942487,0.00051807,-0.00560598,0.00512063,-0.00064358,0.00116076,0.00
 104764,-0.04907144,0.04792090,-0.01411489,0.02435009,0.00688613,0.0650
 6625,-0.04300501,-0.01637697,0.30373590,-0.00063988,-0.13859798,-0.000
 87715,0.00806971,-0.00497781,0.00062721,-0.00086271,-0.00076679,-0.346
 33603,0.01498188,0.15184650,0.00057571,0.00302838,0.00245149,-0.000199
 39,-0.00061580,0.00019732,-0.00006915,0.00000591,0.00006635,0.00117396
 ,0.00681144,-0.00369525,-0.04246020,-0.13137298,0.05286202,-0.00008705
 ,0.00013745,-0.00019611,0.04224173,-0.00021843,-0.00310107,-0.00158741
 ,0.00024645,-0.00098150,0.00017611,-0.00001318,0.00026058,-0.00033277,
 -0.00132000,-0.01453674,0.00273611,-0.11919446,-0.39680078,0.11247976,
 -0.00032825,0.00027730,-0.00013624,0.12089725,0.41509930,-0.00249598,-
 0.00226412,-0.00542170,-0.00025214,0.00119899,-0.00098711,0.00147925,0
 .00009555,-0.00097122,-0.00569588,-0.05231163,-0.00507447,0.05884299,0
 .16712151,-0.09036231,-0.00102441,-0.00030073,0.00125398,-0.05179882,-
 0.11321059,0.10065525,-0.22512564,-0.06908953,-0.10102713,-0.01413809,
 -0.00844595,-0.00637784,-0.00162419,0.00010522,0.00203902,-0.02172013,
 0.00930455,-0.01147890,0.00314671,-0.00161719,-0.00044595,0.00160296,0
 .00117219,-0.00174568,-0.00046655,-0.00010162,0.00016670,0.25102765,-0
 .07355525,-0.07540841,-0.04253722,-0.01688481,-0.00582807,-0.01245815,
 -0.00155093,0.00059496,0.00117926,0.03287154,-0.00044744,0.01622059,-0
 .00216465,0.00312021,0.00134722,0.00163396,-0.00051477,-0.00110124,0.0
 0043520,-0.00017875,0.00075109,0.06954087,0.08099066,-0.10648204,-0.03
 792869,-0.11462130,0.01540637,0.00616024,0.00988165,-0.00045077,-0.000
 03039,0.00060322,-0.00447629,-0.00141424,-0.00321092,0.00224436,0.0017
 1548,0.00217170,0.00027333,0.00069336,-0.00065312,-0.00008217,-0.00020
 265,0.00062542,0.11485860,0.03663927,0.11899289,-0.06185664,0.01192432
 ,0.04578280,-0.00038405,-0.00102341,0.01657577,-0.00376481,-0.00046283
 ,0.00340445,-0.00655538,0.01486492,0.01796351,-0.00212458,0.00293651,0
 .00053485,0.00117765,0.00079023,-0.00321237,-0.00061434,-0.00008957,0.
 00060073,0.00766198,-0.00753491,-0.02384266,0.06527729,0.01068733,-0.0
 6044754,-0.06135314,-0.00188597,0.00170861,0.02436877,-0.00939402,-0.0
 0343289,0.00612263,0.00907146,-0.01524773,-0.02849054,0.00558863,-0.00
 664898,-0.00123401,0.00490848,0.00330242,-0.00471904,0.00070435,-0.000
 00630,-0.00096150,0.00129954,-0.00087089,-0.00782496,-0.02155454,0.080
 64255,0.04796299,-0.07468043,-0.27201573,0.00386333,0.00383620,-0.0141
 5789,0.00600383,0.00111458,-0.00418469,0.00105839,-0.00332612,0.001177
 94,-0.00073032,0.00255114,0.00430359,-0.00349401,-0.00165348,0.0039313
 0,0.00005262,0.00009344,0.00021685,0.00295763,-0.00381576,-0.01213249,
 -0.05748640,0.07541216,0.29098379,-0.00005408,0.00032528,0.00009313,0.
 00040832,-0.00021990,-0.00052664,-0.00141304,0.00049360,0.00107148,-0.
 00000354,-0.00000179,0.00001849,0.00002070,-0.00004677,-0.00002068,0.0
 0027053,-0.00022774,-0.00038497,-0.00000197,0.00001289,0.00000773,-0.0
 0000120,0.00000303,-0.00000585,-0.00003046,-0.00009986,0.00005686,0.30
 783138,0.00008506,-0.00015971,-0.00012063,-0.00045316,0.00063711,-0.00
 022221,0.00126903,-0.00076863,0.00011709,0.00001404,-0.00009607,0.0000
 5393,0.00001179,0.00000490,0.00000938,-0.00053176,0.00033959,0.0000863
 7,-0.00001132,0.00000749,-0.00000047,0.00000447,0.00000240,0.00000410,
 0.00001146,0.00004813,-0.00001661,-0.13638695,0.06082524,-0.00004525,-
 0.00002977,0.00011911,-0.00000134,-0.00041151,0.00018725,0.00009467,0.
 00044493,-0.00013436,-0.00000723,0.00011152,-0.00008041,-0.00001411,0.
 00001843,0.00001455,0.00015382,-0.00013993,-0.00007149,0.00000380,-0.0
 0001477,0.00000245,0.00001355,0.00001709,-0.00001799,-0.00000358,0.000
 01180,-0.00001680,-0.04187936,0.01876174,0.00632209,-0.01353603,-0.009
 17166,-0.01252300,-0.18594723,-0.09478971,-0.09797677,-0.01576086,0.00
 699109,-0.01225812,0.00261206,-0.00065724,0.00088647,-0.00011853,-0.00
 007047,0.00010674,0.01351623,-0.00460430,-0.00269780,-0.00009498,0.000
 12093,0.00018008,-0.00036473,-0.00279355,0.00255561,0.00115477,0.00048
 582,-0.00014230,-0.00002698,0.00007636,0.00007992,0.19855206,-0.012680
 63,-0.00267760,-0.01279841,-0.09808094,-0.08949197,-0.06117817,0.02151
 730,-0.00514422,0.01546756,0.00009020,0.00213530,-0.00035546,0.0002577
 0,0.00006746,-0.00001129,-0.01356365,0.00474169,0.00293324,-0.00003068
 ,-0.00003950,-0.00011808,-0.00217300,-0.00146283,0.00219763,0.00015830
 ,0.00100279,0.00046967,0.00002515,-0.00007044,-0.00006822,0.10443738,0
 .09086445,0.01855547,0.01340634,0.00807378,-0.13028103,-0.05496833,-0.
 13193537,-0.00120656,-0.01990078,0.00847415,-0.00061942,-0.00138412,0.
 00034657,-0.00004078,-0.00052746,-0.00028861,-0.00909287,0.00738781,-0
 .00271478,0.00014331,-0.00001268,0.00005924,0.00105340,0.00376934,-0.0
 0165184,-0.00030514,-0.00126532,0.00184915,0.00002694,-0.00003698,0.00
 010539,0.12177684,0.05347516,0.11777789,0.00025581,-0.00059787,-0.0002
 6949,-0.00045564,0.00098632,-0.00002742,0.00092662,-0.00156822,0.00015
 649,-0.00001507,-0.00010432,0.00003657,-0.00003423,0.00007129,0.000043
 73,-0.00061597,0.00082085,0.00013565,0.00000224,-0.00001203,-0.0000102
 6,0.00000121,-0.00000051,0.00000152,0.00005855,0.00018878,-0.00010264,
 -0.30699967,0.13591096,0.04160511,0.00001423,0.00004287,-0.00001017,0.
 30686192,-0.00007110,0.00013809,0.00019948,0.00014110,-0.00075642,0.00
 044060,-0.00087843,0.00061535,-0.00048045,-0.00001695,0.00008101,-0.00
 005790,-0.00000744,-0.00000026,-0.00001300,0.00048180,-0.00025420,0.00
 004283,0.00001079,-0.00000003,0.,0.00000043,0.00000295,-0.00000915,-0.
 00002049,-0.00005016,0.00001522,0.13612306,-0.06077001,-0.01870134,-0.
 00002466,0.00007487,0.00005702,-0.13573813,0.06091881,-0.00005356,0.00
 021674,-0.00000908,0.00026921,0.00014425,-0.00015996,-0.00030998,0.000
 08854,-0.00058142,0.00001404,-0.00003213,0.00004351,0.00001794,-0.0000
 4014,-0.00002803,0.00009618,-0.00016796,0.00024103,-0.00000457,0.00001
 169,0.00000361,-0.00001342,-0.00001148,0.00001279,-0.00001193,-0.00006
 684,0.00004497,0.04154287,-0.01863571,-0.00642978,0.00001232,-0.000013
 64,-0.00009556,-0.04155909,0.01850669,0.00695790\\-0.00000068,0.000001
 08,0.00000046,0.00000088,-0.00000055,-0.00000026,-0.00000003,0.0000040
 1,0.00000509,0.00000005,0.00000018,-0.00000058,-0.00000006,-0.00000003
 ,-0.00000047,0.00000033,-0.00000338,-0.00000294,-0.00000011,-0.0000000
 5,-0.00000054,-0.00000005,0.,-0.00000002,0.00000007,-0.00000046,0.0000
 0016,-0.00000011,0.00000033,0.00000004,0.00000039,-0.00000060,-0.00000
 020,-0.00000068,-0.00000054,-0.00000075\\\@


 The arm of the moral universe is long, but it bends toward justice.
 -- Martin Luther King, Jr.
 Job cpu time:       0 days  0 hours  4 minutes  4.5 seconds.
 Elapsed time:       0 days  0 hours  0 minutes 18.0 seconds.
 File lengths (MBytes):  RWF=     27 Int=      0 D2E=      0 Chk=      3 Scr=      1
 Normal termination of Gaussian 16 at Wed Dec 23 22:08:50 2020.
