 Entering Gaussian System, Link 0=g16
 Initial command:
 /apps/cent7/gaussian/g16-B.01/g16-haswell/g16/l1.exe "/scratch/bell/zhao922/YARP/paper-example/KHP-network/pp_0/TS-folder/Gau-106851.inp" -scrdir="/scratch/bell/zhao922/YARP/paper-example/KHP-network/pp_0/TS-folder/"
 Entering Link 1 = /apps/cent7/gaussian/g16-B.01/g16-haswell/g16/l1.exe PID=    106854.
  
 Copyright (c) 1988-2017, Gaussian, Inc.  All Rights Reserved.
  
 This is part of the Gaussian(R) 16 program.  It is based on
 the Gaussian(R) 09 system (copyright 2009, Gaussian, Inc.),
 the Gaussian(R) 03 system (copyright 2003, Gaussian, Inc.),
 the Gaussian(R) 98 system (copyright 1998, Gaussian, Inc.),
 the Gaussian(R) 94 system (copyright 1995, Gaussian, Inc.),
 the Gaussian 92(TM) system (copyright 1992, Gaussian, Inc.),
 the Gaussian 90(TM) system (copyright 1990, Gaussian, Inc.),
 the Gaussian 88(TM) system (copyright 1988, Gaussian, Inc.),
 the Gaussian 86(TM) system (copyright 1986, Carnegie Mellon
 University), and the Gaussian 82(TM) system (copyright 1983,
 Carnegie Mellon University). Gaussian is a federally registered
 trademark of Gaussian, Inc.
  
 This software contains proprietary and confidential information,
 including trade secrets, belonging to Gaussian, Inc.
  
 This software is provided under written license and may be
 used, copied, transmitted, or stored only in accord with that
 written license.
  
 The following legend is applicable only to US Government
 contracts under FAR:
  
                    RESTRICTED RIGHTS LEGEND
  
 Use, reproduction and disclosure by the US Government is
 subject to restrictions as set forth in subparagraphs (a)
 and (c) of the Commercial Computer Software - Restricted
 Rights clause in FAR 52.227-19.
  
 Gaussian, Inc.
 340 Quinnipiac St., Bldg. 40, Wallingford CT 06492
  
  
 ---------------------------------------------------------------
 Warning -- This program may not be used in any manner that
 competes with the business of Gaussian, Inc. or will provide
 assistance to any competitor of Gaussian, Inc.  The licensee
 of this program is prohibited from giving any competitor of
 Gaussian, Inc. access to this program.  By using this program,
 the user acknowledges that Gaussian, Inc. is engaged in the
 business of creating and licensing software in the field of
 computational chemistry and represents and warrants to the
 licensee that it is not a competitor of Gaussian, Inc. and that
 it will not use this program in any manner prohibited above.
 ---------------------------------------------------------------
  

 Cite this work as:
 Gaussian 16, Revision B.01,
 M. J. Frisch, G. W. Trucks, H. B. Schlegel, G. E. Scuseria, 
 M. A. Robb, J. R. Cheeseman, G. Scalmani, V. Barone, 
 G. A. Petersson, H. Nakatsuji, X. Li, M. Caricato, A. V. Marenich, 
 J. Bloino, B. G. Janesko, R. Gomperts, B. Mennucci, H. P. Hratchian, 
 J. V. Ortiz, A. F. Izmaylov, J. L. Sonnenberg, D. Williams-Young, 
 F. Ding, F. Lipparini, F. Egidi, J. Goings, B. Peng, A. Petrone, 
 T. Henderson, D. Ranasinghe, V. G. Zakrzewski, J. Gao, N. Rega, 
 G. Zheng, W. Liang, M. Hada, M. Ehara, K. Toyota, R. Fukuda, 
 J. Hasegawa, M. Ishida, T. Nakajima, Y. Honda, O. Kitao, H. Nakai, 
 T. Vreven, K. Throssell, J. A. Montgomery, Jr., J. E. Peralta, 
 F. Ogliaro, M. J. Bearpark, J. J. Heyd, E. N. Brothers, K. N. Kudin, 
 V. N. Staroverov, T. A. Keith, R. Kobayashi, J. Normand, 
 K. Raghavachari, A. P. Rendell, J. C. Burant, S. S. Iyengar, 
 J. Tomasi, M. Cossi, J. M. Millam, M. Klene, C. Adamo, R. Cammi, 
 J. W. Ochterski, R. L. Martin, K. Morokuma, O. Farkas, 
 J. B. Foresman, and D. J. Fox, Gaussian, Inc., Wallingford CT, 2016.
 
 ******************************************
 Gaussian 16:  ES64L-G16RevB.01 20-Dec-2017
                23-Dec-2020 
 ******************************************
 %NProcShared=16
 Will use up to   16 processors via shared memory.
 %Mem=6GB
 --------------------------------------------------------------
 # B3LYP/6-31+G* OPT=(TS, CALCALL, NOEIGEN, maxcycles=100) Freq
 --------------------------------------------------------------
 1/5=1,6=100,10=4,11=1,18=20,26=3,38=1/1,3;
 2/9=110,12=2,17=6,18=5,40=1/2;
 3/5=1,6=6,7=11,11=2,25=1,30=1,71=2,74=-5,140=1/1,2,3;
 4//1;
 5/5=2,38=5/2;
 8/6=4,10=90,11=11/1;
 11/6=1,8=1,9=11,15=111,16=1/1,2,10;
 10/6=1/2;
 6/7=2,8=2,9=2,10=2,18=1,28=1/1;
 7/10=1,25=1/1,2,3,16;
 1/5=1,6=100,10=4,11=1,18=20,26=3/3(3);
 2/9=110/2;
 7/8=1,9=1,25=1,44=-1/16;
 99//99;
 2/9=110/2;
 3/5=1,6=6,7=11,11=2,25=1,30=1,71=2,74=-5,140=1/1,2,3;
 4/5=5,16=3,69=1/1;
 5/5=2,38=5/2;
 8/6=4,10=90,11=11/1;
 11/6=1,8=1,9=11,15=111,16=1/1,2,10;
 10/6=1/2;
 7/10=1,25=1/1,2,3,16;
 1/5=1,6=100,10=4,11=1,18=20,26=3/3(-8);
 2/9=110/2;
 6/7=2,8=2,9=2,10=2,18=1,19=2,28=1/1;
 7/8=1,9=1,25=1,44=-1/16;
 99//99;
 ----------
 pp_23_0 TS
 ----------
 Symbolic Z-matrix:
 Charge =  0 Multiplicity = 1
 C                     0.75464   1.49143  -2.76677 
 C                     0.51342   0.70323  -1.44884 
 C                     1.56639   0.86983  -0.31063 
 O                     1.00839   2.87833  -2.52587 
 O                     1.10334   2.99954  -1.20965 
 O                     1.6844    1.76735   0.52837 
 H                     2.49749   1.79292  -1.2846 
 H                     1.68677   1.12553  -3.23932 
 H                    -0.06658   1.38126  -3.47829 
 H                     1.85684  -0.15957   0.01656 
 H                     0.55939  -0.3388   -1.75932 
 H                    -0.46175   0.90074  -1.00623 
 
 Add virtual bond connecting atoms H7         and C3         Dist= 3.09D+00.

 GradGradGradGradGradGradGradGradGradGradGradGradGradGradGradGradGradGrad
 Berny optimization.
 Initialization pass.
                           ----------------------------
                           !    Initial Parameters    !
                           ! (Angstroms and Degrees)  !
 --------------------------                            --------------------------
 ! Name  Definition              Value          Derivative Info.                !
 --------------------------------------------------------------------------------
 ! R1    R(1,2)                  1.5545         calculate D2E/DX2 analytically  !
 ! R2    R(1,4)                  1.4304         calculate D2E/DX2 analytically  !
 ! R3    R(1,8)                  1.1073         calculate D2E/DX2 analytically  !
 ! R4    R(1,9)                  1.0922         calculate D2E/DX2 analytically  !
 ! R5    R(2,3)                  1.5595         calculate D2E/DX2 analytically  !
 ! R6    R(2,11)                 1.0883         calculate D2E/DX2 analytically  !
 ! R7    R(2,12)                 1.089          calculate D2E/DX2 analytically  !
 ! R8    R(3,6)                  1.2343         calculate D2E/DX2 analytically  !
 ! R9    R(3,7)                  1.6333         calculate D2E/DX2 analytically  !
 ! R10   R(3,10)                 1.1185         calculate D2E/DX2 analytically  !
 ! R11   R(4,5)                  1.3252         calculate D2E/DX2 analytically  !
 ! A1    A(2,1,4)              112.1099         calculate D2E/DX2 analytically  !
 ! A2    A(2,1,8)              108.9601         calculate D2E/DX2 analytically  !
 ! A3    A(2,1,9)              112.6138         calculate D2E/DX2 analytically  !
 ! A4    A(4,1,8)              104.0602         calculate D2E/DX2 analytically  !
 ! A5    A(4,1,9)              109.9337         calculate D2E/DX2 analytically  !
 ! A6    A(8,1,9)              108.7608         calculate D2E/DX2 analytically  !
 ! A7    A(1,2,3)              117.3775         calculate D2E/DX2 analytically  !
 ! A8    A(1,2,11)             103.7135         calculate D2E/DX2 analytically  !
 ! A9    A(1,2,12)             113.0534         calculate D2E/DX2 analytically  !
 ! A10   A(3,2,11)             106.3793         calculate D2E/DX2 analytically  !
 ! A11   A(3,2,12)             106.7753         calculate D2E/DX2 analytically  !
 ! A12   A(11,2,12)            109.1142         calculate D2E/DX2 analytically  !
 ! A13   A(2,3,6)              129.67           calculate D2E/DX2 analytically  !
 ! A14   A(2,3,7)               90.5764         calculate D2E/DX2 analytically  !
 ! A15   A(2,3,10)             106.8884         calculate D2E/DX2 analytically  !
 ! A16   A(6,3,7)               86.553          calculate D2E/DX2 analytically  !
 ! A17   A(6,3,10)             116.46           calculate D2E/DX2 analytically  !
 ! A18   A(7,3,10)             123.1304         calculate D2E/DX2 analytically  !
 ! A19   A(1,4,5)              105.5859         calculate D2E/DX2 analytically  !
 ! D1    D(4,1,2,3)            -50.8537         calculate D2E/DX2 analytically  !
 ! D2    D(4,1,2,11)          -167.806          calculate D2E/DX2 analytically  !
 ! D3    D(4,1,2,12)            74.149          calculate D2E/DX2 analytically  !
 ! D4    D(8,1,2,3)             63.7814         calculate D2E/DX2 analytically  !
 ! D5    D(8,1,2,11)           -53.1709         calculate D2E/DX2 analytically  !
 ! D6    D(8,1,2,12)          -171.2158         calculate D2E/DX2 analytically  !
 ! D7    D(9,1,2,3)           -175.4552         calculate D2E/DX2 analytically  !
 ! D8    D(9,1,2,11)            67.5925         calculate D2E/DX2 analytically  !
 ! D9    D(9,1,2,12)           -50.4524         calculate D2E/DX2 analytically  !
 ! D10   D(2,1,4,5)              7.014          calculate D2E/DX2 analytically  !
 ! D11   D(8,1,4,5)           -110.5847         calculate D2E/DX2 analytically  !
 ! D12   D(9,1,4,5)            133.0874         calculate D2E/DX2 analytically  !
 ! D13   D(1,2,3,6)             81.521          calculate D2E/DX2 analytically  !
 ! D14   D(1,2,3,7)             -4.4781         calculate D2E/DX2 analytically  !
 ! D15   D(1,2,3,10)          -129.5261         calculate D2E/DX2 analytically  !
 ! D16   D(11,2,3,6)          -162.9816         calculate D2E/DX2 analytically  !
 ! D17   D(11,2,3,7)           111.0193         calculate D2E/DX2 analytically  !
 ! D18   D(11,2,3,10)          -14.0287         calculate D2E/DX2 analytically  !
 ! D19   D(12,2,3,6)           -46.5535         calculate D2E/DX2 analytically  !
 ! D20   D(12,2,3,7)          -132.5526         calculate D2E/DX2 analytically  !
 ! D21   D(12,2,3,10)          102.3994         calculate D2E/DX2 analytically  !
 --------------------------------------------------------------------------------
 Trust Radius=3.00D-01 FncErr=1.00D-07 GrdErr=1.00D-06 EigMax=2.50D+02 EigMin=1.00D-04
 Number of steps in this run=    100 maximum allowed number of steps=    100.
 Search for a saddle point of order  1.
 GradGradGradGradGradGradGradGradGradGradGradGradGradGradGradGradGradGrad

                          Input orientation:                          
 ---------------------------------------------------------------------
 Center     Atomic      Atomic             Coordinates (Angstroms)
 Number     Number       Type             X           Y           Z
 ---------------------------------------------------------------------
      1          6           0        0.754638    1.491430   -2.766768
      2          6           0        0.513416    0.703231   -1.448837
      3          6           0        1.566391    0.869830   -0.310627
      4          8           0        1.008388    2.878329   -2.525865
      5          8           0        1.103336    2.999544   -1.209649
      6          8           0        1.684395    1.767351    0.528370
      7          1           0        2.497490    1.792922   -1.284602
      8          1           0        1.686773    1.125534   -3.239322
      9          1           0       -0.066581    1.381255   -3.478294
     10          1           0        1.856836   -0.159571    0.016558
     11          1           0        0.559386   -0.338797   -1.759318
     12          1           0       -0.461753    0.900744   -1.006234
 ---------------------------------------------------------------------
                    Distance matrix (angstroms):
                    1          2          3          4          5
     1  C    0.000000
     2  C    1.554473   0.000000
     3  C    2.660443   1.559498   0.000000
     4  O    1.430354   2.477103   3.041828   0.000000
     5  O    2.195591   2.382912   2.357614   1.325192   0.000000
     6  O    3.434897   2.532369   1.234255   3.319580   2.208311
     7  H    2.307650   2.269570   1.633301   2.221771   1.845324
     8  H    1.107277   2.181959   2.942300   2.010353   2.823453
     9  H    1.092158   2.216937   3.600315   2.074587   3.022303
    10  H    3.418706   2.167161   1.118515   4.051249   3.471506
    11  H    2.098287   1.088271   2.138585   3.337529   3.426739
    12  H    2.219909   1.088974   2.144340   2.895071   2.625994
                    6          7          8          9         10
     6  O    0.000000
     7  H    1.987120   0.000000
     8  H    3.821968   2.218918   0.000000
     9  H    4.389572   3.399443   1.787946   0.000000
    10  H    2.001179   2.432218   3.504450   4.276408   0.000000
    11  H    3.306814   2.919902   2.367631   2.511034   2.206634
    12  H    2.777043   3.103319   3.106988   2.549143   2.747040
                   11         12
    11  H    0.000000
    12  H    1.773788   0.000000
 Stoichiometry    C3H6O3
 Framework group  C1[X(C3H6O3)]
 Deg. of freedom    30
 Full point group                 C1      NOp   1
 Largest Abelian subgroup         C1      NOp   1
 Largest concise Abelian subgroup C1      NOp   1
                         Standard orientation:                         
 ---------------------------------------------------------------------
 Center     Atomic      Atomic             Coordinates (Angstroms)
 Number     Number       Type             X           Y           Z
 ---------------------------------------------------------------------
      1          6           0       -1.334996    0.688801    0.149860
      2          6           0        0.055403    1.161926   -0.359386
      3          6           0        1.314832    0.474041    0.251095
      4          8           0       -1.472550   -0.733899    0.095855
      5          8           0       -0.276401   -1.194762   -0.240247
      6          8           0        1.841785   -0.603982   -0.037991
      7          1           0        0.372618   -0.374938    1.280240
      8          1           0       -1.423503    0.926899    1.227607
      9          1           0       -2.161400    1.163310   -0.383718
     10          1           0        2.002060    1.291244    0.584220
     11          1           0        0.099231    2.206386   -0.056867
     12          1           0        0.156892    1.099644   -1.441829
 ---------------------------------------------------------------------
 Rotational constants (GHZ):           6.2382418           3.3094131           2.3515775
 Standard basis: 6-31+G(d) (6D, 7F)
 There are   126 symmetry adapted cartesian basis functions of A   symmetry.
 There are   126 symmetry adapted basis functions of A   symmetry.
   126 basis functions,   216 primitive gaussians,   126 cartesian basis functions
    24 alpha electrons       24 beta electrons
       nuclear repulsion energy       253.7009661486 Hartrees.
 NAtoms=   12 NActive=   12 NUniq=   12 SFac= 1.00D+00 NAtFMM=   60 NAOKFM=F Big=F
 Integral buffers will be    131072 words long.
 Raffenetti 2 integral format.
 Two-electron integral symmetry is turned on.
 One-electron integrals computed using PRISM.
 NBasis=   126 RedAO= T EigKep=  1.32D-04  NBF=   126
 NBsUse=   126 1.00D-06 EigRej= -1.00D+00 NBFU=   126
 ExpMin= 4.38D-02 ExpMax= 5.48D+03 ExpMxC= 8.25D+02 IAcc=3 IRadAn=         5 AccDes= 0.00D+00
 Harris functional with IExCor=  402 and IRadAn=       5 diagonalized for initial guess.
 HarFok:  IExCor=  402 AccDes= 0.00D+00 IRadAn=         5 IDoV= 1 UseB2=F ITyADJ=14
 ICtDFT=  3500011 ScaDFX=  1.000000  1.000000  1.000000  1.000000
 FoFCou: FMM=F IPFlag=           0 FMFlag=      100000 FMFlg1=           0
         NFxFlg=           0 DoJE=T BraDBF=F KetDBF=T FulRan=T
         wScrn=  0.000000 ICntrl=       500 IOpCl=  0 I1Cent=   200000004 NGrid=           0
         NMat0=    1 NMatS0=      1 NMatT0=    0 NMatD0=    1 NMtDS0=    0 NMtDT0=    0
 Petite list used in FoFCou.
 Keep R1 ints in memory in canonical form, NReq=47237537.
 Requested convergence on RMS density matrix=1.00D-08 within 128 cycles.
 Requested convergence on MAX density matrix=1.00D-06.
 Requested convergence on             energy=1.00D-06.
 No special actions if energy rises.
 EnCoef did     3 forward-backward iterations
 EnCoef did     3 forward-backward iterations
 SCF Done:  E(RB3LYP) =  -343.281106130     A.U. after   19 cycles
            NFock= 19  Conv=0.44D-08     -V/T= 2.0084
 DoSCS=F DFT=T ScalE2(SS,OS)=  1.000000  1.000000
 Range of M.O.s used for correlation:     1   126
 NBasis=   126 NAE=    24 NBE=    24 NFC=     0 NFV=     0
 NROrb=    126 NOA=    24 NOB=    24 NVA=   102 NVB=   102

 **** Warning!!: The largest alpha MO coefficient is  0.33745974D+02


 **** Warning!!: The smallest alpha delta epsilon is  0.80353295D-01

 Symmetrizing basis deriv contribution to polar:
 IMax=3 JMax=2 DiffMx= 0.00D+00
 G2DrvN: will do    13 centers at a time, making    1 passes.
 Calling FoFCou, ICntrl=  3107 FMM=F I1Cent=   0 AccDes= 0.00D+00.
 End of G2Drv F.D. properties file   721 does not exist.
 End of G2Drv F.D. properties file   722 does not exist.
 End of G2Drv F.D. properties file   788 does not exist.
          IDoAtm=111111111111
          Differentiating once with respect to electric field.
                with respect to dipole field.
          Differentiating once with respect to nuclear coordinates.
 Keep R1 ints in memory in canonical form, NReq=47193552.
          There are    39 degrees of freedom in the 1st order CPHF.  IDoFFX=6 NUNeed=     3.
     36 vectors produced by pass  0 Test12= 6.28D-15 2.56D-09 XBig12= 3.77D+02 1.81D+01.
 AX will form    36 AO Fock derivatives at one time.
     36 vectors produced by pass  1 Test12= 6.28D-15 2.56D-09 XBig12= 2.77D+02 3.29D+00.
     36 vectors produced by pass  2 Test12= 6.28D-15 2.56D-09 XBig12= 3.50D+00 2.61D-01.
     36 vectors produced by pass  3 Test12= 6.28D-15 2.56D-09 XBig12= 2.21D-02 2.88D-02.
     36 vectors produced by pass  4 Test12= 6.28D-15 2.56D-09 XBig12= 4.05D-05 1.14D-03.
     28 vectors produced by pass  5 Test12= 6.28D-15 2.56D-09 XBig12= 4.08D-08 3.03D-05.
      4 vectors produced by pass  6 Test12= 6.28D-15 2.56D-09 XBig12= 3.10D-11 7.06D-07.
      3 vectors produced by pass  7 Test12= 6.28D-15 2.56D-09 XBig12= 2.61D-14 2.32D-08.
 InvSVY:  IOpt=1 It=  1 EMax= 7.11D-15
 Solved reduced A of dimension   215 with    39 vectors.
 Isotropic polarizability for W=    0.000000       61.05 Bohr**3.
 End of Minotr F.D. properties file   721 does not exist.
 End of Minotr F.D. properties file   722 does not exist.
 End of Minotr F.D. properties file   788 does not exist.

 **********************************************************************

            Population analysis using the SCF Density.

 **********************************************************************

 Orbital symmetries:
       Occupied  (A) (A) (A) (A) (A) (A) (A) (A) (A) (A) (A) (A)
                 (A) (A) (A) (A) (A) (A) (A) (A) (A) (A) (A) (A)
       Virtual   (A) (A) (A) (A) (A) (A) (A) (A) (A) (A) (A) (A)
                 (A) (A) (A) (A) (A) (A) (A) (A) (A) (A) (A) (A)
                 (A) (A) (A) (A) (A) (A) (A) (A) (A) (A) (A) (A)
                 (A) (A) (A) (A) (A) (A) (A) (A) (A) (A) (A) (A)
                 (A) (A) (A) (A) (A) (A) (A) (A) (A) (A) (A) (A)
                 (A) (A) (A) (A) (A) (A) (A) (A) (A) (A) (A) (A)
                 (A) (A) (A) (A) (A) (A) (A) (A) (A) (A) (A) (A)
                 (A) (A) (A) (A) (A) (A) (A) (A) (A) (A) (A) (A)
                 (A) (A) (A) (A) (A) (A)
 The electronic state is 1-A.
 Alpha  occ. eigenvalues --  -19.25437 -19.23158 -19.16578 -10.30577 -10.27785
 Alpha  occ. eigenvalues --  -10.23453  -1.19213  -1.05821  -0.87847  -0.79870
 Alpha  occ. eigenvalues --   -0.67434  -0.59093  -0.54951  -0.52884  -0.50349
 Alpha  occ. eigenvalues --   -0.47110  -0.45248  -0.43662  -0.41859  -0.39512
 Alpha  occ. eigenvalues --   -0.37617  -0.28986  -0.26107  -0.24385
 Alpha virt. eigenvalues --   -0.16350  -0.02853  -0.00254   0.01629   0.02055
 Alpha virt. eigenvalues --    0.03291   0.05376   0.05879   0.06356   0.08002
 Alpha virt. eigenvalues --    0.08664   0.10271   0.11818   0.13458   0.14788
 Alpha virt. eigenvalues --    0.15287   0.17634   0.18227   0.19437   0.21101
 Alpha virt. eigenvalues --    0.22383   0.24018   0.24586   0.25390   0.26061
 Alpha virt. eigenvalues --    0.27054   0.28123   0.29762   0.30225   0.31493
 Alpha virt. eigenvalues --    0.33137   0.34495   0.35504   0.39598   0.40904
 Alpha virt. eigenvalues --    0.43287   0.60800   0.62464   0.65946   0.67046
 Alpha virt. eigenvalues --    0.70670   0.73108   0.76002   0.79248   0.85973
 Alpha virt. eigenvalues --    0.90338   0.93741   0.95711   0.99488   1.02372
 Alpha virt. eigenvalues --    1.06735   1.07287   1.09412   1.13438   1.18548
 Alpha virt. eigenvalues --    1.19755   1.23035   1.24798   1.25638   1.26686
 Alpha virt. eigenvalues --    1.35755   1.37861   1.41547   1.42737   1.48850
 Alpha virt. eigenvalues --    1.54755   1.56454   1.56555   1.61459   1.66742
 Alpha virt. eigenvalues --    1.69693   1.77811   1.79815   1.84406   1.87814
 Alpha virt. eigenvalues --    1.90059   1.98027   1.99564   2.02839   2.07149
 Alpha virt. eigenvalues --    2.10692   2.20675   2.26345   2.28268   2.31964
 Alpha virt. eigenvalues --    2.34109   2.39362   2.44456   2.50268   2.57790
 Alpha virt. eigenvalues --    2.61413   2.78986   2.82578   2.85711   3.04081
 Alpha virt. eigenvalues --    3.16374   4.05710   4.16757   4.25039   4.31943
 Alpha virt. eigenvalues --    4.40710   4.56019
          Condensed to atoms (all electrons):
               1          2          3          4          5          6
     1  C    5.441497  -0.119063   0.150110   0.191021  -0.136314  -0.057932
     2  C   -0.119063   6.654011  -0.391148  -0.025225  -0.020762   0.026299
     3  C    0.150110  -0.391148   5.396649  -0.039751   0.008281   0.258733
     4  O    0.191021  -0.025225  -0.039751   7.944982   0.197301   0.000154
     5  O   -0.136314  -0.020762   0.008281   0.197301   8.067380  -0.113983
     6  O   -0.057932   0.026299   0.258733   0.000154  -0.113983   8.328700
     7  H    0.133267  -0.213394   0.267024  -0.081051   0.133036  -0.150403
     8  H    0.413325  -0.094415   0.021211  -0.048410  -0.010232  -0.001882
     9  H    0.398882  -0.046658  -0.005859  -0.037896   0.010481  -0.000431
    10  H    0.011632  -0.181662   0.455892  -0.002222   0.005404  -0.066793
    11  H   -0.030548   0.358430  -0.044758   0.002053   0.009836   0.003155
    12  H   -0.008759   0.337362  -0.005916   0.005915  -0.017741  -0.005146
               7          8          9         10         11         12
     1  C    0.133267   0.413325   0.398882   0.011632  -0.030548  -0.008759
     2  C   -0.213394  -0.094415  -0.046658  -0.181662   0.358430   0.337362
     3  C    0.267024   0.021211  -0.005859   0.455892  -0.044758  -0.005916
     4  O   -0.081051  -0.048410  -0.037896  -0.002222   0.002053   0.005915
     5  O    0.133036  -0.010232   0.010481   0.005404   0.009836  -0.017741
     6  O   -0.150403  -0.001882  -0.000431  -0.066793   0.003155  -0.005146
     7  H    0.749764   0.019072  -0.000401  -0.005793  -0.001657   0.004743
     8  H    0.019072   0.524986  -0.037501   0.000378  -0.002555   0.004045
     9  H   -0.000401  -0.037501   0.502932  -0.000141   0.000021  -0.005128
    10  H   -0.005793   0.000378  -0.000141   0.617258   0.000152   0.002707
    11  H   -0.001657  -0.002555   0.000021   0.000152   0.527920  -0.029954
    12  H    0.004743   0.004045  -0.005128   0.002707  -0.029954   0.467047
 Mulliken charges:
               1
     1  C   -0.387116
     2  C   -0.283775
     3  C   -0.070468
     4  O   -0.106872
     5  O   -0.132686
     6  O   -0.220470
     7  H    0.145792
     8  H    0.211977
     9  H    0.221700
    10  H    0.163190
    11  H    0.207905
    12  H    0.250825
 Sum of Mulliken charges =  -0.00000
 Mulliken charges with hydrogens summed into heavy atoms:
               1
     1  C    0.046560
     2  C    0.174954
     3  C    0.238514
     4  O   -0.106872
     5  O   -0.132686
     6  O   -0.220470
 APT charges:
               1
     1  C    0.276123
     2  C   -0.063431
     3  C    0.824762
     4  O   -0.512969
     5  O    0.182679
     6  O   -0.641953
     7  H   -0.013167
     8  H   -0.012745
     9  H    0.015670
    10  H   -0.072132
    11  H    0.004422
    12  H    0.012744
 Sum of APT charges =  -0.00000
 APT charges with hydrogens summed into heavy atoms:
               1
     1  C    0.279048
     2  C   -0.046266
     3  C    0.739462
     4  O   -0.512969
     5  O    0.182679
     6  O   -0.641953
 Electronic spatial extent (au):  <R**2>=            531.8477
 Charge=             -0.0000 electrons
 Dipole moment (field-independent basis, Debye):
    X=             -1.6341    Y=              4.6749    Z=              0.4916  Tot=              4.9766
 Quadrupole moment (field-independent basis, Debye-Ang):
   XX=            -39.6043   YY=            -37.5655   ZZ=            -34.6554
   XY=              0.3207   XZ=              0.5488   YZ=             -0.4256
 Traceless Quadrupole moment (field-independent basis, Debye-Ang):
   XX=             -2.3292   YY=             -0.2904   ZZ=              2.6197
   XY=              0.3207   XZ=              0.5488   YZ=             -0.4256
 Octapole moment (field-independent basis, Debye-Ang**2):
  XXX=            -13.1653  YYY=             -1.4001  ZZZ=             -3.4373  XYY=             -0.6358
  XXY=              8.5555  XXZ=             -0.8448  XZZ=             -0.7962  YZZ=             -2.1890
  YYZ=             -0.7183  XYZ=             -0.1195
 Hexadecapole moment (field-independent basis, Debye-Ang**3):
 XXXX=           -399.4198 YYYY=           -222.9408 ZZZZ=            -71.4419 XXXY=              3.8503
 XXXZ=              1.8674 YYYX=              0.3562 YYYZ=              1.9992 ZZZX=             -2.3879
 ZZZY=             -0.2859 XXYY=           -100.3200 XXZZ=            -73.8957 YYZZ=            -49.1923
 XXYZ=              0.5321 YYXZ=              0.6813 ZZXY=             -0.5959
 N-N= 2.537009661486D+02 E-N=-1.311629983110D+03  KE= 3.404276748007D+02
  Exact polarizability:  78.862   2.006  56.026   5.626   3.379  48.251
 Approx polarizability: 184.246  23.875  94.320  41.247  25.797  96.879
 Calling FoFJK, ICntrl=    100127 FMM=F ISym2X=0 I1Cent= 0 IOpClX= 0 NMat=1 NMatS=1 NMatT=0.
 ***** Axes restored to original set *****
 -------------------------------------------------------------------
 Center     Atomic                   Forces (Hartrees/Bohr)
 Number     Number              X              Y              Z
 -------------------------------------------------------------------
      1        6           0.002289853   -0.006647982    0.007261898
      2        6           0.005674791    0.012826124   -0.015278833
      3        6          -0.012443071   -0.020347408    0.021148148
      4        8          -0.039789137    0.008855893   -0.034251453
      5        8           0.051849073    0.006592200   -0.016675140
      6        8           0.000654236   -0.023967951    0.029791065
      7        1          -0.017525874    0.021862592    0.013174877
      8        1           0.002107264   -0.001344035    0.000426604
      9        1          -0.000376661    0.001810639   -0.001953505
     10        1           0.014418203    0.005423477   -0.005593620
     11        1          -0.001723480   -0.007167046    0.002343264
     12        1          -0.005135199    0.002103496   -0.000393302
 -------------------------------------------------------------------
 Cartesian Forces:  Max     0.051849073 RMS     0.016821913
 FormGI is forming the generalized inverse of G from B-inverse, IUseBI=4.

 GradGradGradGradGradGradGradGradGradGradGradGradGradGradGradGradGradGrad
 Berny optimization.
 Internal  Forces:  Max     0.134141340 RMS     0.036932282
 Search for a saddle point.
 Step number   1 out of a maximum of  100
 All quantities printed in internal units (Hartrees-Bohrs-Radians)
 Swapping is turned off.
 Second derivative matrix not updated -- analytic derivatives used.
 ITU=  0
     Eigenvalues ---   -0.44084  -0.03463  -0.01304   0.00371   0.00938
     Eigenvalues ---    0.03559   0.04441   0.04665   0.05221   0.06095
     Eigenvalues ---    0.06807   0.08391   0.09537   0.10581   0.13460
     Eigenvalues ---    0.17298   0.21803   0.23494   0.25938   0.27504
     Eigenvalues ---    0.28054   0.29863   0.32326   0.34901   0.35133
     Eigenvalues ---    0.35597   0.45433   0.71204   0.88081   2.46802
 Eigenvectors required to have negative eigenvalues:
                          D10       D14       D12       D1        D11
   1                    0.31038   0.30137   0.27488   0.26972   0.26611
                          D20       D17       A18       D3        A19
   1                    0.25761   0.25696   0.21858   0.18910  -0.17650
 RFO step:  Lambda0=2.763008447D-02 Lambda=-5.32043619D-02.
 Linear search not attempted -- option 19 set.
 Maximum step size (   0.300) exceeded in Quadratic search.
    -- Step size scaled by   0.422
 Iteration  1 RMS(Cart)=  0.06712061 RMS(Int)=  0.00400771
 Iteration  2 RMS(Cart)=  0.00412509 RMS(Int)=  0.00109698
 Iteration  3 RMS(Cart)=  0.00002004 RMS(Int)=  0.00109679
 Iteration  4 RMS(Cart)=  0.00000002 RMS(Int)=  0.00109679
 Variable       Old X    -DE/DX   Delta X   Delta X   Delta X     New X
                                 (Linear)    (Quad)   (Total)
    R1        2.93753   0.04551   0.00000  -0.02314  -0.02314   2.91439
    R2        2.70298   0.00854   0.00000   0.00981   0.00981   2.71278
    R3        2.09245   0.00204   0.00000   0.00257   0.00257   2.09502
    R4        2.06388   0.00137   0.00000   0.00102   0.00102   2.06490
    R5        2.94702   0.03083   0.00000   0.01612   0.01612   2.96314
    R6        2.05653   0.00612   0.00000   0.00771   0.00771   2.06424
    R7        2.05786   0.00482   0.00000   0.00450   0.00450   2.06236
    R8        2.33240   0.00288   0.00000   0.02581   0.02581   2.35822
    R9        3.08649  -0.00549   0.00000  -0.19594  -0.19594   2.89055
   R10        2.11369  -0.00288   0.00000  -0.00813  -0.00813   2.10555
   R11        2.50425  -0.01224   0.00000  -0.02367  -0.02367   2.48058
    A1        1.95669   0.13414   0.00000   0.03086   0.03086   1.98754
    A2        1.90171  -0.00399   0.00000  -0.00185  -0.00175   1.89996
    A3        1.96548  -0.05483   0.00000   0.00596   0.00602   1.97150
    A4        1.81619  -0.05221   0.00000  -0.01754  -0.01760   1.79859
    A5        1.91870  -0.03711   0.00000  -0.02296  -0.02313   1.89557
    A6        1.89823   0.01226   0.00000   0.00336   0.00320   1.90143
    A7        2.04862   0.13170   0.00000  -0.00772  -0.00780   2.04083
    A8        1.81014  -0.05299   0.00000  -0.01305  -0.01310   1.79704
    A9        1.97315  -0.02084   0.00000   0.00922   0.00921   1.98236
   A10        1.85667  -0.02283   0.00000  -0.00146  -0.00159   1.85508
   A11        1.86358  -0.05631   0.00000   0.01618   0.01615   1.87973
   A12        1.90440   0.01820   0.00000  -0.00535  -0.00531   1.89910
   A13        2.26317   0.03373   0.00000  -0.06332  -0.06351   2.19966
   A14        1.58086   0.00001   0.00000   0.04688   0.05027   1.63112
   A15        1.86555  -0.00413   0.00000   0.03185   0.03088   1.89644
   A16        1.51064  -0.00653   0.00000   0.12674   0.13239   1.64303
   A17        2.03261  -0.02445   0.00000  -0.00658  -0.00772   2.02489
   A18        2.14903   0.01032   0.00000  -0.14864  -0.14858   2.00045
   A19        1.84282   0.04178   0.00000   0.02483   0.02483   1.86765
    D1       -0.88757   0.00708   0.00000  -0.01817  -0.01810  -0.90566
    D2       -2.92877   0.00219   0.00000  -0.00300  -0.00301  -2.93177
    D3        1.29414   0.02331   0.00000   0.00674   0.00680   1.30095
    D4        1.11320   0.01677   0.00000  -0.02325  -0.02320   1.08999
    D5       -0.92801   0.01188   0.00000  -0.00808  -0.00811  -0.93612
    D6       -2.98828   0.03301   0.00000   0.00167   0.00170  -2.98658
    D7       -3.06227  -0.00602   0.00000  -0.01642  -0.01645  -3.07872
    D8        1.17971  -0.01090   0.00000  -0.00126  -0.00136   1.17835
    D9       -0.88056   0.01022   0.00000   0.00849   0.00845  -0.87211
   D10        0.12242   0.05131   0.00000   0.03194   0.03199   0.15440
   D11       -1.93007   0.02042   0.00000   0.02921   0.02947  -1.90060
   D12        2.32281   0.05084   0.00000   0.04513   0.04483   2.36764
   D13        1.42281   0.02727   0.00000   0.14548   0.14378   1.56659
   D14       -0.07816   0.03736   0.00000  -0.06127  -0.05978  -0.13794
   D15       -2.26066   0.02725   0.00000   0.07275   0.07296  -2.18770
   D16       -2.84457   0.01943   0.00000   0.12353   0.12184  -2.72273
   D17        1.93765   0.02952   0.00000  -0.08322  -0.08172   1.85593
   D18       -0.24485   0.01941   0.00000   0.05081   0.05102  -0.19383
   D19       -0.81251   0.00240   0.00000   0.12442   0.12272  -0.68980
   D20       -2.31348   0.01249   0.00000  -0.08233  -0.08084  -2.39432
   D21        1.78721   0.00238   0.00000   0.05169   0.05190   1.83910
         Item               Value     Threshold  Converged?
 Maximum Force            0.134141     0.000450     NO 
 RMS     Force            0.036932     0.000300     NO 
 Maximum Displacement     0.240341     0.001800     NO 
 RMS     Displacement     0.066757     0.001200     NO 
 Predicted change in Energy=-1.223538D-02
 GradGradGradGradGradGradGradGradGradGradGradGradGradGradGradGradGradGrad

                          Input orientation:                          
 ---------------------------------------------------------------------
 Center     Atomic      Atomic             Coordinates (Angstroms)
 Number     Number       Type             X           Y           Z
 ---------------------------------------------------------------------
      1          6           0        0.737421    1.492367   -2.755891
      2          6           0        0.506737    0.712175   -1.445717
      3          6           0        1.585873    0.879009   -0.320400
      4          8           0        0.985949    2.892896   -2.562146
      5          8           0        1.133980    3.081673   -1.271585
      6          8           0        1.579988    1.743051    0.579983
      7          1           0        2.538572    1.665739   -1.222142
      8          1           0        1.675523    1.134281   -3.225800
      9          1           0       -0.082408    1.379158   -3.469369
     10          1           0        1.953159   -0.130946   -0.026196
     11          1           0        0.559422   -0.330026   -1.768624
     12          1           0       -0.471501    0.892426   -0.996702
 ---------------------------------------------------------------------
                    Distance matrix (angstroms):
                    1          2          3          4          5
     1  C    0.000000
     2  C    1.542230   0.000000
     3  C    2.650980   1.568027   0.000000
     4  O    1.435543   2.496318   3.072633   0.000000
     5  O    2.210501   2.457291   2.441452   1.312668   0.000000
     6  O    3.449756   2.513570   1.247915   3.398235   2.327904
     7  H    2.372043   2.255577   1.529613   2.390013   1.995042
     8  H    1.108636   2.170929   2.917970   2.002168   2.811505
     9  H    1.092697   2.210685   3.598516   2.062969   3.034536
    10  H    3.400647   2.195001   1.114210   4.063269   3.541605
    11  H    2.080264   1.092350   2.147726   3.346465   3.495262
    12  H    2.217244   1.091354   2.165722   2.928593   2.728723
                    6          7          8          9         10
     6  O    0.000000
     7  H    2.042673   0.000000
     8  H    3.855349   2.245428   0.000000
     9  H    4.392406   3.464346   1.791539   0.000000
    10  H    2.004638   2.236307   3.451861   4.275440   0.000000
    11  H    3.294717   2.863348   2.348029   2.495153   2.240132
    12  H    2.723620   3.115987   3.104366   2.549977   2.805022
                   11         12
    11  H    0.000000
    12  H    1.775684   0.000000
 Stoichiometry    C3H6O3
 Framework group  C1[X(C3H6O3)]
 Deg. of freedom    30
 Full point group                 C1      NOp   1
 Largest Abelian subgroup         C1      NOp   1
 Largest concise Abelian subgroup C1      NOp   1
                         Standard orientation:                         
 ---------------------------------------------------------------------
 Center     Atomic      Atomic             Coordinates (Angstroms)
 Number     Number       Type             X           Y           Z
 ---------------------------------------------------------------------
      1          6           0       -1.292322    0.743909    0.120107
      2          6           0        0.112237    1.153480   -0.367682
      3          6           0        1.333834    0.426523    0.294091
      4          8           0       -1.528462   -0.671731    0.088731
      5          8           0       -0.379540   -1.246795   -0.180298
      6          8           0        1.863943   -0.630052   -0.105815
      7          1           0        0.467485   -0.274359    1.341908
      8          1           0       -1.383149    0.989065    1.197476
      9          1           0       -2.095828    1.243628   -0.426377
     10          1           0        2.027051    1.196221    0.704554
     11          1           0        0.179976    2.201544   -0.067347
     12          1           0        0.234441    1.089048   -1.450257
 ---------------------------------------------------------------------
 Rotational constants (GHZ):           6.1185675           3.2127750           2.2919055
 Standard basis: 6-31+G(d) (6D, 7F)
 There are   126 symmetry adapted cartesian basis functions of A   symmetry.
 There are   126 symmetry adapted basis functions of A   symmetry.
   126 basis functions,   216 primitive gaussians,   126 cartesian basis functions
    24 alpha electrons       24 beta electrons
       nuclear repulsion energy       251.4489750892 Hartrees.
 NAtoms=   12 NActive=   12 NUniq=   12 SFac= 1.00D+00 NAtFMM=   60 NAOKFM=F Big=F
 Integral buffers will be    131072 words long.
 Raffenetti 2 integral format.
 Two-electron integral symmetry is turned on.
 One-electron integrals computed using PRISM.
 NBasis=   126 RedAO= T EigKep=  1.32D-04  NBF=   126
 NBsUse=   126 1.00D-06 EigRej= -1.00D+00 NBFU=   126
 Initial guess from the checkpoint file:  "/scratch/bell/zhao922/YARP/paper-example/KHP-network/pp_0/TS-folder/Gau-106854.chk"
 B after Tr=     0.000000    0.000000    0.000000
         Rot=    0.999811    0.005376   -0.001242    0.018619 Ang=   2.23 deg.
 ExpMin= 4.38D-02 ExpMax= 5.48D+03 ExpMxC= 8.25D+02 IAcc=3 IRadAn=         5 AccDes= 0.00D+00
 Harris functional with IExCor=  402 and IRadAn=       5 diagonalized for initial guess.
 HarFok:  IExCor=  402 AccDes= 0.00D+00 IRadAn=         5 IDoV= 1 UseB2=F ITyADJ=14
 ICtDFT=  3500011 ScaDFX=  1.000000  1.000000  1.000000  1.000000
 FoFCou: FMM=F IPFlag=           0 FMFlag=      100000 FMFlg1=           0
         NFxFlg=           0 DoJE=T BraDBF=F KetDBF=T FulRan=T
         wScrn=  0.000000 ICntrl=       500 IOpCl=  0 I1Cent=   200000004 NGrid=           0
         NMat0=    1 NMatS0=      1 NMatT0=    0 NMatD0=    1 NMtDS0=    0 NMtDT0=    0
 Petite list used in FoFCou.
 Keep R1 ints in memory in canonical form, NReq=47237537.
 Requested convergence on RMS density matrix=1.00D-08 within 128 cycles.
 Requested convergence on MAX density matrix=1.00D-06.
 Requested convergence on             energy=1.00D-06.
 No special actions if energy rises.
 SCF Done:  E(RB3LYP) =  -343.293206413     A.U. after   17 cycles
            NFock= 17  Conv=0.28D-08     -V/T= 2.0087
 DoSCS=F DFT=T ScalE2(SS,OS)=  1.000000  1.000000
 Range of M.O.s used for correlation:     1   126
 NBasis=   126 NAE=    24 NBE=    24 NFC=     0 NFV=     0
 NROrb=    126 NOA=    24 NOB=    24 NVA=   102 NVB=   102

 **** Warning!!: The largest alpha MO coefficient is  0.28935915D+02


 **** Warning!!: The smallest alpha delta epsilon is  0.67680015D-01

 Symmetrizing basis deriv contribution to polar:
 IMax=3 JMax=2 DiffMx= 0.00D+00
 G2DrvN: will do    13 centers at a time, making    1 passes.
 Calling FoFCou, ICntrl=  3107 FMM=F I1Cent=   0 AccDes= 0.00D+00.
 End of G2Drv F.D. properties file   721 does not exist.
 End of G2Drv F.D. properties file   722 does not exist.
 End of G2Drv F.D. properties file   788 does not exist.
          IDoAtm=111111111111
          Differentiating once with respect to electric field.
                with respect to dipole field.
          Differentiating once with respect to nuclear coordinates.
 Keep R1 ints in memory in canonical form, NReq=47193552.
          There are    39 degrees of freedom in the 1st order CPHF.  IDoFFX=6 NUNeed=     3.
     36 vectors produced by pass  0 Test12= 6.28D-15 2.56D-09 XBig12= 7.44D+02 2.62D+01.
 AX will form    36 AO Fock derivatives at one time.
     36 vectors produced by pass  1 Test12= 6.28D-15 2.56D-09 XBig12= 6.80D+02 5.31D+00.
     36 vectors produced by pass  2 Test12= 6.28D-15 2.56D-09 XBig12= 7.57D+00 4.10D-01.
     36 vectors produced by pass  3 Test12= 6.28D-15 2.56D-09 XBig12= 3.80D-02 3.21D-02.
     36 vectors produced by pass  4 Test12= 6.28D-15 2.56D-09 XBig12= 5.90D-05 1.19D-03.
     27 vectors produced by pass  5 Test12= 6.28D-15 2.56D-09 XBig12= 5.81D-08 3.63D-05.
      4 vectors produced by pass  6 Test12= 6.28D-15 2.56D-09 XBig12= 4.41D-11 7.45D-07.
      2 vectors produced by pass  7 Test12= 6.28D-15 2.56D-09 XBig12= 3.49D-14 2.19D-08.
 InvSVY:  IOpt=1 It=  1 EMax= 3.55D-15
 Solved reduced A of dimension   213 with    39 vectors.
 Isotropic polarizability for W=    0.000000       63.58 Bohr**3.
 End of Minotr F.D. properties file   721 does not exist.
 End of Minotr F.D. properties file   722 does not exist.
 End of Minotr F.D. properties file   788 does not exist.
 Calling FoFJK, ICntrl=    100127 FMM=F ISym2X=0 I1Cent= 0 IOpClX= 0 NMat=1 NMatS=1 NMatT=0.
 ***** Axes restored to original set *****
 -------------------------------------------------------------------
 Center     Atomic                   Forces (Hartrees/Bohr)
 Number     Number              X              Y              Z
 -------------------------------------------------------------------
      1        6           0.003634304   -0.007445654    0.004327850
      2        6           0.001960066    0.009673904   -0.007564938
      3        6          -0.001857645   -0.002545039    0.002610305
      4        8          -0.030435552    0.005717434   -0.020058138
      5        8           0.038814906    0.004331447   -0.011913348
      6        8          -0.004751854   -0.018850401    0.024419299
      7        1          -0.016823158    0.007154605    0.015140509
      8        1           0.001037431   -0.000913644    0.000016146
      9        1           0.000286774    0.001537590   -0.001805005
     10        1           0.013724976    0.004646081   -0.006783377
     11        1          -0.001938379   -0.005502801    0.003041233
     12        1          -0.003651870    0.002196478   -0.001430537
 -------------------------------------------------------------------
 Cartesian Forces:  Max     0.038814906 RMS     0.011963076
 FormGI is forming the generalized inverse of G from B-inverse, IUseBI=4.

 GradGradGradGradGradGradGradGradGradGradGradGradGradGradGradGradGradGrad
 Berny optimization.
 Internal  Forces:  Max     0.087369251 RMS     0.024413417
 Search for a saddle point.
 Step number   2 out of a maximum of  100
 All quantities printed in internal units (Hartrees-Bohrs-Radians)
 Swapping is turned off.
 Second derivative matrix not updated -- analytic derivatives used.
 ITU=  0  0
     Eigenvalues ---   -0.27724  -0.03499  -0.00774   0.00248   0.01191
     Eigenvalues ---    0.03594   0.04480   0.04888   0.05068   0.05893
     Eigenvalues ---    0.06620   0.08438   0.09709   0.10484   0.12569
     Eigenvalues ---    0.16738   0.21152   0.23484   0.24264   0.24901
     Eigenvalues ---    0.27906   0.29409   0.31879   0.34375   0.34768
     Eigenvalues ---    0.35071   0.43184   0.66265   0.68525   1.90554
 Eigenvectors required to have negative eigenvalues:
                          D10       D12       D1        D11       D14
   1                    0.31191   0.29020   0.28885   0.28787   0.26501
                          D20       D17       R9        D3        D4
   1                    0.23920   0.23222   0.21573   0.19654   0.18685
 RFO step:  Lambda0=1.531766728D-02 Lambda=-5.90693189D-02.
 Linear search not attempted -- option 19 set.
 Maximum step size (   0.300) exceeded in Quadratic search.
    -- Step size scaled by   0.393
 Iteration  1 RMS(Cart)=  0.05538017 RMS(Int)=  0.00716756
 Iteration  2 RMS(Cart)=  0.00674737 RMS(Int)=  0.00064687
 Iteration  3 RMS(Cart)=  0.00003230 RMS(Int)=  0.00064646
 Iteration  4 RMS(Cart)=  0.00000005 RMS(Int)=  0.00064646
 Variable       Old X    -DE/DX   Delta X   Delta X   Delta X     New X
                                 (Linear)    (Quad)   (Total)
    R1        2.91439   0.02863   0.00000  -0.01755  -0.01755   2.89685
    R2        2.71278   0.00694   0.00000   0.00986   0.00986   2.72264
    R3        2.09502   0.00117   0.00000   0.00018   0.00018   2.09520
    R4        2.06490   0.00080   0.00000   0.00043   0.00043   2.06533
    R5        2.96314   0.01769   0.00000  -0.00216  -0.00216   2.96098
    R6        2.06424   0.00426   0.00000   0.00637   0.00637   2.07061
    R7        2.06236   0.00305   0.00000   0.00262   0.00262   2.06498
    R8        2.35822   0.00459   0.00000   0.03629   0.03629   2.39451
    R9        2.89055  -0.01572   0.00000  -0.24179  -0.24179   2.64876
   R10        2.10555  -0.00148   0.00000  -0.00383  -0.00383   2.10173
   R11        2.48058  -0.00671   0.00000  -0.01187  -0.01187   2.46871
    A1        1.98754   0.08737   0.00000   0.02570   0.02568   2.01323
    A2        1.89996  -0.00068   0.00000   0.00409   0.00405   1.90401
    A3        1.97150  -0.03628   0.00000  -0.00209  -0.00200   1.96950
    A4        1.79859  -0.03579   0.00000  -0.00749  -0.00765   1.79094
    A5        1.89557  -0.02353   0.00000  -0.02111  -0.02111   1.87446
    A6        1.90143   0.00737   0.00000  -0.00010  -0.00017   1.90126
    A7        2.04083   0.08337   0.00000  -0.01328  -0.01329   2.02753
    A8        1.79704  -0.03457   0.00000  -0.00850  -0.00852   1.78852
    A9        1.98236  -0.01294   0.00000   0.00752   0.00756   1.98992
   A10        1.85508  -0.01221   0.00000   0.00339   0.00326   1.85834
   A11        1.87973  -0.03728   0.00000   0.01546   0.01547   1.89520
   A12        1.89910   0.01146   0.00000  -0.00633  -0.00634   1.89276
   A13        2.19966   0.01588   0.00000  -0.05981  -0.05979   2.13987
   A14        1.63112   0.00202   0.00000   0.06128   0.06292   1.69404
   A15        1.89644   0.00024   0.00000   0.02938   0.02843   1.92486
   A16        1.64303  -0.00267   0.00000   0.08770   0.09087   1.73390
   A17        2.02489  -0.01462   0.00000  -0.01003  -0.01106   2.01383
   A18        2.00045   0.00190   0.00000  -0.10295  -0.10337   1.89708
   A19        1.86765   0.02932   0.00000   0.02693   0.02693   1.89458
    D1       -0.90566   0.00683   0.00000  -0.03616  -0.03616  -0.94182
    D2       -2.93177   0.00319   0.00000  -0.02786  -0.02793  -2.95970
    D3        1.30095   0.01695   0.00000  -0.01876  -0.01878   1.28216
    D4        1.08999   0.01242   0.00000  -0.02800  -0.02793   1.06206
    D5       -0.93612   0.00879   0.00000  -0.01971  -0.01970  -0.95582
    D6       -2.98658   0.02254   0.00000  -0.01061  -0.01056  -2.99714
    D7       -3.07872  -0.00248   0.00000  -0.02663  -0.02661  -3.10534
    D8        1.17835  -0.00612   0.00000  -0.01833  -0.01839   1.15997
    D9       -0.87211   0.00764   0.00000  -0.00924  -0.00924  -0.88135
   D10        0.15440   0.03763   0.00000   0.05812   0.05817   0.21258
   D11       -1.90060   0.01748   0.00000   0.04516   0.04526  -1.85534
   D12        2.36764   0.03623   0.00000   0.05769   0.05754   2.42518
   D13        1.56659   0.02399   0.00000   0.10663   0.10558   1.67217
   D14       -0.13794   0.02330   0.00000  -0.03867  -0.03768  -0.17562
   D15       -2.18770   0.02035   0.00000   0.04045   0.04051  -2.14718
   D16       -2.72273   0.01819   0.00000   0.09107   0.09000  -2.63273
   D17        1.85593   0.01750   0.00000  -0.05424  -0.05326   1.80266
   D18       -0.19383   0.01455   0.00000   0.02489   0.02493  -0.16890
   D19       -0.68980   0.00721   0.00000   0.09296   0.09193  -0.59787
   D20       -2.39432   0.00652   0.00000  -0.05235  -0.05134  -2.44566
   D21        1.83910   0.00357   0.00000   0.02678   0.02686   1.86596
         Item               Value     Threshold  Converged?
 Maximum Force            0.087369     0.000450     NO 
 RMS     Force            0.024413     0.000300     NO 
 Maximum Displacement     0.208197     0.001800     NO 
 RMS     Displacement     0.057535     0.001200     NO 
 Predicted change in Energy=-1.420610D-02
 GradGradGradGradGradGradGradGradGradGradGradGradGradGradGradGradGradGrad

                          Input orientation:                          
 ---------------------------------------------------------------------
 Center     Atomic      Atomic             Coordinates (Angstroms)
 Number     Number       Type             X           Y           Z
 ---------------------------------------------------------------------
      1          6           0        0.727965    1.493144   -2.746245
      2          6           0        0.505215    0.718079   -1.442566
      3          6           0        1.608769    0.884185   -0.342705
      4          8           0        0.951299    2.908127   -2.592169
      5          8           0        1.167106    3.159677   -1.328527
      6          8           0        1.508175    1.719483    0.604791
      7          1           0        2.546406    1.555566   -1.139416
      8          1           0        1.671343    1.148889   -3.216151
      9          1           0       -0.090224    1.367223   -3.459827
     10          1           0        2.025278   -0.107962   -0.061424
     11          1           0        0.553211   -0.324586   -1.775950
     12          1           0       -0.471827    0.889978   -0.984398
 ---------------------------------------------------------------------
                    Distance matrix (angstroms):
                    1          2          3          4          5
     1  C    0.000000
     2  C    1.532945   0.000000
     3  C    2.631283   1.566881   0.000000
     4  O    1.440761   2.513341   3.096561   0.000000
     5  O    2.231614   2.532292   2.518883   1.306385   0.000000
     6  O    3.448101   2.490062   1.267119   3.455942   2.434791
     7  H    2.427452   2.227048   1.401665   2.546424   2.124006
     8  H    1.108731   2.165884   2.886290   2.000683   2.803684
     9  H    1.092927   2.201199   3.582785   2.052312   3.055521
    10  H    3.384498   2.213705   1.112185   4.081041   3.608251
    11  H    2.067887   1.095719   2.151632   3.357845   3.566110
    12  H    2.215269   1.092739   2.177311   2.946717   2.820649
                    6          7          8          9         10
     6  O    0.000000
     7  H    2.036431   0.000000
     8  H    3.866755   2.289966   0.000000
     9  H    4.381790   3.517328   1.791694   0.000000
    10  H    2.012658   2.049626   3.414271   4.266224   0.000000
    11  H    3.279954   2.813000   2.344254   2.472179   2.270133
    12  H    2.670957   3.094635   3.104985   2.549732   2.843115
                   11         12
    11  H    0.000000
    12  H    1.775507   0.000000
 Stoichiometry    C3H6O3
 Framework group  C1[X(C3H6O3)]
 Deg. of freedom    30
 Full point group                 C1      NOp   1
 Largest Abelian subgroup         C1      NOp   1
 Largest concise Abelian subgroup C1      NOp   1
                         Standard orientation:                         
 ---------------------------------------------------------------------
 Center     Atomic      Atomic             Coordinates (Angstroms)
 Number     Number       Type             X           Y           Z
 ---------------------------------------------------------------------
      1          6           0       -1.242427    0.795894    0.105087
      2          6           0        0.171954    1.144301   -0.372470
      3          6           0        1.346184    0.381130    0.330288
      4          8           0       -1.577660   -0.604892    0.070313
      5          8           0       -0.482659   -1.289551   -0.126805
      6          8           0        1.870221   -0.664101   -0.158042
      7          1           0        0.585133   -0.202161    1.352657
      8          1           0       -1.331509    1.039476    1.183056
      9          1           0       -2.020046    1.331783   -0.445023
     10          1           0        2.058807    1.104167    0.784537
     11          1           0        0.267344    2.196512   -0.082036
     12          1           0        0.306794    1.070628   -1.454353
 ---------------------------------------------------------------------
 Rotational constants (GHZ):           5.9969612           3.1421762           2.2454688
 Standard basis: 6-31+G(d) (6D, 7F)
 There are   126 symmetry adapted cartesian basis functions of A   symmetry.
 There are   126 symmetry adapted basis functions of A   symmetry.
   126 basis functions,   216 primitive gaussians,   126 cartesian basis functions
    24 alpha electrons       24 beta electrons
       nuclear repulsion energy       249.6566160009 Hartrees.
 NAtoms=   12 NActive=   12 NUniq=   12 SFac= 1.00D+00 NAtFMM=   60 NAOKFM=F Big=F
 Integral buffers will be    131072 words long.
 Raffenetti 2 integral format.
 Two-electron integral symmetry is turned on.
 One-electron integrals computed using PRISM.
 NBasis=   126 RedAO= T EigKep=  1.31D-04  NBF=   126
 NBsUse=   126 1.00D-06 EigRej= -1.00D+00 NBFU=   126
 Initial guess from the checkpoint file:  "/scratch/bell/zhao922/YARP/paper-example/KHP-network/pp_0/TS-folder/Gau-106854.chk"
 B after Tr=    -0.000000   -0.000000    0.000000
         Rot=    0.999804    0.003590   -0.001272    0.019415 Ang=   2.27 deg.
 ExpMin= 4.38D-02 ExpMax= 5.48D+03 ExpMxC= 8.25D+02 IAcc=3 IRadAn=         5 AccDes= 0.00D+00
 Harris functional with IExCor=  402 and IRadAn=       5 diagonalized for initial guess.
 HarFok:  IExCor=  402 AccDes= 0.00D+00 IRadAn=         5 IDoV= 1 UseB2=F ITyADJ=14
 ICtDFT=  3500011 ScaDFX=  1.000000  1.000000  1.000000  1.000000
 FoFCou: FMM=F IPFlag=           0 FMFlag=      100000 FMFlg1=           0
         NFxFlg=           0 DoJE=T BraDBF=F KetDBF=T FulRan=T
         wScrn=  0.000000 ICntrl=       500 IOpCl=  0 I1Cent=   200000004 NGrid=           0
         NMat0=    1 NMatS0=      1 NMatT0=    0 NMatD0=    1 NMtDS0=    0 NMtDT0=    0
 Petite list used in FoFCou.
 Keep R1 ints in memory in canonical form, NReq=47237537.
 Requested convergence on RMS density matrix=1.00D-08 within 128 cycles.
 Requested convergence on MAX density matrix=1.00D-06.
 Requested convergence on             energy=1.00D-06.
 No special actions if energy rises.
 SCF Done:  E(RB3LYP) =  -343.307325690     A.U. after   17 cycles
            NFock= 17  Conv=0.38D-08     -V/T= 2.0089
 DoSCS=F DFT=T ScalE2(SS,OS)=  1.000000  1.000000
 Range of M.O.s used for correlation:     1   126
 NBasis=   126 NAE=    24 NBE=    24 NFC=     0 NFV=     0
 NROrb=    126 NOA=    24 NOB=    24 NVA=   102 NVB=   102

 **** Warning!!: The largest alpha MO coefficient is  0.31926116D+02


 **** Warning!!: The smallest alpha delta epsilon is  0.57879878D-01

 Symmetrizing basis deriv contribution to polar:
 IMax=3 JMax=2 DiffMx= 0.00D+00
 G2DrvN: will do    13 centers at a time, making    1 passes.
 Calling FoFCou, ICntrl=  3107 FMM=F I1Cent=   0 AccDes= 0.00D+00.
 End of G2Drv F.D. properties file   721 does not exist.
 End of G2Drv F.D. properties file   722 does not exist.
 End of G2Drv F.D. properties file   788 does not exist.
          IDoAtm=111111111111
          Differentiating once with respect to electric field.
                with respect to dipole field.
          Differentiating once with respect to nuclear coordinates.
 Keep R1 ints in memory in canonical form, NReq=47193552.
          There are    39 degrees of freedom in the 1st order CPHF.  IDoFFX=6 NUNeed=     3.
     36 vectors produced by pass  0 Test12= 6.28D-15 2.56D-09 XBig12= 1.35D+03 3.54D+01.
 AX will form    36 AO Fock derivatives at one time.
     36 vectors produced by pass  1 Test12= 6.28D-15 2.56D-09 XBig12= 1.47D+03 7.08D+00.
     36 vectors produced by pass  2 Test12= 6.28D-15 2.56D-09 XBig12= 1.43D+01 6.93D-01.
     36 vectors produced by pass  3 Test12= 6.28D-15 2.56D-09 XBig12= 6.34D-02 3.11D-02.
     36 vectors produced by pass  4 Test12= 6.28D-15 2.56D-09 XBig12= 1.04D-04 1.61D-03.
     27 vectors produced by pass  5 Test12= 6.28D-15 2.56D-09 XBig12= 9.82D-08 4.72D-05.
      4 vectors produced by pass  6 Test12= 6.28D-15 2.56D-09 XBig12= 8.39D-11 1.26D-06.
      2 vectors produced by pass  7 Test12= 6.28D-15 2.56D-09 XBig12= 7.55D-14 3.32D-08.
 InvSVY:  IOpt=1 It=  1 EMax= 7.11D-15
 Solved reduced A of dimension   213 with    39 vectors.
 Isotropic polarizability for W=    0.000000       65.45 Bohr**3.
 End of Minotr F.D. properties file   721 does not exist.
 End of Minotr F.D. properties file   722 does not exist.
 End of Minotr F.D. properties file   788 does not exist.
 Calling FoFJK, ICntrl=    100127 FMM=F ISym2X=0 I1Cent= 0 IOpClX= 0 NMat=1 NMatS=1 NMatT=0.
 ***** Axes restored to original set *****
 -------------------------------------------------------------------
 Center     Atomic                   Forces (Hartrees/Bohr)
 Number     Number              X              Y              Z
 -------------------------------------------------------------------
      1        6           0.005049561   -0.007440487    0.002818203
      2        6           0.000773513    0.004626541   -0.002651564
      3        6           0.008850427    0.012128945   -0.014797452
      4        8          -0.025320247    0.003904239   -0.010575782
      5        8           0.030454829    0.003325553   -0.008353371
      6        8          -0.008688030   -0.015131012    0.021674468
      7        1          -0.018195688   -0.004132932    0.018204857
      8        1          -0.000006886   -0.000965414   -0.000336146
      9        1           0.000543182    0.001716380   -0.001662399
     10        1           0.011822681    0.003888817   -0.005408043
     11        1          -0.002611754   -0.004390659    0.002993569
     12        1          -0.002671588    0.002470028   -0.001906338
 -------------------------------------------------------------------
 Cartesian Forces:  Max     0.030454829 RMS     0.010587863
 FormGI is forming the generalized inverse of G from B-inverse, IUseBI=4.

 GradGradGradGradGradGradGradGradGradGradGradGradGradGradGradGradGradGrad
 Berny optimization.
 Internal  Forces:  Max     0.055432200 RMS     0.016504872
 Search for a saddle point.
 Step number   3 out of a maximum of  100
 All quantities printed in internal units (Hartrees-Bohrs-Radians)
 Swapping is turned off.
 Second derivative matrix not updated -- analytic derivatives used.
 ITU=  0  0  0
     Eigenvalues ---   -0.15452  -0.03723  -0.00551   0.00108   0.02134
     Eigenvalues ---    0.03534   0.04343   0.04828   0.05230   0.05793
     Eigenvalues ---    0.06834   0.08517   0.09717   0.10696   0.12040
     Eigenvalues ---    0.16038   0.19300   0.21937   0.24424   0.25103
     Eigenvalues ---    0.28016   0.29638   0.31782   0.33707   0.34646
     Eigenvalues ---    0.34835   0.38870   0.57117   0.60556   1.48054
 Eigenvectors required to have negative eigenvalues:
                          D1        D11       D12       D10       R9
   1                    0.30709   0.30137   0.29358   0.28992   0.28487
                          D14       D20       D17       D3        D2
   1                    0.23393   0.22981   0.21883   0.20468   0.20454
 RFO step:  Lambda0=8.178501541D-03 Lambda=-6.31362706D-02.
 Linear search not attempted -- option 19 set.
 Maximum step size (   0.300) exceeded in Quadratic search.
    -- Step size scaled by   0.417
 Iteration  1 RMS(Cart)=  0.06049796 RMS(Int)=  0.00667910
 Iteration  2 RMS(Cart)=  0.00666197 RMS(Int)=  0.00071309
 Iteration  3 RMS(Cart)=  0.00003855 RMS(Int)=  0.00071238
 Iteration  4 RMS(Cart)=  0.00000007 RMS(Int)=  0.00071238
 Variable       Old X    -DE/DX   Delta X   Delta X   Delta X     New X
                                 (Linear)    (Quad)   (Total)
    R1        2.89685   0.01723   0.00000  -0.01934  -0.01934   2.87750
    R2        2.72264   0.00587   0.00000   0.01383   0.01383   2.73647
    R3        2.09520   0.00044   0.00000  -0.00144  -0.00144   2.09375
    R4        2.06533   0.00048   0.00000  -0.00007  -0.00007   2.06526
    R5        2.96098   0.00909   0.00000  -0.02114  -0.02114   2.93984
    R6        2.07061   0.00315   0.00000   0.00601   0.00601   2.07662
    R7        2.06498   0.00198   0.00000   0.00220   0.00220   2.06718
    R8        2.39451   0.00692   0.00000   0.04539   0.04539   2.43990
    R9        2.64876  -0.02450   0.00000  -0.22756  -0.22756   2.42121
   R10        2.10173  -0.00041   0.00000   0.00020   0.00020   2.10192
   R11        2.46871  -0.00241   0.00000  -0.00510  -0.00510   2.46361
    A1        2.01323   0.05543   0.00000   0.02078   0.02067   2.03389
    A2        1.90401   0.00146   0.00000   0.01447   0.01431   1.91832
    A3        1.96950  -0.02396   0.00000  -0.01029  -0.01018   1.95933
    A4        1.79094  -0.02427   0.00000  -0.00086  -0.00121   1.78973
    A5        1.87446  -0.01414   0.00000  -0.02318  -0.02312   1.85134
    A6        1.90126   0.00412   0.00000  -0.00078  -0.00077   1.90049
    A7        2.02753   0.05195   0.00000  -0.01829  -0.01825   2.00928
    A8        1.78852  -0.02238   0.00000   0.00003   0.00016   1.78867
    A9        1.98992  -0.00798   0.00000   0.00089   0.00090   1.99083
   A10        1.85834  -0.00534   0.00000   0.01870   0.01869   1.87704
   A11        1.89520  -0.02459   0.00000   0.00833   0.00825   1.90345
   A12        1.89276   0.00698   0.00000  -0.00856  -0.00866   1.88410
   A13        2.13987   0.00397   0.00000  -0.07596  -0.07572   2.06415
   A14        1.69404   0.00611   0.00000   0.08405   0.08535   1.77939
   A15        1.92486   0.00299   0.00000   0.03868   0.03730   1.96216
   A16        1.73390   0.00123   0.00000   0.08328   0.08652   1.82042
   A17        2.01383  -0.00927   0.00000  -0.01662  -0.01800   1.99583
   A18        1.89708  -0.00333   0.00000  -0.09829  -0.09937   1.79771
   A19        1.89458   0.02047   0.00000   0.03020   0.03020   1.92478
    D1       -0.94182   0.00657   0.00000  -0.04834  -0.04844  -0.99026
    D2       -2.95970   0.00263   0.00000  -0.06226  -0.06237  -3.02207
    D3        1.28216   0.01179   0.00000  -0.05249  -0.05257   1.22959
    D4        1.06206   0.01030   0.00000  -0.02708  -0.02698   1.03508
    D5       -0.95582   0.00636   0.00000  -0.04100  -0.04091  -0.99673
    D6       -2.99714   0.01552   0.00000  -0.03123  -0.03111  -3.02825
    D7       -3.10534   0.00075   0.00000  -0.02470  -0.02471  -3.13005
    D8        1.15997  -0.00319   0.00000  -0.03863  -0.03865   1.12132
    D9       -0.88135   0.00597   0.00000  -0.02886  -0.02884  -0.91020
   D10        0.21258   0.02932   0.00000   0.13114   0.13119   0.34377
   D11       -1.85534   0.01520   0.00000   0.10344   0.10348  -1.75186
   D12        2.42518   0.02699   0.00000   0.11376   0.11368   2.53886
   D13        1.67217   0.02044   0.00000   0.06558   0.06444   1.73661
   D14       -0.17562   0.01342   0.00000  -0.07187  -0.07065  -0.24627
   D15       -2.14718   0.01346   0.00000  -0.01266  -0.01267  -2.15985
   D16       -2.63273   0.01700   0.00000   0.06824   0.06701  -2.56572
   D17        1.80266   0.00998   0.00000  -0.06920  -0.06807   1.73459
   D18       -0.16890   0.01002   0.00000  -0.00999  -0.01010  -0.17900
   D19       -0.59787   0.01008   0.00000   0.07221   0.07109  -0.52678
   D20       -2.44566   0.00306   0.00000  -0.06523  -0.06400  -2.50965
   D21        1.86596   0.00310   0.00000  -0.00603  -0.00602   1.85994
         Item               Value     Threshold  Converged?
 Maximum Force            0.055432     0.000450     NO 
 RMS     Force            0.016505     0.000300     NO 
 Maximum Displacement     0.230348     0.001800     NO 
 RMS     Displacement     0.061686     0.001200     NO 
 Predicted change in Energy=-1.677540D-02
 GradGradGradGradGradGradGradGradGradGradGradGradGradGradGradGradGradGrad

                          Input orientation:                          
 ---------------------------------------------------------------------
 Center     Atomic      Atomic             Coordinates (Angstroms)
 Number     Number       Type             X           Y           Z
 ---------------------------------------------------------------------
      1          6           0        0.720173    1.495272   -2.732942
      2          6           0        0.511255    0.713820   -1.442854
      3          6           0        1.630293    0.888331   -0.376326
      4          8           0        0.884504    2.928024   -2.601991
      5          8           0        1.232006    3.233509   -1.383171
      6          8           0        1.424803    1.712119    0.596396
      7          1           0        2.566245    1.433671   -1.060572
      8          1           0        1.670758    1.186751   -3.211265
      9          1           0       -0.097363    1.348118   -3.443142
     10          1           0        2.078188   -0.082172   -0.068588
     11          1           0        0.543022   -0.328708   -1.788840
     12          1           0       -0.461170    0.883067   -0.971294
 ---------------------------------------------------------------------
                    Distance matrix (angstroms):
                    1          2          3          4          5
     1  C    0.000000
     2  C    1.522709   0.000000
     3  C    2.598140   1.555694   0.000000
     4  O    1.448077   2.526977   3.109683   0.000000
     5  O    2.259495   2.621426   2.583065   1.303688   0.000000
     6  O    3.409988   2.447389   1.291139   3.464106   2.504093
     7  H    2.491706   2.210726   1.281247   2.727144   2.263555
     8  H    1.107967   2.166885   2.850890   2.005352   2.779145
     9  H    1.092888   2.184926   3.549868   2.041494   3.092798
    10  H    3.381023   2.231030   1.112290   4.111483   3.665773
    11  H    2.061460   1.098899   2.158364   3.374037   3.650843
    12  H    2.207661   1.093902   2.174450   2.941404   2.925929
                    6          7          8          9         10
     6  O    0.000000
     7  H    2.031248   0.000000
     8  H    3.851596   2.342722   0.000000
     9  H    4.332130   3.574740   1.790547   0.000000
    10  H    2.022027   1.876169   3.413589   4.262203   0.000000
    11  H    3.260653   2.780249   2.364677   2.441015   2.318789
    12  H    2.588797   3.078372   3.107219   2.541389   2.862674
                   11         12
    11  H    0.000000
    12  H    1.773466   0.000000
 Stoichiometry    C3H6O3
 Framework group  C1[X(C3H6O3)]
 Deg. of freedom    30
 Full point group                 C1      NOp   1
 Largest Abelian subgroup         C1      NOp   1
 Largest concise Abelian subgroup C1      NOp   1
                         Standard orientation:                         
 ---------------------------------------------------------------------
 Center     Atomic      Atomic             Coordinates (Angstroms)
 Number     Number       Type             X           Y           Z
 ---------------------------------------------------------------------
      1          6           0       -1.177905    0.850058    0.098983
      2          6           0        0.243929    1.141328   -0.361661
      3          6           0        1.353496    0.329754    0.366619
      4          8           0       -1.615001   -0.528029    0.016810
      5          8           0       -0.585702   -1.325492   -0.047989
      6          8           0        1.835837   -0.712438   -0.223485
      7          1           0        0.718631   -0.142530    1.374333
      8          1           0       -1.276648    1.069748    1.180452
      9          1           0       -1.919237    1.435903   -0.450213
     10          1           0        2.118645    0.985323    0.837752
     11          1           0        0.371184    2.197513   -0.086236
     12          1           0        0.389227    1.054874   -1.442419
 ---------------------------------------------------------------------
 Rotational constants (GHZ):           5.8460745           3.1273606           2.2243899
 Standard basis: 6-31+G(d) (6D, 7F)
 There are   126 symmetry adapted cartesian basis functions of A   symmetry.
 There are   126 symmetry adapted basis functions of A   symmetry.
   126 basis functions,   216 primitive gaussians,   126 cartesian basis functions
    24 alpha electrons       24 beta electrons
       nuclear repulsion energy       248.4939292531 Hartrees.
 NAtoms=   12 NActive=   12 NUniq=   12 SFac= 1.00D+00 NAtFMM=   60 NAOKFM=F Big=F
 Integral buffers will be    131072 words long.
 Raffenetti 2 integral format.
 Two-electron integral symmetry is turned on.
 One-electron integrals computed using PRISM.
 NBasis=   126 RedAO= T EigKep=  1.33D-04  NBF=   126
 NBsUse=   126 1.00D-06 EigRej= -1.00D+00 NBFU=   126
 Initial guess from the checkpoint file:  "/scratch/bell/zhao922/YARP/paper-example/KHP-network/pp_0/TS-folder/Gau-106854.chk"
 B after Tr=    -0.000000    0.000000    0.000000
         Rot=    0.999738    0.001080   -0.001455    0.022805 Ang=   2.62 deg.
 ExpMin= 4.38D-02 ExpMax= 5.48D+03 ExpMxC= 8.25D+02 IAcc=3 IRadAn=         5 AccDes= 0.00D+00
 Harris functional with IExCor=  402 and IRadAn=       5 diagonalized for initial guess.
 HarFok:  IExCor=  402 AccDes= 0.00D+00 IRadAn=         5 IDoV= 1 UseB2=F ITyADJ=14
 ICtDFT=  3500011 ScaDFX=  1.000000  1.000000  1.000000  1.000000
 FoFCou: FMM=F IPFlag=           0 FMFlag=      100000 FMFlg1=           0
         NFxFlg=           0 DoJE=T BraDBF=F KetDBF=T FulRan=T
         wScrn=  0.000000 ICntrl=       500 IOpCl=  0 I1Cent=   200000004 NGrid=           0
         NMat0=    1 NMatS0=      1 NMatT0=    0 NMatD0=    1 NMtDS0=    0 NMtDT0=    0
 Petite list used in FoFCou.
 Keep R1 ints in memory in canonical form, NReq=47237537.
 Requested convergence on RMS density matrix=1.00D-08 within 128 cycles.
 Requested convergence on MAX density matrix=1.00D-06.
 Requested convergence on             energy=1.00D-06.
 No special actions if energy rises.
 SCF Done:  E(RB3LYP) =  -343.323409576     A.U. after   18 cycles
            NFock= 18  Conv=0.69D-08     -V/T= 2.0090
 DoSCS=F DFT=T ScalE2(SS,OS)=  1.000000  1.000000
 Range of M.O.s used for correlation:     1   126
 NBasis=   126 NAE=    24 NBE=    24 NFC=     0 NFV=     0
 NROrb=    126 NOA=    24 NOB=    24 NVA=   102 NVB=   102

 **** Warning!!: The largest alpha MO coefficient is  0.30269751D+02


 **** Warning!!: The smallest alpha delta epsilon is  0.53786029D-01

 Symmetrizing basis deriv contribution to polar:
 IMax=3 JMax=2 DiffMx= 0.00D+00
 G2DrvN: will do    13 centers at a time, making    1 passes.
 Calling FoFCou, ICntrl=  3107 FMM=F I1Cent=   0 AccDes= 0.00D+00.
 End of G2Drv F.D. properties file   721 does not exist.
 End of G2Drv F.D. properties file   722 does not exist.
 End of G2Drv F.D. properties file   788 does not exist.
          IDoAtm=111111111111
          Differentiating once with respect to electric field.
                with respect to dipole field.
          Differentiating once with respect to nuclear coordinates.
 Keep R1 ints in memory in canonical form, NReq=47193552.
          There are    39 degrees of freedom in the 1st order CPHF.  IDoFFX=6 NUNeed=     3.
     36 vectors produced by pass  0 Test12= 6.28D-15 2.56D-09 XBig12= 1.93D+03 4.20D+01.
 AX will form    36 AO Fock derivatives at one time.
     36 vectors produced by pass  1 Test12= 6.28D-15 2.56D-09 XBig12= 2.34D+03 8.96D+00.
     36 vectors produced by pass  2 Test12= 6.28D-15 2.56D-09 XBig12= 1.98D+01 8.61D-01.
     36 vectors produced by pass  3 Test12= 6.28D-15 2.56D-09 XBig12= 8.47D-02 4.32D-02.
     36 vectors produced by pass  4 Test12= 6.28D-15 2.56D-09 XBig12= 1.26D-04 1.51D-03.
     29 vectors produced by pass  5 Test12= 6.28D-15 2.56D-09 XBig12= 1.07D-07 3.87D-05.
      4 vectors produced by pass  6 Test12= 6.28D-15 2.56D-09 XBig12= 1.07D-10 1.74D-06.
      3 vectors produced by pass  7 Test12= 6.28D-15 2.56D-09 XBig12= 1.00D-13 3.61D-08.
 InvSVY:  IOpt=1 It=  1 EMax= 2.13D-14
 Solved reduced A of dimension   216 with    39 vectors.
 Isotropic polarizability for W=    0.000000       66.31 Bohr**3.
 End of Minotr F.D. properties file   721 does not exist.
 End of Minotr F.D. properties file   722 does not exist.
 End of Minotr F.D. properties file   788 does not exist.
 Calling FoFJK, ICntrl=    100127 FMM=F ISym2X=0 I1Cent= 0 IOpClX= 0 NMat=1 NMatS=1 NMatT=0.
 ***** Axes restored to original set *****
 -------------------------------------------------------------------
 Center     Atomic                   Forces (Hartrees/Bohr)
 Number     Number              X              Y              Z
 -------------------------------------------------------------------
      1        6           0.007299829   -0.006261152    0.001266670
      2        6           0.001461939   -0.004439276   -0.001164168
      3        6           0.017095318    0.021992559   -0.026729018
      4        8          -0.023303217    0.002775037   -0.001779374
      5        8           0.024833523    0.002083497   -0.003749858
      6        8          -0.010940169   -0.008593289    0.017416116
      7        1          -0.017685499   -0.010811163    0.017272513
      8        1          -0.001170874   -0.001573344   -0.000207466
      9        1           0.000489971    0.002592682   -0.001615436
     10        1           0.006880932    0.002522143   -0.000978036
     11        1          -0.003486251   -0.002915539    0.001947474
     12        1          -0.001475503    0.002627845   -0.001679418
 -------------------------------------------------------------------
 Cartesian Forces:  Max     0.026729018 RMS     0.010705654
 FormGI is forming the generalized inverse of G from B-inverse, IUseBI=4.

 GradGradGradGradGradGradGradGradGradGradGradGradGradGradGradGradGradGrad
 Berny optimization.
 Internal  Forces:  Max     0.026745074 RMS     0.009616205
 Search for a saddle point.
 Step number   4 out of a maximum of  100
 All quantities printed in internal units (Hartrees-Bohrs-Radians)
 Swapping is turned off.
 Second derivative matrix not updated -- analytic derivatives used.
 ITU=  0  0  0  0
     Eigenvalues ---   -0.05270  -0.04571  -0.00030   0.00972   0.03264
     Eigenvalues ---    0.03860   0.04371   0.04612   0.05069   0.06919
     Eigenvalues ---    0.08482   0.08954   0.09836   0.11046   0.12998
     Eigenvalues ---    0.15244   0.19097   0.20308   0.25160   0.26417
     Eigenvalues ---    0.27900   0.29601   0.31886   0.33040   0.33233
     Eigenvalues ---    0.34598   0.34979   0.50927   0.54812   0.96349
 Eigenvectors required to have negative eigenvalues:
                          D14       R9        D15       D17       D20
   1                   -0.38201  -0.35778  -0.32872  -0.28813  -0.26827
                          D18       D2        D3        D21       A14
   1                   -0.23485  -0.21979  -0.21693  -0.21498   0.20796
 RFO step:  Lambda0=5.635083168D-05 Lambda=-6.61092182D-02.
 Linear search not attempted -- option 19 set.
 Maximum step size (   0.300) exceeded in Quadratic search.
    -- Step size scaled by   0.784
 Iteration  1 RMS(Cart)=  0.14351579 RMS(Int)=  0.04751716
 Iteration  2 RMS(Cart)=  0.05863513 RMS(Int)=  0.00596169
 Iteration  3 RMS(Cart)=  0.00586686 RMS(Int)=  0.00123172
 Iteration  4 RMS(Cart)=  0.00004518 RMS(Int)=  0.00123143
 Iteration  5 RMS(Cart)=  0.00000000 RMS(Int)=  0.00123143
 Variable       Old X    -DE/DX   Delta X   Delta X   Delta X     New X
                                 (Linear)    (Quad)   (Total)
    R1        2.87750   0.00608   0.00000  -0.01784  -0.01784   2.85966
    R2        2.73647   0.00448   0.00000   0.03036   0.03036   2.76683
    R3        2.09375  -0.00048   0.00000  -0.00767  -0.00767   2.08609
    R4        2.06526   0.00033   0.00000  -0.00206  -0.00206   2.06320
    R5        2.93984   0.00202   0.00000  -0.02502  -0.02502   2.91481
    R6        2.07662   0.00205   0.00000   0.00553   0.00553   2.08215
    R7        2.06718   0.00099   0.00000   0.00080   0.00080   2.06798
    R8        2.43990   0.00938   0.00000   0.03822   0.03822   2.47812
    R9        2.42121  -0.02675   0.00000  -0.12445  -0.12445   2.29675
   R10        2.10192   0.00030   0.00000  -0.00731  -0.00731   2.09462
   R11        2.46361   0.00360   0.00000   0.03628   0.03628   2.49989
    A1        2.03389   0.02165   0.00000  -0.05188  -0.05176   1.98213
    A2        1.91832   0.00443   0.00000   0.04844   0.04821   1.96653
    A3        1.95933  -0.01198   0.00000  -0.02150  -0.02133   1.93800
    A4        1.78973  -0.01193   0.00000  -0.02976  -0.02911   1.76062
    A5        1.85134  -0.00389   0.00000   0.05407   0.05375   1.90509
    A6        1.90049   0.00100   0.00000   0.00215   0.00234   1.90283
    A7        2.00928   0.02205   0.00000  -0.04264  -0.04387   1.96541
    A8        1.78867  -0.01035   0.00000   0.01360   0.01407   1.80274
    A9        1.99083  -0.00325   0.00000   0.01138   0.00799   1.99882
   A10        1.87704   0.00191   0.00000   0.09295   0.09401   1.97104
   A11        1.90345  -0.01315   0.00000  -0.05480  -0.05569   1.84776
   A12        1.88410   0.00266   0.00000  -0.00548  -0.00434   1.87977
   A13        2.06415  -0.00556   0.00000  -0.15015  -0.14840   1.91575
   A14        1.77939   0.00869   0.00000   0.05052   0.04882   1.82821
   A15        1.96216   0.00463   0.00000   0.10348   0.10263   2.06479
   A16        1.82042   0.00460   0.00000   0.02956   0.03138   1.85180
   A17        1.99583  -0.00502   0.00000   0.00359   0.00506   2.00088
   A18        1.79771  -0.00531   0.00000  -0.01861  -0.02312   1.77459
   A19        1.92478   0.00865   0.00000  -0.06916  -0.06916   1.85562
    D1       -0.99026   0.00794   0.00000   0.08606   0.08655  -0.90371
    D2       -3.02207   0.00161   0.00000  -0.01402  -0.01347  -3.03554
    D3        1.22959   0.00627   0.00000  -0.02111  -0.02084   1.20875
    D4        1.03508   0.00979   0.00000   0.04956   0.04936   1.08444
    D5       -0.99673   0.00346   0.00000  -0.05053  -0.05066  -1.04739
    D6       -3.02825   0.00811   0.00000  -0.05761  -0.05803  -3.08628
    D7       -3.13005   0.00610   0.00000   0.07173   0.07159  -3.05846
    D8        1.12132  -0.00023   0.00000  -0.02836  -0.02843   1.09289
    D9       -0.91020   0.00442   0.00000  -0.03545  -0.03580  -0.94599
   D10        0.34377   0.02320   0.00000   0.38100   0.38207   0.72584
   D11       -1.75186   0.01428   0.00000   0.37008   0.36930  -1.38256
   D12        2.53886   0.01958   0.00000   0.35989   0.35960   2.89846
[...]
   D12        2.78342  -0.00000   0.00000  -0.00001  -0.00001   2.78340
   D13        1.70661  -0.00000   0.00000  -0.00001  -0.00001   1.70661
   D14       -0.27148  -0.00000   0.00000  -0.00001  -0.00001  -0.27149
   D15       -2.20057  -0.00000   0.00000  -0.00001  -0.00001  -2.20058
   D16       -2.48896   0.00000   0.00000  -0.00000  -0.00000  -2.48897
   D17        1.81614  -0.00000   0.00000  -0.00001  -0.00001   1.81613
   D18       -0.11296  -0.00000   0.00000  -0.00001  -0.00001  -0.11297
   D19       -0.44197   0.00000   0.00000  -0.00000  -0.00000  -0.44198
   D20       -2.42006   0.00000   0.00000  -0.00001  -0.00001  -2.42007
   D21        1.93403   0.00000   0.00000  -0.00001  -0.00001   1.93402
         Item               Value     Threshold  Converged?
 Maximum Force            0.000000     0.000450     YES
 RMS     Force            0.000000     0.000300     YES
 Maximum Displacement     0.000017     0.001800     YES
 RMS     Displacement     0.000006     0.001200     YES
 Predicted change in Energy=-3.903131D-12
 Optimization completed.
    -- Stationary point found.
                           ----------------------------
                           !   Optimized Parameters   !
                           ! (Angstroms and Degrees)  !
 --------------------------                            --------------------------
 ! Name  Definition              Value          Derivative Info.                !
 --------------------------------------------------------------------------------
 ! R1    R(1,2)                  1.5185         -DE/DX =    0.0                 !
 ! R2    R(1,4)                  1.4737         -DE/DX =    0.0                 !
 ! R3    R(1,8)                  1.1014         -DE/DX =    0.0                 !
 ! R4    R(1,9)                  1.0926         -DE/DX =    0.0                 !
 ! R5    R(2,3)                  1.5581         -DE/DX =    0.0                 !
 ! R6    R(2,11)                 1.0997         -DE/DX =    0.0                 !
 ! R7    R(2,12)                 1.0953         -DE/DX =    0.0                 !
 ! R8    R(3,6)                  1.3028         -DE/DX =    0.0                 !
 ! R9    R(3,7)                  1.1907         -DE/DX =    0.0                 !
 ! R10   R(3,10)                 1.1124         -DE/DX =    0.0                 !
 ! R11   R(4,5)                  1.3245         -DE/DX =    0.0                 !
 ! A1    A(2,1,4)              115.9527         -DE/DX =    0.0                 !
 ! A2    A(2,1,8)              110.8674         -DE/DX =    0.0                 !
 ! A3    A(2,1,9)              113.6233         -DE/DX =    0.0                 !
 ! A4    A(4,1,8)              102.9202         -DE/DX =    0.0                 !
 ! A5    A(4,1,9)              103.7775         -DE/DX =    0.0                 !
 ! A6    A(8,1,9)              108.8911         -DE/DX =    0.0                 !
 ! A7    A(1,2,3)              112.9516         -DE/DX =    0.0                 !
 ! A8    A(1,2,11)             106.8242         -DE/DX =    0.0                 !
 ! A9    A(1,2,12)             111.4686         -DE/DX =    0.0                 !
 ! A10   A(3,2,11)             110.52           -DE/DX =    0.0                 !
 ! A11   A(3,2,12)             107.1052         -DE/DX =    0.0                 !
 ! A12   A(11,2,12)            107.892          -DE/DX =    0.0                 !
 ! A13   A(2,3,6)              113.793          -DE/DX =    0.0                 !
 ! A14   A(2,3,7)              104.8149         -DE/DX =    0.0                 !
 ! A15   A(2,3,10)             116.4917         -DE/DX =    0.0                 !
 ! A16   A(6,3,7)              104.3149         -DE/DX =    0.0                 !
 ! A17   A(6,3,10)             114.2342         -DE/DX =    0.0                 !
 ! A18   A(7,3,10)             100.9159         -DE/DX =    0.0                 !
 ! A19   A(1,4,5)              110.9432         -DE/DX =    0.0                 !
 ! D1    D(4,1,2,3)            -44.4263         -DE/DX =    0.0                 !
 ! D2    D(4,1,2,11)          -166.1445         -DE/DX =    0.0                 !
 ! D3    D(4,1,2,12)            76.2223         -DE/DX =    0.0                 !
 ! D4    D(8,1,2,3)             72.4244         -DE/DX =    0.0                 !
 ! D5    D(8,1,2,11)           -49.2939         -DE/DX =    0.0                 !
 ! D6    D(8,1,2,12)          -166.927          -DE/DX =    0.0                 !
 ! D7    D(9,1,2,3)           -164.5562         -DE/DX =    0.0                 !
 ! D8    D(9,1,2,11)            73.7256         -DE/DX =    0.0                 !
 ! D9    D(9,1,2,12)           -43.9076         -DE/DX =    0.0                 !
 ! D10   D(2,1,4,5)             34.1532         -DE/DX =    0.0                 !
 ! D11   D(8,1,4,5)            -87.0516         -DE/DX =    0.0                 !
 ! D12   D(9,1,4,5)            159.4781         -DE/DX =    0.0                 !
 ! D13   D(1,2,3,6)             97.7816         -DE/DX =    0.0                 !
 ! D14   D(1,2,3,7)            -15.5545         -DE/DX =    0.0                 !
 ! D15   D(1,2,3,10)          -126.0836         -DE/DX =    0.0                 !
 ! D16   D(11,2,3,6)          -142.607          -DE/DX =    0.0                 !
 ! D17   D(11,2,3,7)           104.0569         -DE/DX =    0.0                 !
 ! D18   D(11,2,3,10)           -6.4722         -DE/DX =    0.0                 !
 ! D19   D(12,2,3,6)           -25.3231         -DE/DX =    0.0                 !
 ! D20   D(12,2,3,7)          -138.6592         -DE/DX =    0.0                 !
 ! D21   D(12,2,3,10)          110.8117         -DE/DX =    0.0                 !
 --------------------------------------------------------------------------------
 GradGradGradGradGradGradGradGradGradGradGradGradGradGradGradGradGradGrad


 ----------------------------------------------------------------------

 Electric dipole moment (input orientation):
 (Debye = 10**-18 statcoulomb cm , SI units = C m)
                  (au)            (Debye)         (10**-30 SI)
   Tot        0.190322D+01      0.483750D+01      0.161362D+02
   x         -0.127039D+00     -0.322902D+00     -0.107708D+01
   y         -0.144266D+01     -0.366687D+01     -0.122314D+02
   z         -0.123484D+01     -0.313866D+01     -0.104695D+02

 Dipole polarizability, Alpha (input orientation).
 (esu units = cm**3 , SI units = C**2 m**2 J**-1)
 Alpha(0;0):
               (au)            (10**-24 esu)      (10**-40 SI)
   iso        0.622976D+02      0.923155D+01      0.102715D+02
   aniso      0.378822D+02      0.561356D+01      0.624593D+01
   xx         0.466449D+02      0.691205D+01      0.769070D+01
   yx        -0.131531D+01     -0.194909D+00     -0.216866D+00
   yy         0.625868D+02      0.927441D+01      0.103192D+02
   zx         0.638551D+01      0.946235D+00      0.105283D+01
   zy        -0.139744D+02     -0.207080D+01     -0.230407D+01
   zz         0.776610D+02      0.115082D+02      0.128046D+02

 ----------------------------------------------------------------------

 Dipole orientation:
     6          1.53431012         -5.69148011          1.13772924
     6          1.13867898         -2.86348929          0.85400610
     6          3.00822691         -1.62852931         -1.05624853
     8          1.90172182         -7.11409419         -1.22800591
     8          3.14300171         -5.74183671         -2.91362620
     8          2.06195557         -1.30864931         -3.30651787
     1          4.62952107         -3.16133333         -1.34724214
     1          3.27955578         -6.09321186          2.19816826
     1         -0.04242039         -6.65967137          2.05388703
     1          4.12706000          0.00527025         -0.35040257
     1          1.37226212         -2.03085811          2.74375763
     1         -0.77619053         -2.42833658          0.19963804

 Electric dipole moment (dipole orientation):
 (Debye = 10**-18 statcoulomb cm , SI units = C m)
                  (au)            (Debye)         (10**-30 SI)
   Tot        0.190322D+01      0.483750D+01      0.161362D+02
   x          0.000000D+00      0.000000D+00      0.000000D+00
   y          0.000000D+00      0.000000D+00      0.000000D+00
   z          0.190322D+01      0.483750D+01      0.161362D+02

 Dipole polarizability, Alpha (dipole orientation).
 (esu units = cm**3 , SI units = C**2 m**2 J**-1)
 Alpha(0;0):
               (au)            (10**-24 esu)      (10**-40 SI)
   iso        0.622976D+02      0.923155D+01      0.102715D+02
   aniso      0.378822D+02      0.561356D+01      0.624593D+01
   xx         0.459712D+02      0.681222D+01      0.757962D+01
   yx         0.413673D+01      0.613000D+00      0.682055D+00
   yy         0.853856D+02      0.126528D+02      0.140782D+02
   zx        -0.238297D+01     -0.353120D+00     -0.392900D+00
   zy        -0.573570D+01     -0.849944D+00     -0.945690D+00
   zz         0.555359D+02      0.822958D+01      0.915664D+01

 ----------------------------------------------------------------------
 1\1\GINC-BELL-A094\Freq\RB3LYP\6-31+G(d)\C3H6O3\ZHAO922\23-Dec-2020\0\
 \#N Geom=AllCheck Guess=TCheck SCRF=Check GenChk RB3LYP/6-31+G(d) Freq
 \\pp_23_0 TS\\0,1\C,0.6771181956,1.4809703776,-2.7277977105\C,0.524269
 7097,0.6261952024,-1.4820421322\C,1.5984474593,0.9363024706,-0.3968429
 644\O,0.9314807489,2.9144258496,-2.4991642024\O,1.668386684,3.09729368
 38,-1.4138261555\O,1.1837347701,1.7440145601,0.5375004301\H,2.43946879
 58,1.5551636832,-0.9690414996\H,1.5541858976,1.165770292,-3.3146786053
 \H,-0.2030800843,1.4728876203,-3.3750197938\H,2.190507179,0.0717187069
 ,-0.023356407\H,0.5943128498,-0.4226839449,-1.8051345832\H,-0.45611720
 56,0.7697434983,-1.0151843762\\Version=ES64L-G16RevB.01\State=1-A\HF=-
 343.3442078\RMSD=3.485e-09\RMSF=1.133e-06\ZeroPoint=0.0886626\Thermal=
 0.0944051\Dipole=-0.1270393,-1.442658,-1.2348449\DipoleDeriv=0.339476,
 -0.0260779,0.1815838,0.0146855,0.2684537,0.3162934,-0.045897,-0.043021
 7,0.2173896,-0.0071291,-0.0398995,-0.1513574,-0.0426843,-0.0292504,-0.
 0070739,-0.1169742,0.0779442,-0.0964557,0.2271633,0.621893,-0.3839197,
 0.0170089,0.3819868,0.0714954,0.1136847,-0.0954471,0.6082707,-0.260528
 5,0.4560199,-0.8173919,-0.0396257,-0.0674357,-0.2065601,-0.1854196,0.7
 535427,-1.0131507,0.005486,-0.5855672,0.7662912,-0.0101745,-0.1578663,
 -0.0376143,0.2476919,-0.6598279,0.784124,-0.3112742,-0.2107224,0.31460
 47,-0.034685,-0.0695519,-0.3038999,-0.0643323,0.0037206,-0.7755146,0.0
 323399,-0.1222199,0.0322347,-0.0385155,-0.2132961,0.2586179,0.0813637,
 0.0250494,0.0868962,-0.080355,0.0238174,0.0762161,-0.0295957,0.0328372
 ,-0.1330823,0.045705,0.0114112,0.0353796,-0.0147417,-0.003738,-0.10706
 28,0.0060919,0.0725245,-0.0239951,-0.0606569,-0.0033868,0.0168549,0.06
 35613,-0.1017577,0.0338276,0.138989,-0.1801873,0.1239458,-0.0690319,0.
 0114428,0.0656325,0.0628767,0.0088522,0.0084612,-0.0154982,-0.0977599,
 -0.0630584,-0.0079612,-0.0842492,0.0630943,-0.0568747,-0.0205998,0.046
 5125,0.0340036,0.0595454,0.0049315,0.0618278,0.0028218,0.0074792\Polar
 =46.6448589,-1.3153138,62.5867952,6.3855126,-13.9744327,77.6610163\Qua
 drupole=1.9680489,-0.0388991,-1.9291498,-0.7377302,1.0540061,0.0751371
 \PG=C01 [X(C3H6O3)]\NImag=1\\0.60741658,-0.03299450,0.34853567,0.03918
 814,-0.02638729,0.55529315,-0.08737915,-0.00705371,0.01410110,0.532344
 30,-0.00828724,-0.10366580,0.05016749,-0.02511454,0.53885499,0.0103231
 6,0.05337059,-0.17846317,-0.06978863,0.04277573,0.47885882,-0.00454189
 ,0.01509512,0.00411732,-0.12469394,0.00018231,-0.04328454,0.32569035,0
 .02461488,0.01066568,0.00811178,-0.00358859,-0.07709055,0.00103380,-0.
 08793177,0.50071218,-0.00646495,-0.00442922,-0.02277207,-0.04093947,-0
 .01612539,-0.07588936,0.08667353,0.06415187,0.38428391,-0.04897992,0.0
 1146235,-0.00715602,-0.00010474,-0.00419397,-0.00627091,-0.00665897,-0
 .01210590,-0.00251906,0.15622468,0.01436027,-0.12942306,0.03695286,-0.
 00400163,-0.03865345,-0.00678420,-0.00964077,-0.00148623,0.00429344,0.
 01294100,0.27219712,0.00239168,0.02374042,-0.07805536,0.00189518,0.029
 32953,0.01202996,-0.05083992,0.00809844,0.02590102,0.16422213,0.009825
 41,0.32298273,-0.01329481,-0.02443676,-0.02040162,0.00110816,-0.003728
 95,0.00868892,0.03519257,0.01577570,-0.03185224,-0.11534597,-0.0176493
 5,-0.13305702,0.12466011,-0.03608306,-0.00618615,-0.04293911,0.0018759
 6,0.00851068,-0.00155873,-0.02735754,-0.02267549,0.04549602,-0.0041455
 7,-0.05831925,-0.03209964,0.04228333,0.09571230,-0.03433085,-0.0372004
 6,-0.01304217,0.00033034,0.00299714,0.00087324,0.03585205,0.00795549,-
 0.01435996,-0.13737523,-0.03841114,-0.25515288,0.14655291,0.06420175,0
 .28747064,-0.00082228,-0.00428767,-0.00082495,0.01446594,-0.01508946,-
 0.01139469,-0.07054765,0.07667675,0.05194308,0.01124078,0.00118326,0.0
 1182124,-0.02309356,0.01134368,-0.00339289,0.10240029,-0.01284749,0.00
 152071,0.00269791,-0.00229053,0.00202789,-0.03528491,0.01269725,-0.182
 53616,-0.10839602,0.00674939,-0.00915351,-0.03030042,0.00958050,-0.020
 46917,0.02264697,-0.07412925,0.18681949,0.00320229,0.00174389,-0.00074
 571,0.00381118,-0.02925517,-0.04089292,0.03485625,-0.16706858,-0.21931
 201,-0.01252055,0.00085110,-0.00315071,0.02192607,-0.01424483,-0.00268
 139,-0.09657364,0.20315717,0.30263668,-0.00084881,-0.00291298,-0.00115
 849,-0.02109489,-0.00884240,0.00263410,-0.05933350,-0.06523590,0.01727
 991,-0.00342938,0.00364664,0.00126370,-0.00433051,0.01011306,-0.003338
 22,-0.02084182,0.01974283,0.02752086,0.11188087,0.00887091,-0.00439430
 ,-0.00261355,-0.00708882,-0.01026171,0.01088610,0.01092619,-0.05081229
 ,-0.05006358,0.00142739,0.00789025,0.03751245,-0.02309678,0.00879882,-
 0.02327426,-0.00945376,0.04509950,0.01459737,0.04235189,0.02025804,-0.
 00774302,0.00297121,0.00312841,-0.01491769,0.00023842,-0.00154447,0.00
 455936,0.03096786,-0.00633103,-0.00478154,0.00083840,-0.01320061,0.014
 25733,-0.01817625,-0.00026802,0.03302614,-0.02646436,-0.03777919,-0.03
 913603,-0.00080557,0.06381450,-0.21437278,0.05309756,0.10324728,-0.002
 22807,-0.00021966,0.00216745,0.00220299,-0.00007499,-0.00292005,0.0071
 2916,0.00196702,-0.00614863,0.00126323,-0.00201911,0.00168436,-0.00063
 010,0.00145426,0.00063663,-0.00043418,-0.00073729,0.00303905,0.2246351
 1,0.05318517,-0.05411687,-0.03511062,-0.01609106,0.00563496,0.01022924
 ,0.00101865,-0.00223021,-0.00046084,0.01595138,-0.03530540,-0.02629942
 ,0.00401766,0.00068248,0.00689504,0.00067851,0.00130363,-0.00166463,-0
 .00004342,-0.00029093,0.00061066,-0.05953332,0.08232155,0.10365530,-0.
 03171575,-0.12088065,0.02505768,-0.00662334,-0.01336664,-0.00005612,0.
 00047718,-0.00055743,0.00500138,-0.01194863,-0.00406282,-0.00047667,0.
 00092579,0.00186045,0.00006057,0.00052504,0.00061754,-0.00032470,-0.00
 118460,0.00056972,-0.11749945,0.03993253,0.12755783,-0.23288223,-0.001
 17074,-0.12984283,0.00666554,0.00063592,0.00572172,-0.00033662,-0.0013
 4017,0.00066317,-0.00345126,-0.00125913,-0.00427123,0.00161561,-0.0010
 7735,0.00200273,0.00012893,0.00040531,0.00011109,0.00045726,-0.0000029
 0,0.00053573,-0.01957467,0.00023071,-0.01488438,0.24593037,0.00926823,
 -0.04651041,0.00759326,0.01651376,0.00350572,0.01220132,-0.00685054,-0
 .00316573,0.00149211,-0.02977350,-0.00695484,-0.02742016,-0.00209051,-
 0.00893099,-0.00015684,0.00148678,-0.00045089,0.00101951,0.00020937,0.
 00148189,-0.00048534,0.00719176,0.00225481,0.00584105,0.00278171,0.057
 50892,-0.12860581,0.00187202,-0.14128828,-0.02095971,-0.00048528,-0.01
 480100,0.00285670,0.00457881,-0.00047615,-0.00522874,-0.00341625,-0.00
 536575,-0.00189263,-0.00186226,-0.00066385,-0.00050036,-0.00117055,-0.
 00067563,0.00023811,-0.00017229,-0.00024409,0.01460573,0.00101244,0.01
 146007,0.14055993,0.00072369,0.15175393,-0.00346940,-0.00384548,-0.001
 76028,-0.00623202,0.01613639,-0.00902853,-0.08261678,0.07180139,-0.067
 14395,0.00248102,0.00143734,0.01023671,-0.00480765,0.00310763,-0.00696
 478,-0.01346546,0.03362680,0.01654802,0.00092585,-0.01843795,0.0100080
 9,0.00017085,0.00006836,-0.00002016,0.00049699,0.00171620,-0.00115040,
 0.10740365,-0.00110910,-0.00128403,-0.00087750,-0.00573145,0.00753825,
 -0.00263280,0.09580410,-0.16937841,0.06271703,0.00183882,0.00098839,0.
 00495158,-0.00142539,0.00128469,-0.00584321,0.01384721,-0.02348133,-0.
 00739168,0.00274263,-0.01667821,0.01109532,-0.00002917,0.00022795,-0.0
 0003877,0.00013942,0.00047687,-0.00041702,-0.10561377,0.19967640,-0.00
 611140,-0.00233873,0.00131466,-0.00478586,0.01385215,-0.00606748,-0.06
 177423,0.05952972,-0.06794755,0.00418384,-0.00022751,-0.00088792,0.000
 33809,0.00040955,-0.00164285,0.02082596,-0.03009972,0.00426603,-0.0028
 4000,0.01928111,-0.00801031,0.00042031,0.00073081,-0.00035642,0.000218
 76,0.00061912,-0.00093578,0.05002066,-0.06144830,0.08071111,-0.0001152
 4,-0.00353763,-0.00055545,-0.05037855,0.01602324,0.00845861,0.00561546
 ,-0.02175542,-0.00960917,0.00076931,-0.00196617,0.00174112,-0.00221799
 ,0.00117056,-0.00018887,-0.00258142,0.00236297,-0.00260633,-0.00011163
 ,-0.00313119,0.00216537,0.00036899,0.00011200,-0.00038151,-0.00006566,
 -0.00002310,0.00007178,0.00104374,0.00078539,0.00033319,0.04796644,0.0
 0094348,-0.01896582,-0.00799278,0.01711209,-0.28012657,-0.06963307,0.0
 0130480,-0.00243831,0.00162469,-0.00106119,-0.00267071,0.00319328,0.00
 159769,0.00125421,0.00081141,-0.00127420,-0.00167111,-0.00250866,-0.00
 046920,0.00033800,-0.00067030,-0.00039589,0.00082754,-0.00001026,0.000
 38312,0.00010491,0.00035828,0.00021929,0.00080407,-0.00035358,-0.01877
 713,0.30533185,-0.00054400,0.02427294,0.00942546,0.00573977,-0.0727191
 0,-0.06602916,0.00647801,-0.01994251,-0.00759073,0.00269813,0.00774503
 ,-0.00291666,-0.00345986,-0.00083764,-0.00174876,-0.00458935,0.0005364
 5,-0.00515663,0.00007839,-0.00238560,0.00102308,0.00033418,0.00020187,
 0.00098385,-0.00066075,-0.00090420,0.00036801,0.00046245,0.00068603,0.
 00052511,-0.00636798,0.07611839,0.07448256,-0.00071008,0.00058443,0.00
 104581,-0.26247258,0.03249835,0.10177333,-0.01997202,0.00316401,0.0048
 8920,0.00012529,-0.00101848,0.00074505,-0.00074921,0.00078840,-0.00083
 155,0.00374635,0.00264795,0.00308811,-0.00283924,-0.00162769,-0.001012
 80,0.00146947,0.00040534,-0.00013194,0.00101573,-0.00043017,0.00000541
 ,-0.00193078,-0.00124868,-0.00082934,-0.00029343,0.00041714,-0.0001689
 9,0.28261050,-0.01992156,0.00382436,0.01039754,0.03545851,-0.05627442,
 -0.01460307,-0.00524782,0.00043552,-0.00030012,0.00090980,0.00089070,-
 0.00053146,-0.00082712,0.00033787,-0.00062189,-0.00098186,0.00099095,0
 .00076452,-0.00130252,-0.00142906,-0.00012004,-0.00070117,-0.00130952,
 0.00381975,0.00027409,0.00067974,-0.00102160,-0.00021621,-0.00017464,0
 .00004536,0.02873646,-0.00278806,-0.01277165,-0.03618060,0.05481658,0.
 02503945,-0.00589963,-0.01391428,0.10045610,-0.01415218,-0.09470782,-0
 .01943841,0.00210614,0.00505135,-0.00025343,0.00028148,0.00187901,-0.0
 0062328,0.00068536,-0.00064446,-0.00040112,0.00215242,0.00287394,-0.00
 221764,-0.00177758,-0.00115798,0.00043313,0.00392292,-0.00382550,-0.00
 015393,-0.00052352,0.00086852,-0.00120782,-0.00080067,-0.00096861,0.00
 693924,-0.00093740,-0.00336614,-0.10857229,0.01494268,0.10791195\\0.00
 000143,0.00000077,-0.00000021,-0.00000037,0.00000027,-0.00000095,-0.00
 000119,-0.00000111,0.00000044,0.00000102,0.00000081,0.00000107,0.00000
 052,-0.00000012,0.00000177,-0.00000189,-0.00000156,0.00000032,-0.00000
 048,-0.00000078,0.00000161,0.00000174,0.00000115,0.00000040,0.00000185
 ,0.00000162,-0.00000112,-0.00000178,-0.00000133,0.00000024,-0.00000019
 ,0.00000031,-0.00000173,-0.00000066,-0.00000003,-0.00000184\\\@


 Democracy is the recurrent suspicion that more than half of the people
 are right more than half of the time.
 -- E. B. White
 Job cpu time:       0 days  0 hours  4 minutes 31.1 seconds.
 Elapsed time:       0 days  0 hours  0 minutes 17.2 seconds.
 File lengths (MBytes):  RWF=     27 Int=      0 D2E=      0 Chk=      3 Scr=      1
 Normal termination of Gaussian 16 at Wed Dec 23 22:04:50 2020.
