 Entering Gaussian System, Link 0=g16
 Initial command:
 /apps/cent7/gaussian/g16-B.01/g16-haswell/g16/l1.exe "/scratch/bell/zhao922/YARP/paper-example/KHP-network/pp_0/TS-folder/Gau-106438.inp" -scrdir="/scratch/bell/zhao922/YARP/paper-example/KHP-network/pp_0/TS-folder/"
 Entering Link 1 = /apps/cent7/gaussian/g16-B.01/g16-haswell/g16/l1.exe PID=    106440.
  
 Copyright (c) 1988-2017, Gaussian, Inc.  All Rights Reserved.
  
 This is part of the Gaussian(R) 16 program.  It is based on
 the Gaussian(R) 09 system (copyright 2009, Gaussian, Inc.),
 the Gaussian(R) 03 system (copyright 2003, Gaussian, Inc.),
 the Gaussian(R) 98 system (copyright 1998, Gaussian, Inc.),
 the Gaussian(R) 94 system (copyright 1995, Gaussian, Inc.),
 the Gaussian 92(TM) system (copyright 1992, Gaussian, Inc.),
 the Gaussian 90(TM) system (copyright 1990, Gaussian, Inc.),
 the Gaussian 88(TM) system (copyright 1988, Gaussian, Inc.),
 the Gaussian 86(TM) system (copyright 1986, Carnegie Mellon
 University), and the Gaussian 82(TM) system (copyright 1983,
 Carnegie Mellon University). Gaussian is a federally registered
 trademark of Gaussian, Inc.
  
 This software contains proprietary and confidential information,
 including trade secrets, belonging to Gaussian, Inc.
  
 This software is provided under written license and may be
 used, copied, transmitted, or stored only in accord with that
 written license.
  
 The following legend is applicable only to US Government
 contracts under FAR:
  
                    RESTRICTED RIGHTS LEGEND
  
 Use, reproduction and disclosure by the US Government is
 subject to restrictions as set forth in subparagraphs (a)
 and (c) of the Commercial Computer Software - Restricted
 Rights clause in FAR 52.227-19.
  
 Gaussian, Inc.
 340 Quinnipiac St., Bldg. 40, Wallingford CT 06492
  
  
 ---------------------------------------------------------------
 Warning -- This program may not be used in any manner that
 competes with the business of Gaussian, Inc. or will provide
 assistance to any competitor of Gaussian, Inc.  The licensee
 of this program is prohibited from giving any competitor of
 Gaussian, Inc. access to this program.  By using this program,
 the user acknowledges that Gaussian, Inc. is engaged in the
 business of creating and licensing software in the field of
 computational chemistry and represents and warrants to the
 licensee that it is not a competitor of Gaussian, Inc. and that
 it will not use this program in any manner prohibited above.
 ---------------------------------------------------------------
  

 Cite this work as:
 Gaussian 16, Revision B.01,
 M. J. Frisch, G. W. Trucks, H. B. Schlegel, G. E. Scuseria, 
 M. A. Robb, J. R. Cheeseman, G. Scalmani, V. Barone, 
 G. A. Petersson, H. Nakatsuji, X. Li, M. Caricato, A. V. Marenich, 
 J. Bloino, B. G. Janesko, R. Gomperts, B. Mennucci, H. P. Hratchian, 
 J. V. Ortiz, A. F. Izmaylov, J. L. Sonnenberg, D. Williams-Young, 
 F. Ding, F. Lipparini, F. Egidi, J. Goings, B. Peng, A. Petrone, 
 T. Henderson, D. Ranasinghe, V. G. Zakrzewski, J. Gao, N. Rega, 
 G. Zheng, W. Liang, M. Hada, M. Ehara, K. Toyota, R. Fukuda, 
 J. Hasegawa, M. Ishida, T. Nakajima, Y. Honda, O. Kitao, H. Nakai, 
 T. Vreven, K. Throssell, J. A. Montgomery, Jr., J. E. Peralta, 
 F. Ogliaro, M. J. Bearpark, J. J. Heyd, E. N. Brothers, K. N. Kudin, 
 V. N. Staroverov, T. A. Keith, R. Kobayashi, J. Normand, 
 K. Raghavachari, A. P. Rendell, J. C. Burant, S. S. Iyengar, 
 J. Tomasi, M. Cossi, J. M. Millam, M. Klene, C. Adamo, R. Cammi, 
 J. W. Ochterski, R. L. Martin, K. Morokuma, O. Farkas, 
 J. B. Foresman, and D. J. Fox, Gaussian, Inc., Wallingford CT, 2016.
 
 ******************************************
 Gaussian 16:  ES64L-G16RevB.01 20-Dec-2017
                23-Dec-2020 
 ******************************************
 %NProcShared=16
 Will use up to   16 processors via shared memory.
 %Mem=6GB
 --------------------------------------------------------------
 # B3LYP/6-31+G* OPT=(TS, CALCALL, NOEIGEN, maxcycles=100) Freq
 --------------------------------------------------------------
 1/5=1,6=100,10=4,11=1,18=20,26=3,38=1/1,3;
 2/9=110,12=2,17=6,18=5,40=1/2;
 3/5=1,6=6,7=11,11=2,25=1,30=1,71=2,74=-5,140=1/1,2,3;
 4//1;
 5/5=2,38=5/2;
 8/6=4,10=90,11=11/1;
 11/6=1,8=1,9=11,15=111,16=1/1,2,10;
 10/6=1/2;
 6/7=2,8=2,9=2,10=2,18=1,28=1/1;
 7/10=1,25=1/1,2,3,16;
 1/5=1,6=100,10=4,11=1,18=20,26=3/3(3);
 2/9=110/2;
 7/8=1,9=1,25=1,44=-1/16;
 99//99;
 2/9=110/2;
 3/5=1,6=6,7=11,11=2,25=1,30=1,71=2,74=-5,140=1/1,2,3;
 4/5=5,16=3,69=1/1;
 5/5=2,38=5/2;
 8/6=4,10=90,11=11/1;
 11/6=1,8=1,9=11,15=111,16=1/1,2,10;
 10/6=1/2;
 7/10=1,25=1/1,2,3,16;
 1/5=1,6=100,10=4,11=1,18=20,26=3/3(-8);
 2/9=110/2;
 6/7=2,8=2,9=2,10=2,18=1,19=2,28=1/1;
 7/8=1,9=1,25=1,44=-1/16;
 99//99;
 ----------
 pp_22_1 TS
 ----------
 Symbolic Z-matrix:
 Charge =  0 Multiplicity = 1
 C                     0.76474   1.31955  -2.68731 
 C                     0.39216   0.3019   -1.59194 
 C                     1.32672   0.79851  -0.48373 
 O                     0.69089   2.5895   -2.06691 
 O                     1.19322   2.49685  -0.80127 
 O                     2.56344   0.7206   -0.66052 
 H                     2.42292   2.33656  -0.70956 
 H                     1.79373   1.12635  -3.02224 
 H                     0.0935    1.34506  -3.54372 
 H                     0.91535   0.83665   0.53818 
 H                     0.61515  -0.71609  -1.89796 
 H                    -0.64945   0.38329  -1.28351 
 
 Add virtual bond connecting atoms H7         and O5         Dist= 2.35D+00.

 GradGradGradGradGradGradGradGradGradGradGradGradGradGradGradGradGradGrad
 Berny optimization.
 Initialization pass.
                           ----------------------------
                           !    Initial Parameters    !
                           ! (Angstroms and Degrees)  !
 --------------------------                            --------------------------
 ! Name  Definition              Value          Derivative Info.                !
 --------------------------------------------------------------------------------
 ! R1    R(1,2)                  1.5409         calculate D2E/DX2 analytically  !
 ! R2    R(1,4)                  1.4153         calculate D2E/DX2 analytically  !
 ! R3    R(1,8)                  1.0992         calculate D2E/DX2 analytically  !
 ! R4    R(1,9)                  1.0884         calculate D2E/DX2 analytically  !
 ! R5    R(2,3)                  1.5324         calculate D2E/DX2 analytically  !
 ! R6    R(2,11)                 1.0861         calculate D2E/DX2 analytically  !
 ! R7    R(2,12)                 1.0894         calculate D2E/DX2 analytically  !
 ! R8    R(3,6)                  1.2517         calculate D2E/DX2 analytically  !
 ! R9    R(3,10)                 1.1023         calculate D2E/DX2 analytically  !
 ! R10   R(4,5)                  1.3648         calculate D2E/DX2 analytically  !
 ! R11   R(5,7)                  1.2435         calculate D2E/DX2 analytically  !
 ! A1    A(2,1,4)              105.5678         calculate D2E/DX2 analytically  !
 ! A2    A(2,1,8)              109.0785         calculate D2E/DX2 analytically  !
 ! A3    A(2,1,9)              115.1956         calculate D2E/DX2 analytically  !
 ! A4    A(4,1,8)              109.8837         calculate D2E/DX2 analytically  !
 ! A5    A(4,1,9)              106.96           calculate D2E/DX2 analytically  !
 ! A6    A(8,1,9)              109.9788         calculate D2E/DX2 analytically  !
 ! A7    A(1,2,3)               98.7782         calculate D2E/DX2 analytically  !
 ! A8    A(1,2,11)             111.6583         calculate D2E/DX2 analytically  !
 ! A9    A(1,2,12)             112.5276         calculate D2E/DX2 analytically  !
 ! A10   A(3,2,11)             112.4762         calculate D2E/DX2 analytically  !
 ! A11   A(3,2,12)             110.7433         calculate D2E/DX2 analytically  !
 ! A12   A(11,2,12)            110.2488         calculate D2E/DX2 analytically  !
 ! A13   A(2,3,6)              118.7021         calculate D2E/DX2 analytically  !
 ! A14   A(2,3,10)             117.0058         calculate D2E/DX2 analytically  !
 ! A15   A(6,3,10)             120.1214         calculate D2E/DX2 analytically  !
 ! A16   A(1,4,5)              109.0489         calculate D2E/DX2 analytically  !
 ! A17   A(4,5,7)              116.1745         calculate D2E/DX2 analytically  !
 ! D1    D(4,1,2,3)            -49.607          calculate D2E/DX2 analytically  !
 ! D2    D(4,1,2,11)          -168.1315         calculate D2E/DX2 analytically  !
 ! D3    D(4,1,2,12)            67.2673         calculate D2E/DX2 analytically  !
 ! D4    D(8,1,2,3)             68.4235         calculate D2E/DX2 analytically  !
 ! D5    D(8,1,2,11)           -50.1011         calculate D2E/DX2 analytically  !
 ! D6    D(8,1,2,12)          -174.7023         calculate D2E/DX2 analytically  !
 ! D7    D(9,1,2,3)           -167.3642         calculate D2E/DX2 analytically  !
 ! D8    D(9,1,2,11)            74.1113         calculate D2E/DX2 analytically  !
 ! D9    D(9,1,2,12)           -50.4899         calculate D2E/DX2 analytically  !
 ! D10   D(2,1,4,5)             39.496          calculate D2E/DX2 analytically  !
 ! D11   D(8,1,4,5)            -77.9933         calculate D2E/DX2 analytically  !
 ! D12   D(9,1,4,5)            162.6561         calculate D2E/DX2 analytically  !
 ! D13   D(1,2,3,6)            -64.6245         calculate D2E/DX2 analytically  !
 ! D14   D(1,2,3,10)           138.2727         calculate D2E/DX2 analytically  !
 ! D15   D(11,2,3,6)            53.2821         calculate D2E/DX2 analytically  !
 ! D16   D(11,2,3,10)         -103.8208         calculate D2E/DX2 analytically  !
 ! D17   D(12,2,3,6)           177.1447         calculate D2E/DX2 analytically  !
 ! D18   D(12,2,3,10)           20.0418         calculate D2E/DX2 analytically  !
 ! D19   D(1,4,5,7)             70.8058         calculate D2E/DX2 analytically  !
 --------------------------------------------------------------------------------
 Trust Radius=3.00D-01 FncErr=1.00D-07 GrdErr=1.00D-06 EigMax=2.50D+02 EigMin=1.00D-04
 Number of steps in this run=    100 maximum allowed number of steps=    100.
 Search for a saddle point of order  1.
 GradGradGradGradGradGradGradGradGradGradGradGradGradGradGradGradGradGrad

                          Input orientation:                          
 ---------------------------------------------------------------------
 Center     Atomic      Atomic             Coordinates (Angstroms)
 Number     Number       Type             X           Y           Z
 ---------------------------------------------------------------------
      1          6           0        0.764735    1.319552   -2.687311
      2          6           0        0.392160    0.301904   -1.591937
      3          6           0        1.326724    0.798508   -0.483729
      4          8           0        0.690894    2.589500   -2.066913
      5          8           0        1.193217    2.496849   -0.801271
      6          8           0        2.563440    0.720598   -0.660524
      7          1           0        2.422921    2.336555   -0.709564
      8          1           0        1.793728    1.126345   -3.022244
      9          1           0        0.093497    1.345060   -3.543719
     10          1           0        0.915353    0.836645    0.538179
     11          1           0        0.615147   -0.716088   -1.897960
     12          1           0       -0.649445    0.383286   -1.283511
 ---------------------------------------------------------------------
                    Distance matrix (angstroms):
                    1          2          3          4          5
     1  C    0.000000
     2  C    1.540865   0.000000
     3  C    2.333044   1.532368   0.000000
     4  O    1.415314   2.355406   2.473541   0.000000
     5  O    2.264238   2.466704   1.732922   1.364830   0.000000
     6  O    2.775239   2.399436   1.251716   2.996190   2.247752
     7  H    2.774051   3.007055   1.902167   2.215016   1.243494
     8  H    1.099243   2.165612   2.601851   2.066331   2.677987
     9  H    1.088414   2.233120   3.344115   2.021502   3.171281
    10  H    3.264915   2.257670   1.102260   3.147918   2.151189
    11  H    2.188443   1.086131   2.190980   3.310770   3.443814
    12  H    2.201625   1.089353   2.171936   2.697704   2.845190
                    6          7          8          9         10
     6  O    0.000000
     7  H    1.622796   0.000000
     8  H    2.516905   2.684955   0.000000
     9  H    3.847517   3.800225   1.791803   0.000000
    10  H    2.041212   2.465635   3.678598   4.194738   0.000000
    11  H    2.718669   3.741519   2.459192   2.688675   2.904458
    12  H    3.290064   3.685662   3.089405   2.566225   2.443907
                   11         12
    11  H    0.000000
    12  H    1.784759   0.000000
 Stoichiometry    C3H6O3
 Framework group  C1[X(C3H6O3)]
 Deg. of freedom    30
 Full point group                 C1      NOp   1
 Largest Abelian subgroup         C1      NOp   1
 Largest concise Abelian subgroup C1      NOp   1
                         Standard orientation:                         
 ---------------------------------------------------------------------
 Center     Atomic      Atomic             Coordinates (Angstroms)
 Number     Number       Type             X           Y           Z
 ---------------------------------------------------------------------
      1          6           0       -1.129834    0.564205    0.497714
      2          6           0       -0.117869    1.262985   -0.430670
      3          6           0        0.990454    0.205058   -0.406986
      4          8           0       -1.251983   -0.755653    0.001561
      5          8           0       -0.021647   -1.201439   -0.386138
      6          8           0        1.575612   -0.028431    0.674617
      7          1           0        0.788215   -1.439690    0.526899
      8          1           0       -0.725199    0.543533    1.519564
      9          1           0       -2.129141    0.995496    0.502100
     10          1           0        1.487186   -0.020965   -1.364665
     11          1           0        0.208505    2.215466   -0.023312
     12          1           0       -0.501929    1.396864   -1.441247
 ---------------------------------------------------------------------
 Rotational constants (GHZ):           5.6808857           4.0632050           3.0389685
 Standard basis: 6-31+G(d) (6D, 7F)
 There are   126 symmetry adapted cartesian basis functions of A   symmetry.
 There are   126 symmetry adapted basis functions of A   symmetry.
   126 basis functions,   216 primitive gaussians,   126 cartesian basis functions
    24 alpha electrons       24 beta electrons
       nuclear repulsion energy       265.4311107318 Hartrees.
 NAtoms=   12 NActive=   12 NUniq=   12 SFac= 1.00D+00 NAtFMM=   60 NAOKFM=F Big=F
 Integral buffers will be    131072 words long.
 Raffenetti 2 integral format.
 Two-electron integral symmetry is turned on.
 One-electron integrals computed using PRISM.
 NBasis=   126 RedAO= T EigKep=  1.20D-04  NBF=   126
 NBsUse=   126 1.00D-06 EigRej= -1.00D+00 NBFU=   126
 ExpMin= 4.38D-02 ExpMax= 5.48D+03 ExpMxC= 8.25D+02 IAcc=3 IRadAn=         5 AccDes= 0.00D+00
 Harris functional with IExCor=  402 and IRadAn=       5 diagonalized for initial guess.
 HarFok:  IExCor=  402 AccDes= 0.00D+00 IRadAn=         5 IDoV= 1 UseB2=F ITyADJ=14
 ICtDFT=  3500011 ScaDFX=  1.000000  1.000000  1.000000  1.000000
 FoFCou: FMM=F IPFlag=           0 FMFlag=      100000 FMFlg1=           0
         NFxFlg=           0 DoJE=T BraDBF=F KetDBF=T FulRan=T
         wScrn=  0.000000 ICntrl=       500 IOpCl=  0 I1Cent=   200000004 NGrid=           0
         NMat0=    1 NMatS0=      1 NMatT0=    0 NMatD0=    1 NMtDS0=    0 NMtDT0=    0
 Petite list used in FoFCou.
 Keep R1 ints in memory in canonical form, NReq=47237537.
 Requested convergence on RMS density matrix=1.00D-08 within 128 cycles.
 Requested convergence on MAX density matrix=1.00D-06.
 Requested convergence on             energy=1.00D-06.
 No special actions if energy rises.
 SCF Done:  E(RB3LYP) =  -343.425252367     A.U. after   14 cycles
            NFock= 14  Conv=0.26D-08     -V/T= 2.0083
 DoSCS=F DFT=T ScalE2(SS,OS)=  1.000000  1.000000
 Range of M.O.s used for correlation:     1   126
 NBasis=   126 NAE=    24 NBE=    24 NFC=     0 NFV=     0
 NROrb=    126 NOA=    24 NOB=    24 NVA=   102 NVB=   102

 **** Warning!!: The largest alpha MO coefficient is  0.34152870D+02

 Symmetrizing basis deriv contribution to polar:
 IMax=3 JMax=2 DiffMx= 0.00D+00
 G2DrvN: will do    13 centers at a time, making    1 passes.
 Calling FoFCou, ICntrl=  3107 FMM=F I1Cent=   0 AccDes= 0.00D+00.
 End of G2Drv F.D. properties file   721 does not exist.
 End of G2Drv F.D. properties file   722 does not exist.
 End of G2Drv F.D. properties file   788 does not exist.
          IDoAtm=111111111111
          Differentiating once with respect to electric field.
                with respect to dipole field.
          Differentiating once with respect to nuclear coordinates.
 Keep R1 ints in memory in canonical form, NReq=47193552.
          There are    39 degrees of freedom in the 1st order CPHF.  IDoFFX=6 NUNeed=     3.
     36 vectors produced by pass  0 Test12= 6.28D-15 2.56D-09 XBig12= 4.11D+01 1.86D+00.
 AX will form    36 AO Fock derivatives at one time.
     36 vectors produced by pass  1 Test12= 6.28D-15 2.56D-09 XBig12= 1.02D+01 4.72D-01.
     36 vectors produced by pass  2 Test12= 6.28D-15 2.56D-09 XBig12= 1.17D-01 4.32D-02.
     36 vectors produced by pass  3 Test12= 6.28D-15 2.56D-09 XBig12= 5.41D-04 3.44D-03.
     36 vectors produced by pass  4 Test12= 6.28D-15 2.56D-09 XBig12= 8.66D-07 1.57D-04.
     27 vectors produced by pass  5 Test12= 6.28D-15 2.56D-09 XBig12= 8.29D-10 3.48D-06.
      3 vectors produced by pass  6 Test12= 6.28D-15 2.56D-09 XBig12= 6.95D-13 9.40D-08.
      1 vectors produced by pass  7 Test12= 6.28D-15 2.56D-09 XBig12= 5.92D-16 2.73D-09.
 InvSVY:  IOpt=1 It=  1 EMax= 2.66D-15
 Solved reduced A of dimension   211 with    39 vectors.
 Isotropic polarizability for W=    0.000000       49.89 Bohr**3.
 End of Minotr F.D. properties file   721 does not exist.
 End of Minotr F.D. properties file   722 does not exist.
 End of Minotr F.D. properties file   788 does not exist.

 **********************************************************************

            Population analysis using the SCF Density.

 **********************************************************************

 Orbital symmetries:
       Occupied  (A) (A) (A) (A) (A) (A) (A) (A) (A) (A) (A) (A)
                 (A) (A) (A) (A) (A) (A) (A) (A) (A) (A) (A) (A)
       Virtual   (A) (A) (A) (A) (A) (A) (A) (A) (A) (A) (A) (A)
                 (A) (A) (A) (A) (A) (A) (A) (A) (A) (A) (A) (A)
                 (A) (A) (A) (A) (A) (A) (A) (A) (A) (A) (A) (A)
                 (A) (A) (A) (A) (A) (A) (A) (A) (A) (A) (A) (A)
                 (A) (A) (A) (A) (A) (A) (A) (A) (A) (A) (A) (A)
                 (A) (A) (A) (A) (A) (A) (A) (A) (A) (A) (A) (A)
                 (A) (A) (A) (A) (A) (A) (A) (A) (A) (A) (A) (A)
                 (A) (A) (A) (A) (A) (A) (A) (A) (A) (A) (A) (A)
                 (A) (A) (A) (A) (A) (A)
 The electronic state is 1-A.
 Alpha  occ. eigenvalues --  -19.27125 -19.24770 -19.12412 -10.29874 -10.26349
 Alpha  occ. eigenvalues --  -10.21251  -1.20457  -1.03847  -0.92997  -0.79403
 Alpha  occ. eigenvalues --   -0.67455  -0.61983  -0.54864  -0.53978  -0.52272
 Alpha  occ. eigenvalues --   -0.46137  -0.43701  -0.42655  -0.40846  -0.40088
 Alpha  occ. eigenvalues --   -0.38943  -0.30781  -0.27878  -0.25491
 Alpha virt. eigenvalues --   -0.02437   0.00412   0.01508   0.01963   0.02752
 Alpha virt. eigenvalues --    0.04076   0.04517   0.06894   0.07380   0.08449
 Alpha virt. eigenvalues --    0.09093   0.11041   0.12252   0.13105   0.15208
 Alpha virt. eigenvalues --    0.16013   0.18618   0.19042   0.20535   0.21045
 Alpha virt. eigenvalues --    0.22860   0.24182   0.25005   0.26114   0.26370
 Alpha virt. eigenvalues --    0.27071   0.29830   0.30173   0.30389   0.31071
 Alpha virt. eigenvalues --    0.31883   0.33742   0.36224   0.37106   0.42344
 Alpha virt. eigenvalues --    0.43906   0.61554   0.64088   0.65717   0.67590
 Alpha virt. eigenvalues --    0.70859   0.74871   0.78768   0.80782   0.86174
 Alpha virt. eigenvalues --    0.89072   0.95733   0.96103   0.98595   1.03526
 Alpha virt. eigenvalues --    1.08162   1.09937   1.13211   1.14528   1.19765
 Alpha virt. eigenvalues --    1.22485   1.25994   1.28391   1.30038   1.31243
 Alpha virt. eigenvalues --    1.32820   1.38210   1.43870   1.44966   1.51012
 Alpha virt. eigenvalues --    1.53385   1.60284   1.64117   1.66551   1.69972
 Alpha virt. eigenvalues --    1.76808   1.82024   1.86671   1.87374   1.91508
 Alpha virt. eigenvalues --    1.94971   1.98149   2.03532   2.04064   2.09578
 Alpha virt. eigenvalues --    2.16830   2.19442   2.21767   2.29396   2.36771
 Alpha virt. eigenvalues --    2.40707   2.43002   2.48840   2.64573   2.66201
 Alpha virt. eigenvalues --    2.66654   2.77472   2.82712   2.89363   3.06844
 Alpha virt. eigenvalues --    3.13697   4.02029   4.19402   4.35156   4.39216
 Alpha virt. eigenvalues --    4.50565   4.60736
          Condensed to atoms (all electrons):
               1          2          3          4          5          6
     1  C    5.555831  -0.199986  -0.044705   0.131051  -0.081937   0.070324
     2  C   -0.199986   6.455161   0.025888   0.029201  -0.158939  -0.218326
     3  C   -0.044705   0.025888   5.156291  -0.027608   0.088967   0.356185
     4  O    0.131051   0.029201  -0.027608   8.097471   0.059221   0.010765
     5  O   -0.081937  -0.158939   0.088967   0.059221   8.371630  -0.164940
     6  O    0.070324  -0.218326   0.356185   0.010765  -0.164940   8.496100
     7  H    0.026412   0.003644  -0.021739  -0.023856   0.085023   0.089474
     8  H    0.427228  -0.074055  -0.017764  -0.043511   0.003516  -0.005300
     9  H    0.405612  -0.058564   0.017440  -0.051201   0.009824   0.001023
    10  H    0.054891  -0.184757   0.428155  -0.003456  -0.028684  -0.061076
    11  H   -0.030309   0.382980  -0.029073   0.005940   0.001653  -0.004695
    12  H   -0.018280   0.347499  -0.038443   0.000580   0.006898   0.006553
               7          8          9         10         11         12
     1  C    0.026412   0.427228   0.405612   0.054891  -0.030309  -0.018280
     2  C    0.003644  -0.074055  -0.058564  -0.184757   0.382980   0.347499
     3  C   -0.021739  -0.017764   0.017440   0.428155  -0.029073  -0.038443
     4  O   -0.023856  -0.043511  -0.051201  -0.003456   0.005940   0.000580
     5  O    0.085023   0.003516   0.009824  -0.028684   0.001653   0.006898
     6  O    0.089474  -0.005300   0.001023  -0.061076  -0.004695   0.006553
     7  H    0.413033   0.004455  -0.000169   0.000710   0.000125  -0.000289
     8  H    0.004455   0.508949  -0.036611   0.000072  -0.001573   0.003782
     9  H   -0.000169  -0.036611   0.502185  -0.000086   0.000415  -0.004072
    10  H    0.000710   0.000072  -0.000086   0.616320   0.000898   0.003058
    11  H    0.000125  -0.001573   0.000415   0.000898   0.464561  -0.027214
    12  H   -0.000289   0.003782  -0.004072   0.003058  -0.027214   0.505982
 Mulliken charges:
               1
     1  C   -0.296134
     2  C   -0.349744
     3  C    0.106406
     4  O   -0.184596
     5  O   -0.192233
     6  O   -0.576086
     7  H    0.423176
     8  H    0.230813
     9  H    0.214204
    10  H    0.173955
    11  H    0.236292
    12  H    0.213947
 Sum of Mulliken charges =  -0.00000
 Mulliken charges with hydrogens summed into heavy atoms:
               1
     1  C    0.148884
     2  C    0.100495
     3  C    0.280361
     4  O   -0.184596
     5  O    0.230943
     6  O   -0.576086
 APT charges:
               1
     1  C    0.384892
     2  C   -0.092990
     3  C    0.978734
     4  O   -0.329330
     5  O   -0.367702
     6  O   -0.854423
     7  H    0.368655
     8  H   -0.023034
     9  H    0.014339
    10  H   -0.102508
    11  H    0.042271
    12  H   -0.018903
 Sum of APT charges =  -0.00000
 APT charges with hydrogens summed into heavy atoms:
               1
     1  C    0.376197
     2  C   -0.069622
     3  C    0.876225
     4  O   -0.329330
     5  O    0.000954
     6  O   -0.854423
 Electronic spatial extent (au):  <R**2>=            466.1639
 Charge=             -0.0000 electrons
 Dipole moment (field-independent basis, Debye):
    X=             -1.6294    Y=              1.4188    Z=             -0.7797  Tot=              2.2969
 Quadrupole moment (field-independent basis, Debye-Ang):
   XX=            -40.6215   YY=            -33.6958   ZZ=            -36.3452
   XY=             -3.6698   XZ=             -4.2662   YZ=             -1.7647
 Traceless Quadrupole moment (field-independent basis, Debye-Ang):
   XX=             -3.7340   YY=              3.1917   ZZ=              0.5423
   XY=             -3.6698   XZ=             -4.2662   YZ=             -1.7647
 Octapole moment (field-independent basis, Debye-Ang**2):
  XXX=            -13.2888  YYY=             -5.0677  ZZZ=             -0.8016  XYY=              3.4394
  XXY=              0.9872  XXZ=             -5.0280  XZZ=             -2.4693  YZZ=             -1.9146
  YYZ=              3.5968  XYZ=             -1.2490
 Hexadecapole moment (field-independent basis, Debye-Ang**3):
 XXXX=           -294.1509 YYYY=           -193.9663 ZZZZ=           -103.7928 XXXY=             -5.8779
 XXXZ=            -12.2435 YYYX=             -1.6167 YYYZ=             -2.0308 ZZZX=             -0.4872
 ZZZY=             -0.6189 XXYY=            -79.0585 XXZZ=            -66.8208 YYZZ=            -51.6371
 XXYZ=              1.0791 YYXZ=              2.0017 ZZXY=             -1.1756
 N-N= 2.654311107318D+02 E-N=-1.335337173990D+03  KE= 3.405977110774D+02
  Exact polarizability:  54.220  -2.291  49.027  -0.054  -0.794  46.411
 Approx polarizability:  78.167  -0.501  69.305   4.691   0.607  68.470
 Calling FoFJK, ICntrl=    100127 FMM=F ISym2X=0 I1Cent= 0 IOpClX= 0 NMat=1 NMatS=1 NMatT=0.
 ***** Axes restored to original set *****
 -------------------------------------------------------------------
 Center     Atomic                   Forces (Hartrees/Bohr)
 Number     Number              X              Y              Z
 -------------------------------------------------------------------
      1        6           0.004969101   -0.021762667   -0.003161485
      2        6           0.005838659    0.017798161    0.000147128
      3        6          -0.024469072   -0.025881741    0.013044276
      4        8          -0.017132723    0.028885695   -0.040618668
      5        8           0.050458950    0.011788032    0.043282090
      6        8           0.041695073   -0.005701420    0.004371905
      7        1          -0.052951897   -0.002182397   -0.017051201
      8        1          -0.002024895   -0.000509462   -0.001182011
      9        1          -0.003350195    0.004141912   -0.000547844
     10        1          -0.002029823   -0.003228032    0.002185803
     11        1           0.003630412   -0.003910283    0.001275427
     12        1          -0.004633590    0.000562203   -0.001745419
 -------------------------------------------------------------------
 Cartesian Forces:  Max     0.052951897 RMS     0.020160691
 FormGI is forming the generalized inverse of G from B-inverse, IUseBI=4.

 GradGradGradGradGradGradGradGradGradGradGradGradGradGradGradGradGradGrad
 Berny optimization.
 Internal  Forces:  Max     0.077834618 RMS     0.022579286
 Search for a saddle point.
 Step number   1 out of a maximum of  100
 All quantities printed in internal units (Hartrees-Bohrs-Radians)
 Swapping is turned off.
 Second derivative matrix not updated -- analytic derivatives used.
 ITU=  0
     Eigenvalues ---   -0.81024   0.00467   0.00791   0.03009   0.04471
     Eigenvalues ---    0.04690   0.05430   0.05830   0.06537   0.08987
     Eigenvalues ---    0.09414   0.10668   0.12224   0.14533   0.18993
     Eigenvalues ---    0.21279   0.25129   0.25619   0.27860   0.31571
     Eigenvalues ---    0.32657   0.33782   0.35333   0.36088   0.36255
     Eigenvalues ---    0.39707   0.40952   0.76989   0.78313   1.14890
 Eigenvectors required to have negative eigenvalues:
                          R11       A16       D19       R8        A1
   1                   -0.46974   0.44761   0.35932  -0.31863   0.25276
                          A7        D1        A5        A10       D2
   1                    0.21704  -0.20254  -0.16848  -0.15544  -0.13448
 RFO step:  Lambda0=6.583695695D-03 Lambda=-4.19099627D-02.
 Linear search not attempted -- option 19 set.
 Iteration  1 RMS(Cart)=  0.11997381 RMS(Int)=  0.02144531
 Iteration  2 RMS(Cart)=  0.03721361 RMS(Int)=  0.00227411
 Iteration  3 RMS(Cart)=  0.00230865 RMS(Int)=  0.00020269
 Iteration  4 RMS(Cart)=  0.00000906 RMS(Int)=  0.00020263
 Iteration  5 RMS(Cart)=  0.00000000 RMS(Int)=  0.00020263
 Variable       Old X    -DE/DX   Delta X   Delta X   Delta X     New X
                                 (Linear)    (Quad)   (Total)
    R1        2.91181   0.02231   0.00000  -0.00984  -0.00984   2.90197
    R2        2.67456   0.02925   0.00000   0.03833   0.03833   2.71289
    R3        2.07727  -0.00145   0.00000  -0.00158  -0.00158   2.07569
    R4        2.05681   0.00259   0.00000   0.00666   0.00666   2.06346
    R5        2.89576   0.01216   0.00000  -0.01900  -0.01900   2.87675
    R6        2.05249   0.00405   0.00000   0.01286   0.01286   2.06535
    R7        2.05858   0.00398   0.00000   0.00954   0.00954   2.06812
    R8        2.36540   0.04093   0.00000   0.09091   0.09091   2.45631
    R9        2.08297   0.00267   0.00000  -0.00449  -0.00449   2.07848
   R10        2.57916   0.02275   0.00000   0.10909   0.10909   2.68825
   R11        2.34986  -0.05334   0.00000  -0.16570  -0.16570   2.18416
    A1        1.84251   0.06115   0.00000   0.02872   0.02872   1.87122
    A2        1.90378  -0.01121   0.00000   0.00691   0.00698   1.91075
    A3        2.01054  -0.01285   0.00000  -0.01002  -0.01000   2.00054
    A4        1.91783  -0.00905   0.00000  -0.02002  -0.02017   1.89766
    A5        1.86680  -0.03279   0.00000  -0.00553  -0.00552   1.86128
    A6        1.91949   0.00607   0.00000  -0.00051  -0.00058   1.91892
    A7        1.72401   0.07783   0.00000   0.09161   0.09189   1.81590
    A8        1.94880  -0.01743   0.00000  -0.01832  -0.01862   1.93019
    A9        1.96398  -0.02304   0.00000  -0.02699  -0.02665   1.93733
   A10        1.96308  -0.03418   0.00000  -0.01845  -0.01880   1.94427
   A11        1.93284  -0.01253   0.00000  -0.03227  -0.03201   1.90083
   A12        1.92420   0.01240   0.00000   0.00892   0.00806   1.93226
   A13        2.07174   0.01391   0.00000   0.05619   0.05612   2.12786
   A14        2.04214  -0.00969   0.00000  -0.02001  -0.02008   2.02206
   A15        2.09651  -0.00567   0.00000  -0.02827  -0.02835   2.06817
   A16        1.90326   0.01587   0.00000  -0.07664  -0.07664   1.82662
   A17        2.02763  -0.03044   0.00000  -0.08959  -0.08959   1.93804
    D1       -0.86581  -0.02110   0.00000   0.04365   0.04371  -0.82210
    D2       -2.93445  -0.01684   0.00000   0.02285   0.02287  -2.91158
    D3        1.17404  -0.00204   0.00000   0.04601   0.04574   1.21977
    D4        1.19421  -0.00426   0.00000   0.03919   0.03937   1.23358
    D5       -0.87443  -0.00001   0.00000   0.01839   0.01853  -0.85590
    D6       -3.04913   0.01480   0.00000   0.04155   0.04140  -3.00773
    D7       -2.92106  -0.01469   0.00000   0.03666   0.03680  -2.88426
    D8        1.29349  -0.01044   0.00000   0.01587   0.01596   1.30944
    D9       -0.88121   0.00437   0.00000   0.03902   0.03883  -0.84238
   D10        0.68934   0.00350   0.00000   0.00342   0.00329   0.69263
   D11       -1.36124  -0.01257   0.00000  -0.01052  -0.01034  -1.37158
   D12        2.83889   0.00440   0.00000   0.00440   0.00434   2.84323
   D13       -1.12791  -0.00427   0.00000  -0.00114  -0.00133  -1.12924
   D14        2.41331   0.00096   0.00000  -0.01490  -0.01511   2.39821
   D15        0.92995   0.00499   0.00000   0.02088   0.02072   0.95067
   D16       -1.81201   0.01022   0.00000   0.00712   0.00694  -1.80507
   D17        3.09176  -0.01330   0.00000  -0.00529  -0.00491   3.08684
   D18        0.34980  -0.00807   0.00000  -0.01904  -0.01869   0.33110
   D19        1.23579  -0.01960   0.00000  -0.32734  -0.32734   0.90846
         Item               Value     Threshold  Converged?
 Maximum Force            0.077835     0.000450     NO 
 RMS     Force            0.022579     0.000300     NO 
 Maximum Displacement     0.576300     0.001800     NO 
 RMS     Displacement     0.137655     0.001200     NO 
 Predicted change in Energy=-2.166075D-02
 GradGradGradGradGradGradGradGradGradGradGradGradGradGradGradGradGradGrad

                          Input orientation:                          
 ---------------------------------------------------------------------
 Center     Atomic      Atomic             Coordinates (Angstroms)
 Number     Number       Type             X           Y           Z
 ---------------------------------------------------------------------
      1          6           0        0.748240    1.354641   -2.693606
      2          6           0        0.448306    0.339203   -1.581324
      3          6           0        1.310416    0.802931   -0.415494
      4          8           0        0.668849    2.662691   -2.107391
      5          8           0        1.269830    2.519942   -0.825939
      6          8           0        2.608854    0.794019   -0.474772
      7          1           0        2.314073    2.031590   -0.909394
      8          1           0        1.768884    1.197217   -3.067774
      9          1           0        0.040477    1.341033   -3.524998
     10          1           0        0.830112    0.783382    0.573784
     11          1           0        0.718268   -0.670814   -1.899901
     12          1           0       -0.603940    0.382880   -1.283694
 ---------------------------------------------------------------------
                    Distance matrix (angstroms):
                    1          2          3          4          5
     1  C    0.000000
     2  C    1.535658   0.000000
     3  C    2.410439   1.522312   0.000000
     4  O    1.435599   2.392484   2.594770   0.000000
     5  O    2.262335   2.449720   1.765853   1.422560   0.000000
     6  O    2.949475   2.469673   1.299822   3.149762   2.212491
     7  H    2.468502   2.607058   1.661586   2.130786   1.155810
     8  H    1.098406   2.165559   2.720339   2.068821   2.650373
     9  H    1.091938   2.224378   3.401663   2.037459   3.191560
    10  H    3.317962   2.233285   1.099884   3.278187   2.273371
    11  H    2.175623   1.092935   2.173943   3.340322   3.411530
    12  H    2.181871   1.094401   2.143589   2.737884   2.878817
                    6          7          8          9         10
     6  O    0.000000
     7  H    1.344387   0.000000
     8  H    2.755319   2.377396   0.000000
     9  H    4.024881   3.533765   1.793635   0.000000
    10  H    2.064826   2.441308   3.783318   4.211237   0.000000
    11  H    2.784070   3.291001   2.440750   2.673550   2.871639
    12  H    3.338479   3.372410   3.078373   2.521264   2.380574
                   11         12
    11  H    0.000000
    12  H    1.799505   0.000000
 Stoichiometry    C3H6O3
 Framework group  C1[X(C3H6O3)]
 Deg. of freedom    30
 Full point group                 C1      NOp   1
 Largest Abelian subgroup         C1      NOp   1
 Largest concise Abelian subgroup C1      NOp   1
                         Standard orientation:                         
 ---------------------------------------------------------------------
 Center     Atomic      Atomic             Coordinates (Angstroms)
 Number     Number       Type             X           Y           Z
 ---------------------------------------------------------------------
      1          6           0       -1.192418    0.548336    0.479494
      2          6           0       -0.114963    1.264018   -0.348235
      3          6           0        1.023914    0.256580   -0.422153
      4          8           0       -1.327286   -0.777509   -0.054256
      5          8           0        0.003437   -1.182837   -0.351848
      6          8           0        1.675298   -0.123167    0.636633
      7          1           0        0.695090   -1.040318    0.563139
      8          1           0       -0.863194    0.475860    1.524891
      9          1           0       -2.182228    1.006934    0.431623
     10          1           0        1.511468    0.154897   -1.402814
     11          1           0        0.200047    2.186411    0.146199
     12          1           0       -0.471983    1.470718   -1.361904
 ---------------------------------------------------------------------
 Rotational constants (GHZ):           5.8598073           3.7922127           2.8610283
 Standard basis: 6-31+G(d) (6D, 7F)
 There are   126 symmetry adapted cartesian basis functions of A   symmetry.
 There are   126 symmetry adapted basis functions of A   symmetry.
   126 basis functions,   216 primitive gaussians,   126 cartesian basis functions
    24 alpha electrons       24 beta electrons
       nuclear repulsion energy       262.2598589782 Hartrees.
 NAtoms=   12 NActive=   12 NUniq=   12 SFac= 1.00D+00 NAtFMM=   60 NAOKFM=F Big=F
 Integral buffers will be    131072 words long.
 Raffenetti 2 integral format.
 Two-electron integral symmetry is turned on.
 One-electron integrals computed using PRISM.
 NBasis=   126 RedAO= T EigKep=  1.19D-04  NBF=   126
 NBsUse=   126 1.00D-06 EigRej= -1.00D+00 NBFU=   126
 Initial guess from the checkpoint file:  "/scratch/bell/zhao922/YARP/paper-example/KHP-network/pp_0/TS-folder/Gau-106440.chk"
 B after Tr=    -0.000000   -0.000000   -0.000000
         Rot=    0.999830   -0.018283    0.002372    0.000419 Ang=  -2.11 deg.
 ExpMin= 4.38D-02 ExpMax= 5.48D+03 ExpMxC= 8.25D+02 IAcc=3 IRadAn=         5 AccDes= 0.00D+00
 Harris functional with IExCor=  402 and IRadAn=       5 diagonalized for initial guess.
 HarFok:  IExCor=  402 AccDes= 0.00D+00 IRadAn=         5 IDoV= 1 UseB2=F ITyADJ=14
 ICtDFT=  3500011 ScaDFX=  1.000000  1.000000  1.000000  1.000000
 FoFCou: FMM=F IPFlag=           0 FMFlag=      100000 FMFlg1=           0
         NFxFlg=           0 DoJE=T BraDBF=F KetDBF=T FulRan=T
         wScrn=  0.000000 ICntrl=       500 IOpCl=  0 I1Cent=   200000004 NGrid=           0
         NMat0=    1 NMatS0=      1 NMatT0=    0 NMatD0=    1 NMtDS0=    0 NMtDT0=    0
 Petite list used in FoFCou.
 Keep R1 ints in memory in canonical form, NReq=47237537.
 Requested convergence on RMS density matrix=1.00D-08 within 128 cycles.
 Requested convergence on MAX density matrix=1.00D-06.
 Requested convergence on             energy=1.00D-06.
 No special actions if energy rises.
 SCF Done:  E(RB3LYP) =  -343.442036775     A.U. after   13 cycles
            NFock= 13  Conv=0.34D-08     -V/T= 2.0086
 DoSCS=F DFT=T ScalE2(SS,OS)=  1.000000  1.000000
 Range of M.O.s used for correlation:     1   126
 NBasis=   126 NAE=    24 NBE=    24 NFC=     0 NFV=     0
 NROrb=    126 NOA=    24 NOB=    24 NVA=   102 NVB=   102

 **** Warning!!: The largest alpha MO coefficient is  0.35419107D+02

 Symmetrizing basis deriv contribution to polar:
 IMax=3 JMax=2 DiffMx= 0.00D+00
 G2DrvN: will do    13 centers at a time, making    1 passes.
 Calling FoFCou, ICntrl=  3107 FMM=F I1Cent=   0 AccDes= 0.00D+00.
 End of G2Drv F.D. properties file   721 does not exist.
 End of G2Drv F.D. properties file   722 does not exist.
 End of G2Drv F.D. properties file   788 does not exist.
          IDoAtm=111111111111
          Differentiating once with respect to electric field.
                with respect to dipole field.
          Differentiating once with respect to nuclear coordinates.
 Keep R1 ints in memory in canonical form, NReq=47193552.
          There are    39 degrees of freedom in the 1st order CPHF.  IDoFFX=6 NUNeed=     3.
     36 vectors produced by pass  0 Test12= 6.28D-15 2.56D-09 XBig12= 4.27D+01 2.77D+00.
 AX will form    36 AO Fock derivatives at one time.
     36 vectors produced by pass  1 Test12= 6.28D-15 2.56D-09 XBig12= 1.16D+01 5.66D-01.
     36 vectors produced by pass  2 Test12= 6.28D-15 2.56D-09 XBig12= 1.54D-01 6.17D-02.
     36 vectors produced by pass  3 Test12= 6.28D-15 2.56D-09 XBig12= 6.67D-04 3.52D-03.
     36 vectors produced by pass  4 Test12= 6.28D-15 2.56D-09 XBig12= 1.05D-06 1.16D-04.
     28 vectors produced by pass  5 Test12= 6.28D-15 2.56D-09 XBig12= 9.76D-10 3.77D-06.
      3 vectors produced by pass  6 Test12= 6.28D-15 2.56D-09 XBig12= 7.86D-13 9.15D-08.
 InvSVY:  IOpt=1 It=  1 EMax= 1.78D-15
 Solved reduced A of dimension   211 with    39 vectors.
 Isotropic polarizability for W=    0.000000       49.42 Bohr**3.
 End of Minotr F.D. properties file   721 does not exist.
 End of Minotr F.D. properties file   722 does not exist.
 End of Minotr F.D. properties file   788 does not exist.
 Calling FoFJK, ICntrl=    100127 FMM=F ISym2X=0 I1Cent= 0 IOpClX= 0 NMat=1 NMatS=1 NMatT=0.
 ***** Axes restored to original set *****
 -------------------------------------------------------------------
 Center     Atomic                   Forces (Hartrees/Bohr)
 Number     Number              X              Y              Z
 -------------------------------------------------------------------
      1        6           0.005286075   -0.005005186   -0.002799165
      2        6           0.000757530    0.009097180   -0.000176151
      3        6          -0.000454515   -0.016644497    0.008866093
      4        8          -0.008802232    0.000313611   -0.007074044
      5        8           0.008343897    0.007417821    0.004514655
      6        8          -0.003820199   -0.008690907   -0.000636378
      7        1           0.001602971    0.015993420   -0.001352047
      8        1          -0.001048559   -0.000707468   -0.001954233
      9        1          -0.001142499    0.001706382    0.000554524
     10        1           0.000084378   -0.000415172    0.000295342
     11        1           0.000386111   -0.001054422    0.001701788
     12        1          -0.001192957   -0.002010761   -0.001940384
 -------------------------------------------------------------------
 Cartesian Forces:  Max     0.016644497 RMS     0.005644589
 FormGI is forming the generalized inverse of G from B-inverse, IUseBI=4.

 GradGradGradGradGradGradGradGradGradGradGradGradGradGradGradGradGradGrad
 Berny optimization.
 Internal  Forces:  Max     0.067071765 RMS     0.019108850
 Search for a saddle point.
 Step number   2 out of a maximum of  100
 All quantities printed in internal units (Hartrees-Bohrs-Radians)
 Swapping is turned off.
 Second derivative matrix not updated -- analytic derivatives used.
 ITU=  0  0
     Eigenvalues ---   -0.59564   0.00227   0.00579   0.03279   0.04474
     Eigenvalues ---    0.04836   0.05266   0.05553   0.06205   0.09099
     Eigenvalues ---    0.09261   0.10559   0.13243   0.14482   0.17596
     Eigenvalues ---    0.22191   0.24250   0.25117   0.30324   0.31400
     Eigenvalues ---    0.33329   0.33643   0.34203   0.34789   0.35315
     Eigenvalues ---    0.36505   0.43647   0.71843   0.95119   1.69026
 Eigenvectors required to have negative eigenvalues:
                          R11       R8        A7        A1        A16
   1                   -0.70134  -0.33816   0.29053   0.27062   0.20167
                          A17       A10       A5        D1        R10
   1                   -0.19257  -0.14669  -0.14571  -0.12960  -0.11653
 RFO step:  Lambda0=8.082850337D-03 Lambda=-9.42787495D-03.
 Linear search not attempted -- option 19 set.
 Iteration  1 RMS(Cart)=  0.03638908 RMS(Int)=  0.00102824
 Iteration  2 RMS(Cart)=  0.00205038 RMS(Int)=  0.00014664
 Iteration  3 RMS(Cart)=  0.00000358 RMS(Int)=  0.00014661
 Iteration  4 RMS(Cart)=  0.00000000 RMS(Int)=  0.00014661
 Variable       Old X    -DE/DX   Delta X   Delta X   Delta X     New X
                                 (Linear)    (Quad)   (Total)
    R1        2.90197   0.01974   0.00000  -0.00495  -0.00495   2.89703
    R2        2.71289   0.01996   0.00000   0.00040   0.00040   2.71329
    R3        2.07569  -0.00021   0.00000  -0.00243  -0.00243   2.07326
    R4        2.06346   0.00030   0.00000   0.00182   0.00182   2.06529
    R5        2.87675  -0.00369   0.00000  -0.00564  -0.00564   2.87111
    R6        2.06535   0.00057   0.00000   0.00321   0.00321   2.06855
    R7        2.06812   0.00054   0.00000   0.00142   0.00142   2.06954
    R8        2.45631  -0.00373   0.00000   0.02128   0.02128   2.47759
    R9        2.07848   0.00024   0.00000  -0.00284  -0.00284   2.07564
   R10        2.68825   0.00470   0.00000   0.03108   0.03108   2.71933
   R11        2.18416  -0.00521   0.00000   0.11632   0.11632   2.30048
    A1        1.87122   0.05364   0.00000  -0.02861  -0.02879   1.84243
    A2        1.91075   0.00242   0.00000   0.03041   0.03048   1.94123
    A3        2.00054  -0.02411   0.00000  -0.00393  -0.00441   1.99613
    A4        1.89766  -0.01039   0.00000   0.02053   0.02078   1.91844
    A5        1.86128  -0.02528   0.00000  -0.01590  -0.01632   1.84496
    A6        1.91892   0.00449   0.00000  -0.00298  -0.00300   1.91592
    A7        1.81590   0.05520   0.00000   0.00812   0.00806   1.82396
    A8        1.93019  -0.01093   0.00000   0.01795   0.01803   1.94821
    A9        1.93733  -0.01674   0.00000  -0.00740  -0.00758   1.92975
   A10        1.94427  -0.02380   0.00000  -0.02827  -0.02822   1.91605
   A11        1.90083  -0.00884   0.00000   0.02639   0.02641   1.92724
   A12        1.93226   0.00687   0.00000  -0.01543  -0.01529   1.91697
   A13        2.12786  -0.00734   0.00000  -0.03272  -0.03289   2.09497
   A14        2.02206   0.00241   0.00000   0.01965   0.01948   2.04153
   A15        2.06817   0.00248   0.00000   0.00134   0.00116   2.06932
   A16        1.82662   0.06707   0.00000  -0.00419  -0.00419   1.82243
   A17        1.93804  -0.00064   0.00000   0.05830   0.05830   1.99633
    D1       -0.82210  -0.01805   0.00000  -0.02191  -0.02173  -0.84383
    D2       -2.91158  -0.01622   0.00000  -0.00223  -0.00211  -2.91369
    D3        1.21977  -0.00557   0.00000   0.01004   0.01017   1.22995
    D4        1.23358   0.00109   0.00000   0.00271   0.00266   1.23624
    D5       -0.85590   0.00292   0.00000   0.02238   0.02228  -0.83362
    D6       -3.00773   0.01358   0.00000   0.03465   0.03456  -2.97317
    D7       -2.88426  -0.00881   0.00000   0.01995   0.01992  -2.86434
    D8        1.30944  -0.00698   0.00000   0.03963   0.03954   1.34898
    D9       -0.84238   0.00368   0.00000   0.05190   0.05182  -0.79056
   D10        0.69263   0.02969   0.00000   0.08125   0.08097   0.77360
   D11       -1.37158   0.00279   0.00000   0.05008   0.05005  -1.32153
   D12        2.84323   0.01681   0.00000   0.05155   0.05186   2.89509
   D13       -1.12924  -0.00638   0.00000  -0.01325  -0.01310  -1.14234
   D14        2.39821  -0.00012   0.00000   0.01898   0.01908   2.41729
   D15        0.95067   0.00110   0.00000  -0.00144  -0.00141   0.94926
   D16       -1.80507   0.00737   0.00000   0.03079   0.03077  -1.77430
   D17        3.08684  -0.01185   0.00000  -0.02136  -0.02147   3.06537
   D18        0.33110  -0.00558   0.00000   0.01087   0.01071   0.34181
   D19        0.90846   0.03111   0.00000  -0.06789  -0.06789   0.84056
         Item               Value     Threshold  Converged?
 Maximum Force            0.067072     0.000450     NO 
 RMS     Force            0.019109     0.000300     NO 
 Maximum Displacement     0.159309     0.001800     NO 
 RMS     Displacement     0.036418     0.001200     NO 
 Predicted change in Energy=-7.906051D-04
 GradGradGradGradGradGradGradGradGradGradGradGradGradGradGradGradGradGrad

                          Input orientation:                          
 ---------------------------------------------------------------------
 Center     Atomic      Atomic             Coordinates (Angstroms)
 Number     Number       Type             X           Y           Z
 ---------------------------------------------------------------------
      1          6           0        0.748388    1.352954   -2.697982
      2          6           0        0.445372    0.346336   -1.582135
      3          6           0        1.286620    0.815858   -0.407314
      4          8           0        0.615160    2.648886   -2.094358
      5          8           0        1.294702    2.527592   -0.831720
      6          8           0        2.595134    0.783399   -0.482699
      7          1           0        2.398376    2.018714   -0.901856
      8          1           0        1.767177    1.223345   -3.083922
      9          1           0        0.034718    1.337215   -3.525547
     10          1           0        0.816858    0.786353    0.585106
     11          1           0        0.738359   -0.669729   -1.864958
     12          1           0       -0.618493    0.367791   -1.323119
 ---------------------------------------------------------------------
                    Distance matrix (angstroms):
                    1          2          3          4          5
     1  C    0.000000
     2  C    1.533041   0.000000
     3  C    2.413571   1.519326   0.000000
     4  O    1.435811   2.364940   2.580111   0.000000
     5  O    2.271820   2.458122   1.763582   1.439008   0.000000
     6  O    2.939785   2.453825   1.311085   3.161927   2.203440
     7  H    2.528194   2.659672   1.710975   2.235853   1.217363
     8  H    1.097123   2.184417   2.749766   2.082918   2.645129
     9  H    1.092903   2.219759   3.400360   2.026252   3.203321
    10  H    3.332325   2.242442   1.098382   3.269440   2.295135
    11  H    2.187527   1.094631   2.152274   3.328815   3.405871
    12  H    2.174663   1.095152   2.160768   2.705569   2.926863
                    6          7          8          9         10
     6  O    0.000000
     7  H    1.319246   0.000000
     8  H    2.765036   2.406748   0.000000
     9  H    4.015142   3.596537   1.791483   0.000000
    10  H    2.074242   2.496191   3.815211   4.220504   0.000000
    11  H    2.733099   3.303172   2.475494   2.698238   2.851166
    12  H    3.347601   3.464752   3.086069   2.493423   2.424200
                   11         12
    11  H    0.000000
    12  H    1.791950   0.000000
 Stoichiometry    C3H6O3
 Framework group  C1[X(C3H6O3)]
 Deg. of freedom    30
 Full point group                 C1      NOp   1
 Largest Abelian subgroup         C1      NOp   1
 Largest concise Abelian subgroup C1      NOp   1
                         Standard orientation:                         
 ---------------------------------------------------------------------
 Center     Atomic      Atomic             Coordinates (Angstroms)
 Number     Number       Type             X           Y           Z
 ---------------------------------------------------------------------
      1          6           0       -1.192005    0.537927    0.496815
      2          6           0       -0.129523    1.253585   -0.345313
      3          6           0        1.011079    0.255119   -0.447519
      4          8           0       -1.329882   -0.767400   -0.085132
      5          8           0        0.022437   -1.199703   -0.319849
      6          8           0        1.676181   -0.093618    0.627174
      7          1           0        0.769346   -1.051768    0.630001
      8          1           0       -0.875543    0.448978    1.543532
      9          1           0       -2.185805    0.990069    0.448156
     10          1           0        1.504616    0.160854   -1.424238
     11          1           0        0.221861    2.168880    0.141495
     12          1           0       -0.521666    1.488973   -1.340389
 ---------------------------------------------------------------------
 Rotational constants (GHZ):           5.8661801           3.7864912           2.8634382
 Standard basis: 6-31+G(d) (6D, 7F)
 There are   126 symmetry adapted cartesian basis functions of A   symmetry.
 There are   126 symmetry adapted basis functions of A   symmetry.
   126 basis functions,   216 primitive gaussians,   126 cartesian basis functions
    24 alpha electrons       24 beta electrons
       nuclear repulsion energy       261.6976305296 Hartrees.
 NAtoms=   12 NActive=   12 NUniq=   12 SFac= 1.00D+00 NAtFMM=   60 NAOKFM=F Big=F
 Integral buffers will be    131072 words long.
 Raffenetti 2 integral format.
 Two-electron integral symmetry is turned on.
 One-electron integrals computed using PRISM.
 NBasis=   126 RedAO= T EigKep=  1.17D-04  NBF=   126
 NBsUse=   126 1.00D-06 EigRej= -1.00D+00 NBFU=   126
 Initial guess from the checkpoint file:  "/scratch/bell/zhao922/YARP/paper-example/KHP-network/pp_0/TS-folder/Gau-106440.chk"
 B after Tr=    -0.000000   -0.000000    0.000000
         Rot=    0.999988    0.001813   -0.001666   -0.004200 Ang=   0.56 deg.
 ExpMin= 4.38D-02 ExpMax= 5.48D+03 ExpMxC= 8.25D+02 IAcc=3 IRadAn=         5 AccDes= 0.00D+00
 Harris functional with IExCor=  402 and IRadAn=       5 diagonalized for initial guess.
 HarFok:  IExCor=  402 AccDes= 0.00D+00 IRadAn=         5 IDoV= 1 UseB2=F ITyADJ=14
 ICtDFT=  3500011 ScaDFX=  1.000000  1.000000  1.000000  1.000000
 FoFCou: FMM=F IPFlag=           0 FMFlag=      100000 FMFlg1=           0
         NFxFlg=           0 DoJE=T BraDBF=F KetDBF=T FulRan=T
         wScrn=  0.000000 ICntrl=       500 IOpCl=  0 I1Cent=   200000004 NGrid=           0
         NMat0=    1 NMatS0=      1 NMatT0=    0 NMatD0=    1 NMtDS0=    0 NMtDT0=    0
 Petite list used in FoFCou.
 Keep R1 ints in memory in canonical form, NReq=47237537.
 Requested convergence on RMS density matrix=1.00D-08 within 128 cycles.
 Requested convergence on MAX density matrix=1.00D-06.
 Requested convergence on             energy=1.00D-06.
 No special actions if energy rises.
 SCF Done:  E(RB3LYP) =  -343.442568547     A.U. after   12 cycles
            NFock= 12  Conv=0.44D-08     -V/T= 2.0089
 DoSCS=F DFT=T ScalE2(SS,OS)=  1.000000  1.000000
 Range of M.O.s used for correlation:     1   126
 NBasis=   126 NAE=    24 NBE=    24 NFC=     0 NFV=     0
 NROrb=    126 NOA=    24 NOB=    24 NVA=   102 NVB=   102

 **** Warning!!: The largest alpha MO coefficient is  0.35385064D+02

 Symmetrizing basis deriv contribution to polar:
 IMax=3 JMax=2 DiffMx= 0.00D+00
 G2DrvN: will do    13 centers at a time, making    1 passes.
 Calling FoFCou, ICntrl=  3107 FMM=F I1Cent=   0 AccDes= 0.00D+00.
 End of G2Drv F.D. properties file   721 does not exist.
 End of G2Drv F.D. properties file   722 does not exist.
 End of G2Drv F.D. properties file   788 does not exist.
          IDoAtm=111111111111
          Differentiating once with respect to electric field.
                with respect to dipole field.
          Differentiating once with respect to nuclear coordinates.
 Keep R1 ints in memory in canonical form, NReq=47193552.
          There are    39 degrees of freedom in the 1st order CPHF.  IDoFFX=6 NUNeed=     3.
     36 vectors produced by pass  0 Test12= 6.28D-15 2.56D-09 XBig12= 4.43D+01 2.70D+00.
 AX will form    36 AO Fock derivatives at one time.
     36 vectors produced by pass  1 Test12= 6.28D-15 2.56D-09 XBig12= 1.26D+01 5.64D-01.
     36 vectors produced by pass  2 Test12= 6.28D-15 2.56D-09 XBig12= 1.71D-01 6.99D-02.
     36 vectors produced by pass  3 Test12= 6.28D-15 2.56D-09 XBig12= 7.91D-04 4.48D-03.
     36 vectors produced by pass  4 Test12= 6.28D-15 2.56D-09 XBig12= 1.26D-06 1.43D-04.
     29 vectors produced by pass  5 Test12= 6.28D-15 2.56D-09 XBig12= 1.14D-09 3.98D-06.
      4 vectors produced by pass  6 Test12= 6.28D-15 2.56D-09 XBig12= 8.70D-13 9.67D-08.
      1 vectors produced by pass  7 Test12= 6.28D-15 2.56D-09 XBig12= 6.19D-16 2.69D-09.
 InvSVY:  IOpt=1 It=  1 EMax= 2.22D-15
 Solved reduced A of dimension   214 with    39 vectors.
 Isotropic polarizability for W=    0.000000       49.84 Bohr**3.
 End of Minotr F.D. properties file   721 does not exist.
 End of Minotr F.D. properties file   722 does not exist.
 End of Minotr F.D. properties file   788 does not exist.
 Calling FoFJK, ICntrl=    100127 FMM=F ISym2X=0 I1Cent= 0 IOpClX= 0 NMat=1 NMatS=1 NMatT=0.
 ***** Axes restored to original set *****
 -------------------------------------------------------------------
 Center     Atomic                   Forces (Hartrees/Bohr)
 Number     Number              X              Y              Z
 -------------------------------------------------------------------
      1        6          -0.000210714   -0.001189546   -0.000331952
      2        6           0.000357088    0.001878304    0.000373112
      3        6           0.002842391   -0.001670467    0.000014829
      4        8           0.001759980    0.001595963   -0.001596872
      5        8          -0.002096271    0.000925642    0.001011502
      6        8          -0.000748209    0.000646257    0.000192183
      7        1          -0.001190602   -0.001760771    0.000056415
      8        1          -0.000144119   -0.000347392   -0.000150512
      9        1          -0.000711181    0.000584341    0.000518317
     10        1           0.000157255    0.000219080    0.000108544
     11        1           0.000132927   -0.000137889    0.000342462
     12        1          -0.000148545   -0.000743522   -0.000538030
 -------------------------------------------------------------------
 Cartesian Forces:  Max     0.002842391 RMS     0.001035769
 FormGI is forming the generalized inverse of G from B-inverse, IUseBI=4.

 GradGradGradGradGradGradGradGradGradGradGradGradGradGradGradGradGradGrad
 Berny optimization.
 Internal  Forces:  Max     0.005191962 RMS     0.001390645
 Search for a saddle point.
 Step number   3 out of a maximum of  100
 All quantities printed in internal units (Hartrees-Bohrs-Radians)
 Swapping is turned off.
 Second derivative matrix not updated -- analytic derivatives used.
 ITU=  0  0  0
     Eigenvalues ---   -0.81896   0.00594   0.01652   0.03565   0.03972
     Eigenvalues ---    0.04549   0.05095   0.05550   0.06685   0.09228
     Eigenvalues ---    0.09424   0.10393   0.13065   0.14798   0.16326
     Eigenvalues ---    0.21892   0.23461   0.24548   0.29581   0.30629
     Eigenvalues ---    0.33318   0.33707   0.33951   0.34517   0.35176
     Eigenvalues ---    0.36013   0.43425   0.81797   1.12924   1.40389
 Eigenvectors required to have negative eigenvalues:
                          R11       R8        A7        A1        A16
   1                   -0.64227  -0.32556   0.31907   0.29871   0.24375
                          A17       A10       A5        D1        R10
   1                   -0.20429  -0.15742  -0.15346  -0.13505  -0.12949
 RFO step:  Lambda0=1.820366524D-08 Lambda=-4.05941723D-04.
 Linear search not attempted -- option 19 set.
 Iteration  1 RMS(Cart)=  0.01616697 RMS(Int)=  0.00026248
 Iteration  2 RMS(Cart)=  0.00043447 RMS(Int)=  0.00002885
 Iteration  3 RMS(Cart)=  0.00000018 RMS(Int)=  0.00002885
 Variable       Old X    -DE/DX   Delta X   Delta X   Delta X     New X
                                 (Linear)    (Quad)   (Total)
    R1        2.89703  -0.00028   0.00000   0.00027   0.00027   2.89730
    R2        2.71329   0.00061   0.00000   0.00242   0.00242   2.71571
    R3        2.07326  -0.00004   0.00000  -0.00021  -0.00021   2.07305
    R4        2.06529   0.00006   0.00000   0.00031   0.00031   2.06560
    R5        2.87111   0.00124   0.00000  -0.00521  -0.00521   2.86590
    R6        2.06855   0.00008   0.00000   0.00131   0.00131   2.06987
    R7        2.06954   0.00000   0.00000  -0.00019  -0.00019   2.06935
    R8        2.47759  -0.00077   0.00000  -0.00429  -0.00429   2.47330
    R9        2.07564   0.00002   0.00000   0.00003   0.00003   2.07567
   R10        2.71933  -0.00054   0.00000  -0.00030  -0.00030   2.71903
   R11        2.30048  -0.00035   0.00000   0.01338   0.01338   2.31386
    A1        1.84243   0.00073   0.00000   0.00970   0.00970   1.85213
    A2        1.94123  -0.00256   0.00000  -0.00143  -0.00146   1.93977
    A3        1.99613   0.00213   0.00000  -0.00667  -0.00666   1.98948
    A4        1.91844   0.00075   0.00000   0.00327   0.00326   1.92169
    A5        1.84496  -0.00135   0.00000  -0.00868  -0.00866   1.83630
    A6        1.91592   0.00038   0.00000   0.00398   0.00398   1.91990
    A7        1.82396  -0.00056   0.00000   0.01155   0.01150   1.83546
    A8        1.94821   0.00012   0.00000  -0.00641  -0.00638   1.94183
    A9        1.92975   0.00035   0.00000   0.00473   0.00465   1.93440
   A10        1.91605  -0.00068   0.00000  -0.00645  -0.00642   1.90963
   A11        1.92724   0.00113   0.00000   0.00485   0.00476   1.93200
   A12        1.91697  -0.00034   0.00000  -0.00737  -0.00736   1.90961
   A13        2.09497   0.00054   0.00000   0.00446   0.00440   2.09937
   A14        2.04153   0.00014   0.00000   0.00334   0.00328   2.04481
   A15        2.06932  -0.00042   0.00000  -0.00051  -0.00057   2.06875
   A16        1.82243  -0.00146   0.00000   0.01002   0.01002   1.83245
   A17        1.99633  -0.00056   0.00000  -0.01645  -0.01645   1.97988
    D1       -0.84383  -0.00104   0.00000   0.01242   0.01239  -0.83144
    D2       -2.91369   0.00004   0.00000   0.01653   0.01653  -2.89716
    D3        1.22995   0.00015   0.00000   0.02711   0.02712   1.25707
    D4        1.23624  -0.00107   0.00000   0.02140   0.02138   1.25762
    D5       -0.83362   0.00001   0.00000   0.02551   0.02552  -0.80810
    D6       -2.97317   0.00012   0.00000   0.03609   0.03611  -2.93706
    D7       -2.86434  -0.00098   0.00000   0.02033   0.02031  -2.84403
    D8        1.34898   0.00010   0.00000   0.02445   0.02446   1.37344
    D9       -0.79056   0.00020   0.00000   0.03502   0.03505  -0.75552
   D10        0.77360  -0.00519   0.00000  -0.03812  -0.03810   0.73550
   D11       -1.32153  -0.00297   0.00000  -0.04379  -0.04381  -1.36533
   D12        2.89509  -0.00305   0.00000  -0.04528  -0.04529   2.84980
   D13       -1.14234   0.00082   0.00000   0.02065   0.02068  -1.12166
   D14        2.41729   0.00026   0.00000   0.00210   0.00212   2.41941
   D15        0.94926   0.00030   0.00000   0.01635   0.01636   0.96562
   D16       -1.77430  -0.00026   0.00000  -0.00220  -0.00221  -1.77651
   D17        3.06537   0.00016   0.00000   0.00608   0.00606   3.07143
   D18        0.34181  -0.00040   0.00000  -0.01247  -0.01251   0.32931
   D19        0.84056  -0.00437   0.00000   0.01434   0.01434   0.85491
         Item               Value     Threshold  Converged?
 Maximum Force            0.005192     0.000450     NO 
 RMS     Force            0.001391     0.000300     NO 
 Maximum Displacement     0.048780     0.001800     NO 
 RMS     Displacement     0.016216     0.001200     NO 
 Predicted change in Energy=-2.057069D-04
 GradGradGradGradGradGradGradGradGradGradGradGradGradGradGradGradGradGrad

                          Input orientation:                          
 ---------------------------------------------------------------------
 Center     Atomic      Atomic             Coordinates (Angstroms)
 Number     Number       Type             X           Y           Z
 ---------------------------------------------------------------------
      1          6           0        0.750081    1.352847   -2.701946
      2          6           0        0.449123    0.350736   -1.581295
      3          6           0        1.287678    0.808915   -0.403634
      4          8           0        0.640974    2.657871   -2.110130
      5          8           0        1.285121    2.540557   -0.828882
      6          8           0        2.594285    0.793715   -0.478107
      7          1           0        2.388531    2.012736   -0.884992
      8          1           0        1.759682    1.204629   -3.104644
      9          1           0        0.018595    1.344167   -3.514133
     10          1           0        0.818355    0.776276    0.588911
     11          1           0        0.745524   -0.664503   -1.866206
     12          1           0       -0.615575    0.360768   -1.325445
 ---------------------------------------------------------------------
                    Distance matrix (angstroms):
                    1          2          3          4          5
     1  C    0.000000
     2  C    1.533186   0.000000
     3  C    2.422211   1.516571   0.000000
     4  O    1.437094   2.374730   2.597882   0.000000
     5  O    2.281511   2.461775   1.783095   1.438848   0.000000
     6  O    2.942648   2.452545   1.308816   3.154996   2.210975
     7  H    2.534027   2.647336   1.700814   2.229601   1.224442
     8  H    1.097009   2.183413   2.770349   2.086259   2.681232
     9  H    1.093067   2.215428   3.401804   2.020989   3.200939
    10  H    3.341681   2.242144   1.098397   3.294948   2.310995
    11  H    2.183617   1.095326   2.145695   3.332957   3.411689
    12  H    2.178070   1.095053   2.161699   2.733372   2.934400
                    6          7          8          9         10
     6  O    0.000000
     7  H    1.301500   0.000000
     8  H    2.786416   2.444452   0.000000
     9  H    4.019283   3.602217   1.794028   0.000000
    10  H    2.071897   2.483279   3.835614   4.218659   0.000000
    11  H    2.733338   3.290876   2.460875   2.697934   2.847586
    12  H    3.347929   3.456537   3.085368   2.481854   2.427666
                   11         12
    11  H    0.000000
    12  H    1.787790   0.000000
 Stoichiometry    C3H6O3
 Framework group  C1[X(C3H6O3)]
 Deg. of freedom    30
 Full point group                 C1      NOp   1
 Largest Abelian subgroup         C1      NOp   1
 Largest concise Abelian subgroup C1      NOp   1
                         Standard orientation:                         
 ---------------------------------------------------------------------
 Center     Atomic      Atomic             Coordinates (Angstroms)
 Number     Number       Type             X           Y           Z
 ---------------------------------------------------------------------
      1          6           0       -1.195039    0.547800    0.487802
      2          6           0       -0.118945    1.253810   -0.345403
      3          6           0        1.023371    0.260895   -0.441417
      4          8           0       -1.332928   -0.768724   -0.071651
      5          8           0        0.013001   -1.204401   -0.334222
      6          8           0        1.669919   -0.107526    0.635264
      7          1           0        0.769780   -1.047345    0.615450
      8          1           0       -0.898459    0.480457    1.541811
      9          1           0       -2.187203    0.999270    0.406687
     10          1           0        1.526926    0.168388   -1.413195
     11          1           0        0.231937    2.165695    0.149660
     12          1           0       -0.499237    1.503707   -1.341430
 ---------------------------------------------------------------------
 Rotational constants (GHZ):           5.8311005           3.7789074           2.8515497
 Standard basis: 6-31+G(d) (6D, 7F)
 There are   126 symmetry adapted cartesian basis functions of A   symmetry.
 There are   126 symmetry adapted basis functions of A   symmetry.
   126 basis functions,   216 primitive gaussians,   126 cartesian basis functions
    24 alpha electrons       24 beta electrons
       nuclear repulsion energy       261.3098496333 Hartrees.
 NAtoms=   12 NActive=   12 NUniq=   12 SFac= 1.00D+00 NAtFMM=   60 NAOKFM=F Big=F
 Integral buffers will be    131072 words long.
 Raffenetti 2 integral format.
 Two-electron integral symmetry is turned on.
 One-electron integrals computed using PRISM.
 NBasis=   126 RedAO= T EigKep=  1.17D-04  NBF=   126
 NBsUse=   126 1.00D-06 EigRej= -1.00D+00 NBFU=   126
 Initial guess from the checkpoint file:  "/scratch/bell/zhao922/YARP/paper-example/KHP-network/pp_0/TS-folder/Gau-106440.chk"
 B after Tr=     0.000000    0.000000   -0.000000
         Rot=    0.999994   -0.000379    0.002212    0.002564 Ang=  -0.39 deg.
 ExpMin= 4.38D-02 ExpMax= 5.48D+03 ExpMxC= 8.25D+02 IAcc=3 IRadAn=         5 AccDes= 0.00D+00
 Harris functional with IExCor=  402 and IRadAn=       5 diagonalized for initial guess.
 HarFok:  IExCor=  402 AccDes= 0.00D+00 IRadAn=         5 IDoV= 1 UseB2=F ITyADJ=14
 ICtDFT=  3500011 ScaDFX=  1.000000  1.000000  1.000000  1.000000
 FoFCou: FMM=F IPFlag=           0 FMFlag=      100000 FMFlg1=           0
         NFxFlg=           0 DoJE=T BraDBF=F KetDBF=T FulRan=T
         wScrn=  0.000000 ICntrl=       500 IOpCl=  0 I1Cent=   200000004 NGrid=           0
         NMat0=    1 NMatS0=      1 NMatT0=    0 NMatD0=    1 NMtDS0=    0 NMtDT0=    0
 Petite list used in FoFCou.
 Keep R1 ints in memory in canonical form, NReq=47237537.
 Requested convergence on RMS density matrix=1.00D-08 within 128 cycles.
 Requested convergence on MAX density matrix=1.00D-06.
 Requested convergence on             energy=1.00D-06.
 No special actions if energy rises.
 SCF Done:  E(RB3LYP) =  -343.442779159     A.U. after   11 cycles
            NFock= 11  Conv=0.44D-08     -V/T= 2.0089
 DoSCS=F DFT=T ScalE2(SS,OS)=  1.000000  1.000000
 Range of M.O.s used for correlation:     1   126
 NBasis=   126 NAE=    24 NBE=    24 NFC=     0 NFV=     0
 NROrb=    126 NOA=    24 NOB=    24 NVA=   102 NVB=   102

 **** Warning!!: The largest alpha MO coefficient is  0.36073490D+02

 Symmetrizing basis deriv contribution to polar:
 IMax=3 JMax=2 DiffMx= 0.00D+00
 G2DrvN: will do    13 centers at a time, making    1 passes.
 Calling FoFCou, ICntrl=  3107 FMM=F I1Cent=   0 AccDes= 0.00D+00.
 End of G2Drv F.D. properties file   721 does not exist.
 End of G2Drv F.D. properties file   722 does not exist.
 End of G2Drv F.D. properties file   788 does not exist.
          IDoAtm=111111111111
          Differentiating once with respect to electric field.
                with respect to dipole field.
          Differentiating once with respect to nuclear coordinates.
 Keep R1 ints in memory in canonical form, NReq=47193552.
          There are    39 degrees of freedom in the 1st order CPHF.  IDoFFX=6 NUNeed=     3.
     36 vectors produced by pass  0 Test12= 6.28D-15 2.56D-09 XBig12= 4.44D+01 2.87D+00.
 AX will form    36 AO Fock derivatives at one time.
     36 vectors produced by pass  1 Test12= 6.28D-15 2.56D-09 XBig12= 1.24D+01 7.07D-01.
     36 vectors produced by pass  2 Test12= 6.28D-15 2.56D-09 XBig12= 1.67D-01 6.85D-02.
     36 vectors produced by pass  3 Test12= 6.28D-15 2.56D-09 XBig12= 7.29D-04 4.40D-03.
     36 vectors produced by pass  4 Test12= 6.28D-15 2.56D-09 XBig12= 1.15D-06 1.37D-04.
     28 vectors produced by pass  5 Test12= 6.28D-15 2.56D-09 XBig12= 1.09D-09 3.95D-06.
      4 vectors produced by pass  6 Test12= 6.28D-15 2.56D-09 XBig12= 8.50D-13 9.48D-08.
      1 vectors produced by pass  7 Test12= 6.28D-15 2.56D-09 XBig12= 5.98D-16 2.66D-09.
 InvSVY:  IOpt=1 It=  1 EMax= 2.66D-15
 Solved reduced A of dimension   213 with    39 vectors.
 Isotropic polarizability for W=    0.000000       49.90 Bohr**3.
 End of Minotr F.D. properties file   721 does not exist.
 End of Minotr F.D. properties file   722 does not exist.
 End of Minotr F.D. properties file   788 does not exist.
 Calling FoFJK, ICntrl=    100127 FMM=F ISym2X=0 I1Cent= 0 IOpClX= 0 NMat=1 NMatS=1 NMatT=0.
 ***** Axes restored to original set *****
 -------------------------------------------------------------------
 Center     Atomic                   Forces (Hartrees/Bohr)
 Number     Number              X              Y              Z
 -------------------------------------------------------------------
      1        6          -0.000129552   -0.000051265    0.000022133
      2        6           0.000000624    0.000075354   -0.000026690
      3        6           0.000275241   -0.000256986    0.000065510
      4        8           0.000252201    0.000110917   -0.000072424
      5        8           0.000099909   -0.000114741    0.000069674
      6        8          -0.000202328    0.000010481    0.000045049
      7        1          -0.000276653    0.000233519   -0.000077031
      8        1          -0.000026366   -0.000017031   -0.000034837
      9        1          -0.000011985   -0.000002485    0.000001465
     10        1          -0.000002422    0.000038228    0.000006597
     11        1           0.000022661   -0.000005599    0.000020959
     12        1          -0.000001330   -0.000020391   -0.000020405
 -------------------------------------------------------------------
 Cartesian Forces:  Max     0.000276653 RMS     0.000113932
 FormGI is forming the generalized inverse of G from B-inverse, IUseBI=4.

 GradGradGradGradGradGradGradGradGradGradGradGradGradGradGradGradGradGrad
 Berny optimization.
 Internal  Forces:  Max     0.000418598 RMS     0.000141697
 Search for a saddle point.
 Step number   4 out of a maximum of  100
 All quantities printed in internal units (Hartrees-Bohrs-Radians)
 Swapping is turned off.
 Second derivative matrix not updated -- analytic derivatives used.
 ITU=  0  0  0  0
     Eigenvalues ---   -0.78981   0.00555   0.01539   0.03506   0.03928
     Eigenvalues ---    0.04534   0.05115   0.05356   0.06728   0.09236
     Eigenvalues ---    0.09405   0.10440   0.12988   0.14345   0.16414
     Eigenvalues ---    0.22029   0.23460   0.24598   0.29715   0.30741
     Eigenvalues ---    0.33215   0.33781   0.33887   0.34442   0.35150
     Eigenvalues ---    0.35498   0.43544   0.80370   1.10641   1.47487
 Eigenvectors required to have negative eigenvalues:
                          R11       R8        A7        A1        A16
   1                   -0.65455  -0.32699   0.31470   0.30968   0.23537
                          A17       A5        A10       D1        R10
   1                   -0.18926  -0.15444  -0.15365  -0.13045  -0.12864
 RFO step:  Lambda0=9.510885927D-07 Lambda=-2.55484225D-06.
 Linear search not attempted -- option 19 set.
 Iteration  1 RMS(Cart)=  0.00189087 RMS(Int)=  0.00000306
 Iteration  2 RMS(Cart)=  0.00000573 RMS(Int)=  0.00000005
 Iteration  3 RMS(Cart)=  0.00000000 RMS(Int)=  0.00000005
 Variable       Old X    -DE/DX   Delta X   Delta X   Delta X     New X
                                 (Linear)    (Quad)   (Total)
    R1        2.89730   0.00015   0.00000  -0.00020  -0.00020   2.89710
    R2        2.71571   0.00017   0.00000   0.00054   0.00054   2.71625
    R3        2.07305  -0.00001   0.00000  -0.00003  -0.00003   2.07301
    R4        2.06560   0.00001   0.00000   0.00003   0.00003   2.06563
    R5        2.86590   0.00007   0.00000   0.00018   0.00018   2.86609
    R6        2.06987   0.00001   0.00000   0.00002   0.00002   2.06988
    R7        2.06935  -0.00000   0.00000  -0.00001  -0.00001   2.06934
    R8        2.47330  -0.00020   0.00000   0.00039   0.00039   2.47369
    R9        2.07567   0.00001   0.00000   0.00004   0.00004   2.07571
   R10        2.71903  -0.00009   0.00000   0.00030   0.00030   2.71933
   R11        2.31386  -0.00035   0.00000   0.00051   0.00051   2.31437
    A1        1.85213   0.00042   0.00000   0.00059   0.00059   1.85272
    A2        1.93977  -0.00008   0.00000   0.00006   0.00006   1.93983
    A3        1.98948  -0.00009   0.00000  -0.00022  -0.00022   1.98926
    A4        1.92169  -0.00009   0.00000   0.00002   0.00002   1.92171
    A5        1.83630  -0.00018   0.00000  -0.00025  -0.00025   1.83605
    A6        1.91990   0.00003   0.00000  -0.00018  -0.00018   1.91971
    A7        1.83546   0.00039   0.00000   0.00024   0.00024   1.83570
    A8        1.94183  -0.00008   0.00000  -0.00014  -0.00014   1.94169
    A9        1.93440  -0.00012   0.00000   0.00029   0.00029   1.93469
   A10        1.90963  -0.00018   0.00000  -0.00024  -0.00024   1.90938
   A11        1.93200  -0.00006   0.00000   0.00002   0.00002   1.93202
   A12        1.90961   0.00005   0.00000  -0.00016  -0.00016   1.90945
   A13        2.09937   0.00005   0.00000   0.00024   0.00024   2.09961
   A14        2.04481  -0.00000   0.00000  -0.00038  -0.00038   2.04443
   A15        2.06875  -0.00004   0.00000  -0.00021  -0.00021   2.06854
   A16        1.83245   0.00035   0.00000   0.00069   0.00069   1.83314
   A17        1.97988  -0.00018   0.00000  -0.00089  -0.00089   1.97899
    D1       -0.83144  -0.00010   0.00000   0.00315   0.00315  -0.82829
    D2       -2.89716  -0.00008   0.00000   0.00338   0.00338  -2.89379
    D3        1.25707  -0.00001   0.00000   0.00347   0.00347   1.26054
    D4        1.25762   0.00000   0.00000   0.00357   0.00357   1.26119
    D5       -0.80810   0.00003   0.00000   0.00379   0.00379  -0.80431
    D6       -2.93706   0.00010   0.00000   0.00389   0.00389  -2.93316
    D7       -2.84403  -0.00009   0.00000   0.00320   0.00320  -2.84083
    D8        1.37344  -0.00007   0.00000   0.00342   0.00342   1.37686
    D9       -0.75552   0.00000   0.00000   0.00352   0.00352  -0.75200
   D10        0.73550   0.00001   0.00000  -0.00480  -0.00480   0.73070
   D11       -1.36533  -0.00009   0.00000  -0.00523  -0.00523  -1.37057
   D12        2.84980   0.00002   0.00000  -0.00488  -0.00488   2.84492
   D13       -1.12166   0.00001   0.00000  -0.00089  -0.00089  -1.12255
   D14        2.41941  -0.00002   0.00000   0.00011   0.00011   2.41952
   D15        0.96562   0.00004   0.00000  -0.00105  -0.00105   0.96457
   D16       -1.77651   0.00002   0.00000  -0.00005  -0.00005  -1.77655
   D17        3.07143  -0.00005   0.00000  -0.00139  -0.00139   3.07004
   D18        0.32931  -0.00007   0.00000  -0.00039  -0.00039   0.32892
   D19        0.85491   0.00022   0.00000   0.00530   0.00530   0.86020
         Item               Value     Threshold  Converged?
 Maximum Force            0.000419     0.000450     YES
 RMS     Force            0.000142     0.000300     YES
 Maximum Displacement     0.005712     0.001800     NO 
 RMS     Displacement     0.001891     0.001200     NO 
 Predicted change in Energy=-8.018762D-07
 GradGradGradGradGradGradGradGradGradGradGradGradGradGradGradGradGradGrad

                          Input orientation:                          
 ---------------------------------------------------------------------
 Center     Atomic      Atomic             Coordinates (Angstroms)
 Number     Number       Type             X           Y           Z
 ---------------------------------------------------------------------
      1          6           0        0.749734    1.352641   -2.702525
      2          6           0        0.449449    0.350785   -1.581612
      3          6           0        1.287481    0.809772   -0.403768
      4          8           0        0.643996    2.658296   -2.110802
      5          8           0        1.284547    2.539520   -0.827707
      6          8           0        2.594346    0.794606   -0.477299
      7          1           0        2.388964    2.013047   -0.882563
      8          1           0        1.758126    1.202730   -3.107572
      9          1           0        0.016479    1.345166   -3.513149
     10          1           0        0.817631    0.776747    0.588538
     11          1           0        0.746895   -0.664254   -1.866179
     12          1           0       -0.615277    0.359657   -1.325865
 ---------------------------------------------------------------------
                    Distance matrix (angstroms):
                    1          2          3          4          5
     1  C    0.000000
[...]
    D7       -2.84083  -0.00000   0.00000   0.00001   0.00001  -2.84082
    D8        1.37686   0.00000   0.00000   0.00001   0.00001   1.37687
    D9       -0.75200   0.00000   0.00000   0.00001   0.00001  -0.75198
   D10        0.73070  -0.00000   0.00000  -0.00002  -0.00002   0.73068
   D11       -1.37057  -0.00000   0.00000  -0.00002  -0.00002  -1.37059
   D12        2.84492  -0.00000   0.00000  -0.00002  -0.00002   2.84490
   D13       -1.12255   0.00000   0.00000  -0.00000  -0.00000  -1.12255
   D14        2.41952  -0.00000   0.00000   0.00000   0.00000   2.41952
   D15        0.96457   0.00000   0.00000  -0.00000  -0.00000   0.96457
   D16       -1.77655  -0.00000   0.00000   0.00001   0.00001  -1.77655
   D17        3.07004   0.00000   0.00000  -0.00000  -0.00000   3.07004
   D18        0.32892  -0.00000   0.00000   0.00000   0.00000   0.32892
   D19        0.86020  -0.00000   0.00000   0.00002   0.00002   0.86022
         Item               Value     Threshold  Converged?
 Maximum Force            0.000004     0.000450     YES
 RMS     Force            0.000001     0.000300     YES
 Maximum Displacement     0.000026     0.001800     YES
 RMS     Displacement     0.000008     0.001200     YES
 Predicted change in Energy=-3.646233D-11
 Optimization completed.
    -- Stationary point found.
                           ----------------------------
                           !   Optimized Parameters   !
                           ! (Angstroms and Degrees)  !
 --------------------------                            --------------------------
 ! Name  Definition              Value          Derivative Info.                !
 --------------------------------------------------------------------------------
 ! R1    R(1,2)                  1.5331         -DE/DX =    0.0                 !
 ! R2    R(1,4)                  1.4374         -DE/DX =    0.0                 !
 ! R3    R(1,8)                  1.097          -DE/DX =    0.0                 !
 ! R4    R(1,9)                  1.0931         -DE/DX =    0.0                 !
 ! R5    R(2,3)                  1.5167         -DE/DX =    0.0                 !
 ! R6    R(2,11)                 1.0953         -DE/DX =    0.0                 !
 ! R7    R(2,12)                 1.095          -DE/DX =    0.0                 !
 ! R8    R(3,6)                  1.309          -DE/DX =    0.0                 !
 ! R9    R(3,10)                 1.0984         -DE/DX =    0.0                 !
 ! R10   R(4,5)                  1.439          -DE/DX =    0.0                 !
 ! R11   R(5,7)                  1.2247         -DE/DX =    0.0                 !
 ! A1    A(2,1,4)              106.1531         -DE/DX =    0.0                 !
 ! A2    A(2,1,8)              111.144          -DE/DX =    0.0                 !
 ! A3    A(2,1,9)              113.9762         -DE/DX =    0.0                 !
 ! A4    A(4,1,8)              110.1059         -DE/DX =    0.0                 !
 ! A5    A(4,1,9)              105.198          -DE/DX =    0.0                 !
 ! A6    A(8,1,9)              109.9913         -DE/DX =    0.0                 !
 ! A7    A(1,2,3)              105.178          -DE/DX =    0.0                 !
 ! A8    A(1,2,11)             111.2504         -DE/DX =    0.0                 !
 ! A9    A(1,2,12)             110.8493         -DE/DX =    0.0                 !
 ! A10   A(3,2,11)             109.3997         -DE/DX =    0.0                 !
 ! A11   A(3,2,12)             110.6968         -DE/DX =    0.0                 !
 ! A12   A(11,2,12)            109.4037         -DE/DX =    0.0                 !
 ! A13   A(2,3,6)              120.2987         -DE/DX =    0.0                 !
 ! A14   A(2,3,10)             117.1373         -DE/DX =    0.0                 !
 ! A15   A(6,3,10)             118.5187         -DE/DX =    0.0                 !
 ! A16   A(1,4,5)              105.0311         -DE/DX =    0.0                 !
 ! A17   A(4,5,7)              113.388          -DE/DX =    0.0                 !
 ! D1    D(4,1,2,3)            -47.4575         -DE/DX =    0.0                 !
 ! D2    D(4,1,2,11)          -165.8017         -DE/DX =    0.0                 !
 ! D3    D(4,1,2,12)            72.2237         -DE/DX =    0.0                 !
 ! D4    D(8,1,2,3)             72.2609         -DE/DX =    0.0                 !
 ! D5    D(8,1,2,11)           -46.0833         -DE/DX =    0.0                 !
 ! D6    D(8,1,2,12)          -168.0579         -DE/DX =    0.0                 !
 ! D7    D(9,1,2,3)           -162.7675         -DE/DX =    0.0                 !
 ! D8    D(9,1,2,11)            78.8883         -DE/DX =    0.0                 !
 ! D9    D(9,1,2,12)           -43.0863         -DE/DX =    0.0                 !
 ! D10   D(2,1,4,5)             41.866          -DE/DX =    0.0                 !
 ! D11   D(8,1,4,5)            -78.5277         -DE/DX =    0.0                 !
 ! D12   D(9,1,4,5)            163.0021         -DE/DX =    0.0                 !
 ! D13   D(1,2,3,6)            -64.3173         -DE/DX =    0.0                 !
 ! D14   D(1,2,3,10)           138.6282         -DE/DX =    0.0                 !
 ! D15   D(11,2,3,6)            55.2656         -DE/DX =    0.0                 !
 ! D16   D(11,2,3,10)         -101.789          -DE/DX =    0.0                 !
 ! D17   D(12,2,3,6)           175.9002         -DE/DX =    0.0                 !
 ! D18   D(12,2,3,10)           18.8457         -DE/DX =    0.0                 !
 ! D19   D(1,4,5,7)             49.2861         -DE/DX =    0.0                 !
 --------------------------------------------------------------------------------
 GradGradGradGradGradGradGradGradGradGradGradGradGradGradGradGradGradGrad


 ----------------------------------------------------------------------

 Electric dipole moment (input orientation):
 (Debye = 10**-18 statcoulomb cm , SI units = C m)
                  (au)            (Debye)         (10**-30 SI)
   Tot        0.126508D+01      0.321551D+01      0.107258D+02
   x         -0.866815D+00     -0.220322D+01     -0.734917D+01
   y         -0.716486D+00     -0.182113D+01     -0.607462D+01
   z         -0.579399D+00     -0.147269D+01     -0.491235D+01

 Dipole polarizability, Alpha (input orientation).
 (esu units = cm**3 , SI units = C**2 m**2 J**-1)
 Alpha(0;0):
               (au)            (10**-24 esu)      (10**-40 SI)
   iso        0.498827D+02      0.739186D+01      0.822455D+01
   aniso      0.101449D+02      0.150332D+01      0.167267D+01
   xx         0.481736D+02      0.713859D+01      0.794275D+01
   yx        -0.778045D+00     -0.115294D+00     -0.128282D+00
   yy         0.493570D+02      0.731396D+01      0.813788D+01
   zx         0.463825D+01      0.687317D+00      0.764744D+00
   zy        -0.284463D+01     -0.421531D+00     -0.469016D+00
   zz         0.521175D+02      0.772302D+01      0.859302D+01

 ----------------------------------------------------------------------

 Dipole orientation:
     6          3.77951152         -4.50908072         -0.07945032
     6          2.44730686         -1.98372792          0.41147545
     6          1.76506717         -0.97816434         -2.18426139
     8          2.22115972         -5.85348330         -1.85205623
     8          1.44022021         -3.98298694         -3.66482881
     8          3.54229374         -0.37719244         -3.79653730
     1          3.19105637         -2.71019495         -4.48390440
     1          5.67135169         -4.21442960         -0.87412568
     1          3.89341356         -5.73444672          1.57956192
     1         -0.10515813         -0.10378070         -2.39937129
     1          3.70739897         -0.64252905          1.35898202
     1          0.74754482         -2.25861542          1.55925952

 Electric dipole moment (dipole orientation):
 (Debye = 10**-18 statcoulomb cm , SI units = C m)
                  (au)            (Debye)         (10**-30 SI)
   Tot        0.126508D+01      0.321551D+01      0.107258D+02
   x          0.000000D+00      0.000000D+00      0.000000D+00
   y          0.000000D+00      0.000000D+00      0.000000D+00
   z          0.126508D+01      0.321551D+01      0.107258D+02

 Dipole polarizability, Alpha (dipole orientation).
 (esu units = cm**3 , SI units = C**2 m**2 J**-1)
 Alpha(0;0):
               (au)            (10**-24 esu)      (10**-40 SI)
   iso        0.498827D+02      0.739186D+01      0.822455D+01
   aniso      0.101449D+02      0.150332D+01      0.167267D+01
   xx         0.450429D+02      0.667466D+01      0.742657D+01
   yx        -0.974562D+00     -0.144415D+00     -0.160684D+00
   yy         0.543933D+02      0.806026D+01      0.896825D+01
   zx         0.859571D+00      0.127375D+00      0.141724D+00
   zy        -0.326784D+01     -0.484244D+00     -0.538794D+00
   zz         0.502120D+02      0.744065D+01      0.827884D+01

 ----------------------------------------------------------------------
 1\1\GINC-BELL-A094\Freq\RB3LYP\6-31+G(d)\C3H6O3\ZHAO922\23-Dec-2020\0\
 \#N Geom=AllCheck Guess=TCheck SCRF=Check GenChk RB3LYP/6-31+G(d) Freq
 \\pp_22_1 TS\\0,1\C,0.7497342149,1.3526408057,-2.7025249159\C,0.449449
 3464,0.3507854264,-1.5816120164\C,1.28748077,0.8097724194,-0.403767786
 9\O,0.6439960975,2.6582964719,-2.1108019609\O,1.2845470412,2.539520358
 3,-0.8277070495\O,2.5943455293,0.7946056469,-0.4772988942\H,2.38896389
 03,2.0130469801,-0.8825630902\H,1.7581261454,1.2027299973,-3.107572464
 5\H,0.016478913,1.345166317,-3.5131489233\H,0.8176307652,0.7767465026,
 0.5885378231\H,0.7468954791,-0.6642543559,-1.8661792405\H,-0.615277192
 3,0.3596574304,-1.3258654808\\Version=ES64L-G16RevB.01\State=1-A\HF=-3
 43.4427799\RMSD=3.334e-09\RMSF=1.316e-06\ZeroPoint=0.0901837\Thermal=0
 .0954714\Dipole=-0.8668154,-0.7164862,-0.5793995\DipoleDeriv=0.2879321
 ,-0.0074076,-0.1365084,-0.0244436,0.4841139,0.1124555,-0.0180451,0.009
 4219,0.3824685,0.0549942,-0.0314894,-0.0754162,-0.0663714,-0.0717437,-
 0.0080798,-0.1777668,0.0360537,-0.2827833,1.1584766,-0.1415479,0.22127
 07,-0.1410106,0.8024175,-0.0988024,0.11005,0.0363655,0.7203024,-0.2223
 172,0.0681413,0.0949028,0.0530842,-0.4521984,-0.052723,-0.0107006,0.15
 11437,-0.3317739,-0.3936665,0.1493935,-0.2333571,0.2521413,-0.8294196,
 0.179457,-0.0346723,-0.1348042,-0.1226759,-1.1880936,0.1332136,-0.1938
 315,0.1608708,-0.7012802,0.1502521,-0.0577148,0.0160416,-0.5492955,0.4
 787156,-0.1836093,0.1956314,-0.2211209,0.6516431,-0.2132354,0.0738866,
 -0.0689394,0.229049,-0.0894676,0.0251198,0.10299,-0.020945,-0.0117994,
 -0.0352069,0.031729,-0.0052339,0.0036391,0.0196766,0.0096208,-0.085321
 9,0.0031019,0.0589449,-0.0097574,-0.067071,-0.0131964,-0.0323482,-0.05
 12004,-0.015758,0.0667112,-0.0268075,0.0366573,-0.005894,0.091479,0.01
 16929,-0.1277982,0.0560976,0.0301389,0.011179,0.0127499,-0.0251505,-0.
 0311818,0.0132235,-0.049191,0.1013529,-0.1111473,-0.0358157,0.0317498,
 0.018751,0.0578151,0.0127162,0.0456026,0.0106456,0.0098632\Polar=48.17
 36065,-0.7780451,49.3570359,4.6382472,-2.8446312,52.1175386\Quadrupole
 =-1.3947907,-1.2822432,2.6770339,3.550195,-1.6118013,0.8338188\PG=C01 
 [X(C3H6O3)]\NImag=1\\0.62714814,-0.03062365,0.37673643,0.05064814,-0.0
 0799595,0.57960443,-0.09343176,-0.01687318,0.02230605,0.59173490,-0.01
 354857,-0.09672825,0.04399181,-0.02323341,0.56230758,0.01444058,0.0430
 0459,-0.13162687,-0.04842939,0.04610578,0.42800049,0.01489478,0.015358
 22,-0.00727784,-0.10724173,-0.01895157,-0.02260725,0.61763531,0.012133
 93,0.02146004,0.01343078,-0.01264539,-0.07212090,-0.02117386,0.1069865
 7,0.14840864,-0.01333917,0.00880901,-0.04143148,-0.04159616,-0.0252426
 9,-0.15925751,-0.08481024,0.03408654,0.61308489,-0.07419637,0.02414958
 ,0.00202324,0.00448363,-0.00942564,-0.00495262,-0.00622922,0.01474551,
 -0.00350700,0.13384615,0.04619591,-0.17057590,-0.01013150,0.00329119,-
 0.05423359,-0.00030976,0.00125680,-0.00456524,0.00602414,-0.06057378,0
 .31799046,0.00912495,-0.04643875,-0.07952695,-0.00715987,0.00713703,0.
 00282863,-0.00050844,0.01358086,-0.01857338,0.08429688,0.02811988,0.27
 759971,-0.00454759,-0.00203161,-0.01479581,0.00581045,-0.01423941,0.00
 209973,-0.07555630,0.01665361,-0.01655938,-0.07964608,-0.00851794,-0.0
 7359626,0.17131196,-0.01817524,-0.01456192,-0.03223109,-0.00591054,-0.
 03482802,-0.01355833,-0.02622026,0.03937596,-0.03295244,0.01939075,-0.
 04784564,0.04037041,-0.05062550,0.14512385,-0.02378292,-0.00785416,-0.
 04638857,0.00460306,-0.00276064,0.00927899,0.00364811,-0.03669415,-0.0
 2189451,-0.05920628,-0.01665995,-0.16251224,0.08912010,0.03234026,0.25
 477669,-0.00499589,-0.00269224,0.00669548,-0.03570075,0.00217818,-0.01
 258622,-0.38042257,-0.04123932,0.03558409,0.00562295,0.01059300,-0.001
 27435,-0.00342110,0.06225410,-0.02456669,0.50592275,-0.00420520,-0.008
 06043,-0.00021110,-0.01733551,0.00886509,-0.00267257,0.04052275,-0.095
 48391,0.00182862,0.01080265,-0.00313790,-0.00168150,0.10782554,-0.0518
 1667,0.01754692,-0.07557642,0.09516562,0.00440544,0.00122938,-0.001348
 51,-0.02644628,-0.00257486,0.01630059,0.00631095,0.01145044,-0.1068847
 0,-0.00005292,-0.00393629,0.00483879,-0.03332583,0.02056368,0.01791695
 ,0.00619957,-0.00559557,0.07712431,-0.00171036,-0.00799143,-0.00162983
 ,-0.00488780,0.00459819,-0.00337407,0.04035513,-0.08258622,0.02879311,
 0.00708891,0.00560071,-0.00875060,-0.02126579,0.02961701,0.00607926,-0
 .05844813,-0.05543347,0.01851511,0.04359111,-0.00074364,0.01144424,-0.
 00086972,0.00321493,-0.00425861,0.00468192,-0.10137046,0.02637139,0.00
 301214,-0.01063313,-0.01102809,0.00390862,-0.03939336,-0.02538326,0.00
 015475,0.04320682,0.03156376,-0.01954718,0.09923329,-0.01937749,-0.005
 92729,-0.00066311,0.00151846,-0.00177801,0.00283118,-0.00291593,0.0336
 8187,-0.00161273,0.01008119,-0.02123126,0.00588448,-0.00243508,0.05011
 770,-0.00834803,-0.04815532,-0.01585032,-0.00905885,-0.01612815,-0.041
 86752,0.01187932,0.05900870,-0.27737792,0.02432357,0.08281507,-0.00507
 758,-0.00050833,0.00288260,-0.00233837,0.00017905,-0.00069344,0.004763
 44,0.00697578,0.00033053,0.00289356,-0.00092581,0.00112874,0.00119951,
 0.00031680,-0.00200686,-0.00085810,0.00088543,0.00098052,0.29299739,0.
 02088261,-0.04891055,-0.00898526,-0.02205460,0.00193963,0.00956901,-0.
 00176418,-0.00135632,-0.00115585,0.03380294,-0.02239477,-0.02027305,-0
 .00068764,0.00261877,0.00260144,0.00088127,0.00130311,-0.00080511,0.00
 080798,-0.00080016,0.00015925,-0.03166338,0.06605323,0.07889865,-0.007
 91368,-0.08736223,0.02172769,0.00035259,-0.00896128,0.00354259,0.00051
 735,0.00035671,0.01212799,-0.01279014,-0.00665223,0.00108558,0.0003605
 5,0.00254370,-0.00191251,0.00077842,0.00104795,0.00047437,-0.00109703,
 -0.00105347,-0.09393879,0.01428670,0.09093918,-0.18082209,0.00189473,-
 0.13841318,0.00607278,0.00002782,0.00840156,-0.00136216,-0.00045873,0.
 00150560,0.00238152,-0.00244336,-0.00021247,0.00253333,-0.00005038,0.0
 0431452,0.00138424,-0.00033924,-0.00113261,-0.00008101,0.00067609,0.00
 085438,-0.01778569,0.00005720,-0.02176253,0.18652822,0.00704976,-0.048
 68079,0.00767037,0.01600019,0.00373828,0.01635363,-0.00278165,-0.00602
 659,0.00281917,-0.02041478,-0.00174395,-0.02864742,-0.00376667,-0.0049
 2977,-0.00516352,0.00044686,0.00191471,-0.00037146,0.00137681,-0.00233
 504,-0.00012484,0.00179279,0.00219076,0.00331861,-0.00024294,0.0540127
 4,-0.13322201,-0.00048050,-0.19211358,-0.01292192,-0.00025626,-0.01346
 645,0.00198720,0.00117703,-0.00164502,-0.00908633,-0.00294170,-0.01466
 133,-0.00055063,-0.00228829,-0.00128421,-0.00081016,0.00017142,0.00088
 755,0.00046623,-0.00040167,-0.00024243,0.00763407,0.00097825,0.0106592
 1,0.14675407,0.00477849,0.21185981,-0.00122020,-0.00098889,-0.00221952
 ,0.00777685,-0.00022076,-0.01409764,-0.08805338,-0.00136213,0.08813045
 ,0.00060844,-0.00058394,-0.00101018,0.00287838,-0.00267203,-0.00018564
 ,-0.02944619,-0.00573325,0.03158737,-0.00424887,0.00395103,0.00121260,
 0.00006385,0.00011555,-0.00029513,0.00015065,0.00066017,-0.00041802,0.
 11064099,-0.00269776,-0.00632912,-0.00243203,0.00243040,0.01388580,-0.
 01365139,-0.00619813,-0.04609956,0.00120246,-0.00036547,-0.00079831,0.
 00336614,-0.00577026,-0.00666161,0.01572092,0.00123921,0.01592991,0.00
 068854,0.00357094,-0.00560446,-0.00170951,-0.00012998,0.00064431,-0.00
 034182,0.00034086,0.00092117,-0.00040359,0.00710345,0.03426322,-0.0019
 6478,-0.00187607,-0.00196238,0.00864481,0.00175180,-0.01433794,0.08584
 143,0.00600161,-0.27659736,-0.00025011,-0.00015084,0.00046202,-0.00080
 454,0.00045485,-0.00122075,0.01089430,-0.00041476,0.00995199,0.0005362
 9,-0.00170515,0.00005079,0.00006803,-0.00003413,0.00020978,0.00033233,
 0.00092699,-0.00065805,-0.10222535,-0.00457661,0.28509008,-0.00000873,
 -0.00524464,-0.00169044,-0.06853001,0.07026862,0.02024372,0.00445473,-
 0.01584173,-0.00252428,0.00042961,-0.00149350,-0.00101983,-0.00158985,
 -0.00495883,-0.00059812,0.00029151,0.00169253,0.00037715,0.00096516,-0
 .00035329,0.00009591,0.00046485,-0.00018388,-0.00031625,0.00001180,0.0
 0016044,0.00004669,-0.00020732,0.00061716,-0.00053962,0.07012092,0.005
 38512,-0.01582361,-0.00778740,0.06742687,-0.27592400,-0.06569316,0.003
 35378,-0.00897957,-0.00186900,-0.00236794,-0.00326386,0.00055584,0.000
 46825,-0.00059291,0.00155778,-0.00029535,0.00263964,0.00072578,0.00092
 151,-0.00091575,0.00043301,-0.00038704,0.00095473,-0.00023686,0.000105
 55,0.00003380,0.00039096,-0.00063148,-0.00013004,-0.00050151,-0.073980
 03,0.29979798,-0.00695231,0.02193579,0.00965246,0.02053450,-0.06939470
 ,-0.06181774,0.00728204,-0.02467096,-0.00728573,0.00175370,0.00762441,
 -0.00314002,-0.00400598,-0.00357996,-0.00320083,0.00204144,0.00342881,
 0.00074812,0.00150161,-0.00121446,0.00096942,0.00021801,-0.00099545,0.
 00127793,-0.00046297,-0.00053711,-0.00016404,-0.00113134,0.00160020,-0
 .00148784,-0.02199990,0.07178723,0.06667765,-0.00373201,0.00071954,0.0
 0153865,-0.30100898,0.00305487,0.05797901,-0.01613623,0.00343485,0.009
 01641,0.00084701,-0.00030088,-0.00022038,0.00059903,-0.00172329,-0.000
 55415,-0.00198631,-0.00253717,-0.00443110,-0.00050026,0.00132629,-0.00
 028858,0.00105506,-0.00019386,0.00036833,0.00098842,-0.00028096,0.0001
 2082,0.00105681,-0.00014042,-0.00053279,-0.00640268,0.00000076,0.00122
 121,0.32522015,-0.02165327,0.00002986,0.00555109,0.00568905,-0.0526430
 3,-0.00265586,-0.01019188,-0.00098393,0.00343788,0.00088932,0.00159679
 ,0.00000194,0.00008498,-0.00049878,-0.00078965,-0.00099612,0.00111708,
 -0.00182735,0.00028467,0.00032347,0.00032982,-0.00085887,-0.00224275,0
 .00276531,0.00043242,0.00090469,-0.00072413,0.00036228,-0.00002131,0.0
 0012380,0.02931714,0.00220358,-0.00598381,-0.00335973,0.05021433,0.027
 67072,-0.00175654,-0.00901476,0.06051551,-0.00194105,-0.06402498,-0.02
 709043,0.00390710,0.01004688,-0.00191530,-0.00073275,0.00177207,0.0012
 1532,-0.00113161,0.00014008,-0.00441463,-0.00411985,-0.00445489,-0.000
 74396,0.00119846,-0.00069819,0.00058153,0.00465419,-0.00300524,-0.0001
 7870,-0.00102292,0.00082854,0.00065240,0.00053667,0.00049966,0.0079249
 8,0.00063734,-0.00222938,-0.06421743,-0.00022905,0.07014020\\0.0000008
 2,0.00000037,0.00000117,0.00000047,-0.00000089,-0.00000113,-0.00000361
 ,0.00000121,0.00000028,-0.00000183,0.00000041,0.00000112,-0.00000309,0
 .00000051,-0.00000144,0.00000250,-0.00000052,-0.00000010,0.00000300,-0
 .00000062,0.00000187,0.00000059,0.00000080,0.00000044,0.00000057,0.000
 00073,-0.00000014,-0.00000040,-0.00000147,-0.00000028,0.00000076,0.000
 00011,-0.00000108,0.00000023,-0.00000065,-0.00000071\\\@


     SCHOPENHAUER'S LAW OF ENTROPY
 IF YOU PUT A SPOONFUL OF WINE IN A BARREL FULL
 OF SEWAGE, YOU GET SEWAGE.
 IF YOU PUT A SPOONFUL OF SEWAGE IN A BARREL FULL
 OF WINE, YOU GET SEWAGE.
 Job cpu time:       0 days  0 hours  4 minutes 42.1 seconds.
 Elapsed time:       0 days  0 hours  0 minutes 17.9 seconds.
 File lengths (MBytes):  RWF=     27 Int=      0 D2E=      0 Chk=      3 Scr=      1
 Normal termination of Gaussian 16 at Wed Dec 23 22:03:26 2020.
