 Entering Gaussian System, Link 0=g16
 Initial command:
 /apps/cent7/gaussian/g16-B.01/g16-haswell/g16/l1.exe "/scratch/bell/zhao922/YARP/paper-example/KHP-network/pp_0/TS-folder/Gau-20916.inp" -scrdir="/scratch/bell/zhao922/YARP/paper-example/KHP-network/pp_0/TS-folder/"
 Entering Link 1 = /apps/cent7/gaussian/g16-B.01/g16-haswell/g16/l1.exe PID=     20918.
  
 Copyright (c) 1988-2017, Gaussian, Inc.  All Rights Reserved.
  
 This is part of the Gaussian(R) 16 program.  It is based on
 the Gaussian(R) 09 system (copyright 2009, Gaussian, Inc.),
 the Gaussian(R) 03 system (copyright 2003, Gaussian, Inc.),
 the Gaussian(R) 98 system (copyright 1998, Gaussian, Inc.),
 the Gaussian(R) 94 system (copyright 1995, Gaussian, Inc.),
 the Gaussian 92(TM) system (copyright 1992, Gaussian, Inc.),
 the Gaussian 90(TM) system (copyright 1990, Gaussian, Inc.),
 the Gaussian 88(TM) system (copyright 1988, Gaussian, Inc.),
 the Gaussian 86(TM) system (copyright 1986, Carnegie Mellon
 University), and the Gaussian 82(TM) system (copyright 1983,
 Carnegie Mellon University). Gaussian is a federally registered
 trademark of Gaussian, Inc.
  
 This software contains proprietary and confidential information,
 including trade secrets, belonging to Gaussian, Inc.
  
 This software is provided under written license and may be
 used, copied, transmitted, or stored only in accord with that
 written license.
  
 The following legend is applicable only to US Government
 contracts under FAR:
  
                    RESTRICTED RIGHTS LEGEND
  
 Use, reproduction and disclosure by the US Government is
 subject to restrictions as set forth in subparagraphs (a)
 and (c) of the Commercial Computer Software - Restricted
 Rights clause in FAR 52.227-19.
  
 Gaussian, Inc.
 340 Quinnipiac St., Bldg. 40, Wallingford CT 06492
  
  
 ---------------------------------------------------------------
 Warning -- This program may not be used in any manner that
 competes with the business of Gaussian, Inc. or will provide
 assistance to any competitor of Gaussian, Inc.  The licensee
 of this program is prohibited from giving any competitor of
 Gaussian, Inc. access to this program.  By using this program,
 the user acknowledges that Gaussian, Inc. is engaged in the
 business of creating and licensing software in the field of
 computational chemistry and represents and warrants to the
 licensee that it is not a competitor of Gaussian, Inc. and that
 it will not use this program in any manner prohibited above.
 ---------------------------------------------------------------
  

 Cite this work as:
 Gaussian 16, Revision B.01,
 M. J. Frisch, G. W. Trucks, H. B. Schlegel, G. E. Scuseria, 
 M. A. Robb, J. R. Cheeseman, G. Scalmani, V. Barone, 
 G. A. Petersson, H. Nakatsuji, X. Li, M. Caricato, A. V. Marenich, 
 J. Bloino, B. G. Janesko, R. Gomperts, B. Mennucci, H. P. Hratchian, 
 J. V. Ortiz, A. F. Izmaylov, J. L. Sonnenberg, D. Williams-Young, 
 F. Ding, F. Lipparini, F. Egidi, J. Goings, B. Peng, A. Petrone, 
 T. Henderson, D. Ranasinghe, V. G. Zakrzewski, J. Gao, N. Rega, 
 G. Zheng, W. Liang, M. Hada, M. Ehara, K. Toyota, R. Fukuda, 
 J. Hasegawa, M. Ishida, T. Nakajima, Y. Honda, O. Kitao, H. Nakai, 
 T. Vreven, K. Throssell, J. A. Montgomery, Jr., J. E. Peralta, 
 F. Ogliaro, M. J. Bearpark, J. J. Heyd, E. N. Brothers, K. N. Kudin, 
 V. N. Staroverov, T. A. Keith, R. Kobayashi, J. Normand, 
 K. Raghavachari, A. P. Rendell, J. C. Burant, S. S. Iyengar, 
 J. Tomasi, M. Cossi, J. M. Millam, M. Klene, C. Adamo, R. Cammi, 
 J. W. Ochterski, R. L. Martin, K. Morokuma, O. Farkas, 
 J. B. Foresman, and D. J. Fox, Gaussian, Inc., Wallingford CT, 2016.
 
 ******************************************
 Gaussian 16:  ES64L-G16RevB.01 20-Dec-2017
                23-Dec-2020 
 ******************************************
 %NProcShared=16
 Will use up to   16 processors via shared memory.
 %Mem=6GB
 --------------------------------------------------------------
 # B3LYP/6-31+G* OPT=(TS, CALCALL, NOEIGEN, maxcycles=100) Freq
 --------------------------------------------------------------
 1/5=1,6=100,10=4,11=1,18=20,26=3,38=1/1,3;
 2/9=110,12=2,17=6,18=5,40=1/2;
 3/5=1,6=6,7=11,11=2,25=1,30=1,71=2,74=-5,140=1/1,2,3;
 4//1;
 5/5=2,38=5/2;
 8/6=4,10=90,11=11/1;
 11/6=1,8=1,9=11,15=111,16=1/1,2,10;
 10/6=1/2;
 6/7=2,8=2,9=2,10=2,18=1,28=1/1;
 7/10=1,25=1/1,2,3,16;
 1/5=1,6=100,10=4,11=1,18=20,26=3/3(3);
 2/9=110/2;
 7/8=1,9=1,25=1,44=-1/16;
 99//99;
 2/9=110/2;
 3/5=1,6=6,7=11,11=2,25=1,30=1,71=2,74=-5,140=1/1,2,3;
 4/5=5,16=3,69=1/1;
 5/5=2,38=5/2;
 8/6=4,10=90,11=11/1;
 11/6=1,8=1,9=11,15=111,16=1/1,2,10;
 10/6=1/2;
 7/10=1,25=1/1,2,3,16;
 1/5=1,6=100,10=4,11=1,18=20,26=3/3(-8);
 2/9=110/2;
 6/7=2,8=2,9=2,10=2,18=1,19=2,28=1/1;
 7/8=1,9=1,25=1,44=-1/16;
 99//99;
 ----------
 pp_25_0 TS
 ----------
 Symbolic Z-matrix:
 Charge =  0 Multiplicity = 1
 C                     1.5116    1.35143  -2.74392 
 C                     0.4653    0.44012  -2.07694 
 C                     1.04336   0.33867  -0.68314 
 O                     1.71976   2.36274  -1.7993 
 O                     2.00556   1.64217  -0.62314 
 O                     1.49147  -0.56642  -0.06771 
 H                     1.30779   2.18765   0.54884 
 H                     2.4416    0.80258  -2.93877 
 H                     1.1628    1.81744  -3.66477 
 H                     0.07221   1.53654   0.16641 
 H                     0.39712  -0.53125  -2.56288 
 H                    -0.51605   0.91112  -2.05975 
 
 Add virtual bond connecting atoms H10        and H7         Dist= 2.74D+00.
 Add virtual bond connecting atoms H7         and O5         Dist= 2.78D+00.

 GradGradGradGradGradGradGradGradGradGradGradGradGradGradGradGradGradGrad
 Berny optimization.
 Initialization pass.
                           ----------------------------
                           !    Initial Parameters    !
                           ! (Angstroms and Degrees)  !
 --------------------------                            --------------------------
 ! Name  Definition              Value          Derivative Info.                !
 --------------------------------------------------------------------------------
 ! R1    R(1,2)                  1.5395         calculate D2E/DX2 analytically  !
 ! R2    R(1,4)                  1.3994         calculate D2E/DX2 analytically  !
 ! R3    R(1,8)                  1.0973         calculate D2E/DX2 analytically  !
 ! R4    R(1,9)                  1.0894         calculate D2E/DX2 analytically  !
 ! R5    R(2,3)                  1.5123         calculate D2E/DX2 analytically  !
 ! R6    R(2,11)                 1.0883         calculate D2E/DX2 analytically  !
 ! R7    R(2,12)                 1.0887         calculate D2E/DX2 analytically  !
 ! R8    R(3,5)                  1.6213         calculate D2E/DX2 analytically  !
 ! R9    R(3,6)                  1.1827         calculate D2E/DX2 analytically  !
 ! R10   R(4,5)                  1.4086         calculate D2E/DX2 analytically  !
 ! R11   R(5,7)                  1.469          calculate D2E/DX2 analytically  !
 ! R12   R(7,10)                 1.4481         calculate D2E/DX2 analytically  !
 ! A1    A(2,1,4)              103.6758         calculate D2E/DX2 analytically  !
 ! A2    A(2,1,8)              110.9074         calculate D2E/DX2 analytically  !
 ! A3    A(2,1,9)              113.6927         calculate D2E/DX2 analytically  !
 ! A4    A(4,1,8)              110.8086         calculate D2E/DX2 analytically  !
 ! A5    A(4,1,9)              108.0027         calculate D2E/DX2 analytically  !
 ! A6    A(8,1,9)              109.586          calculate D2E/DX2 analytically  !
 ! A7    A(1,2,3)              100.3245         calculate D2E/DX2 analytically  !
 ! A8    A(1,2,11)             112.1778         calculate D2E/DX2 analytically  !
 ! A9    A(1,2,12)             111.3081         calculate D2E/DX2 analytically  !
 ! A10   A(3,2,11)             112.0613         calculate D2E/DX2 analytically  !
 ! A11   A(3,2,12)             111.0408         calculate D2E/DX2 analytically  !
 ! A12   A(11,2,12)            109.6779         calculate D2E/DX2 analytically  !
 ! A13   A(2,3,5)              101.9477         calculate D2E/DX2 analytically  !
 ! A14   A(2,3,6)              132.5124         calculate D2E/DX2 analytically  !
 ! A15   A(5,3,6)              111.7873         calculate D2E/DX2 analytically  !
 ! A16   A(1,4,5)              102.9512         calculate D2E/DX2 analytically  !
 ! A17   A(3,5,4)              105.0678         calculate D2E/DX2 analytically  !
 ! A18   A(3,5,7)               92.6464         calculate D2E/DX2 analytically  !
 ! A19   A(4,5,7)              112.3223         calculate D2E/DX2 analytically  !
 ! A20   A(5,7,10)              91.5832         calculate D2E/DX2 analytically  !
 ! D1    D(4,1,2,3)            -45.2605         calculate D2E/DX2 analytically  !
 ! D2    D(4,1,2,11)          -164.3741         calculate D2E/DX2 analytically  !
 ! D3    D(4,1,2,12)            72.3058         calculate D2E/DX2 analytically  !
 ! D4    D(8,1,2,3)             73.7084         calculate D2E/DX2 analytically  !
 ! D5    D(8,1,2,11)           -45.4052         calculate D2E/DX2 analytically  !
 ! D6    D(8,1,2,12)          -168.7253         calculate D2E/DX2 analytically  !
 ! D7    D(9,1,2,3)           -162.2697         calculate D2E/DX2 analytically  !
 ! D8    D(9,1,2,11)            78.6168         calculate D2E/DX2 analytically  !
 ! D9    D(9,1,2,12)           -44.7034         calculate D2E/DX2 analytically  !
 ! D10   D(2,1,4,5)             52.2566         calculate D2E/DX2 analytically  !
 ! D11   D(8,1,4,5)            -66.7802         calculate D2E/DX2 analytically  !
 ! D12   D(9,1,4,5)            173.1818         calculate D2E/DX2 analytically  !
 ! D13   D(1,2,3,5)             20.7035         calculate D2E/DX2 analytically  !
 ! D14   D(1,2,3,6)           -114.4221         calculate D2E/DX2 analytically  !
 ! D15   D(11,2,3,5)           139.9019         calculate D2E/DX2 analytically  !
 ! D16   D(11,2,3,6)             4.7763         calculate D2E/DX2 analytically  !
 ! D17   D(12,2,3,5)           -97.0603         calculate D2E/DX2 analytically  !
 ! D18   D(12,2,3,6)           127.8141         calculate D2E/DX2 analytically  !
 ! D19   D(2,3,5,4)              8.1277         calculate D2E/DX2 analytically  !
 ! D20   D(2,3,5,7)            122.0942         calculate D2E/DX2 analytically  !
 ! D21   D(6,3,5,4)            154.0653         calculate D2E/DX2 analytically  !
 ! D22   D(6,3,5,7)            -91.9682         calculate D2E/DX2 analytically  !
 ! D23   D(1,4,5,3)            -36.9009         calculate D2E/DX2 analytically  !
 ! D24   D(1,4,5,7)           -136.237          calculate D2E/DX2 analytically  !
 ! D25   D(3,5,7,10)           -28.3289         calculate D2E/DX2 analytically  !
 ! D26   D(4,5,7,10)            79.1466         calculate D2E/DX2 analytically  !
 --------------------------------------------------------------------------------
 Trust Radius=3.00D-01 FncErr=1.00D-07 GrdErr=1.00D-06 EigMax=2.50D+02 EigMin=1.00D-04
 Number of steps in this run=    100 maximum allowed number of steps=    100.
 Search for a saddle point of order  1.
 GradGradGradGradGradGradGradGradGradGradGradGradGradGradGradGradGradGrad

                          Input orientation:                          
 ---------------------------------------------------------------------
 Center     Atomic      Atomic             Coordinates (Angstroms)
 Number     Number       Type             X           Y           Z
 ---------------------------------------------------------------------
      1          6           0        1.511600    1.351427   -2.743919
      2          6           0        0.465302    0.440121   -2.076937
      3          6           0        1.043364    0.338666   -0.683135
      4          8           0        1.719761    2.362735   -1.799297
      5          8           0        2.005561    1.642167   -0.623136
      6          8           0        1.491472   -0.566420   -0.067706
      7          1           0        1.307787    2.187655    0.548843
      8          1           0        2.441599    0.802581   -2.938765
      9          1           0        1.162803    1.817443   -3.664770
     10          1           0        0.072210    1.536538    0.166407
     11          1           0        0.397120   -0.531254   -2.562883
     12          1           0       -0.516054    0.911116   -2.059752
 ---------------------------------------------------------------------
                    Distance matrix (angstroms):
                    1          2          3          4          5
     1  C    0.000000
     2  C    1.539507   0.000000
     3  C    2.343451   1.512327   0.000000
     4  O    1.399423   2.312400   2.408357   0.000000
     5  O    2.196872   2.435334   1.621277   1.408636   0.000000
     6  O    3.292515   2.470457   1.182681   3.410348   2.334662
     7  H    3.403395   3.264717   2.237510   2.390426   1.469007
     8  H    1.097313   2.186292   2.694094   2.062406   2.501434
     9  H    1.089402   2.214664   3.330344   2.021765   3.161092
    10  H    3.252093   2.527695   1.760613   2.694628   2.091024
    11  H    2.195297   1.088284   2.169757   3.272249   3.327681
    12  H    2.184797   1.088665   2.157442   2.678414   2.992799
                    6          7          8          9         10
     6  O    0.000000
     7  H    2.828215   0.000000
     8  H    3.319621   3.920124   0.000000
     9  H    4.327782   4.232329   1.786714   0.000000
    10  H    2.547851   1.448054   3.974266   3.993272   0.000000
    11  H    2.724840   4.231385   2.469878   2.704959   3.439528
    12  H    3.190850   3.429390   3.087419   2.493205   2.385999
                   11         12
    11  H    0.000000
    12  H    1.779736   0.000000
 Stoichiometry    C3H6O3
 Framework group  C1[X(C3H6O3)]
 Deg. of freedom    30
 Full point group                 C1      NOp   1
 Largest Abelian subgroup         C1      NOp   1
 Largest concise Abelian subgroup C1      NOp   1
                         Standard orientation:                         
 ---------------------------------------------------------------------
 Center     Atomic      Atomic             Coordinates (Angstroms)
 Number     Number       Type             X           Y           Z
 ---------------------------------------------------------------------
      1          6           0        1.305939    0.590087   -0.364959
      2          6           0        0.117323    1.215088    0.387803
      3          6           0       -0.925624    0.138008    0.189579
      4          8           0        1.314735   -0.738287    0.075189
      5          8           0       -0.010929   -1.155684   -0.154269
      6          8           0       -1.952406    0.118051   -0.396982
      7          1           0       -0.556297   -1.925558    0.971719
      8          1           0        1.152089    0.640121   -1.450280
      9          1           0        2.267447    1.035132   -0.111516
     10          1           0       -0.815640   -0.716386    1.725050
     11          1           0       -0.189139    2.165424   -0.044984
     12          1           0        0.344514    1.349535    1.443975
 ---------------------------------------------------------------------
 Rotational constants (GHZ):           6.3846995           3.5508355           2.6320517
 Standard basis: 6-31+G(d) (6D, 7F)
 There are   126 symmetry adapted cartesian basis functions of A   symmetry.
 There are   126 symmetry adapted basis functions of A   symmetry.
   126 basis functions,   216 primitive gaussians,   126 cartesian basis functions
    24 alpha electrons       24 beta electrons
       nuclear repulsion energy       260.4621569890 Hartrees.
 NAtoms=   12 NActive=   12 NUniq=   12 SFac= 1.00D+00 NAtFMM=   60 NAOKFM=F Big=F
 Integral buffers will be    131072 words long.
 Raffenetti 2 integral format.
 Two-electron integral symmetry is turned on.
 One-electron integrals computed using PRISM.
 NBasis=   126 RedAO= T EigKep=  1.10D-04  NBF=   126
 NBsUse=   126 1.00D-06 EigRej= -1.00D+00 NBFU=   126
 ExpMin= 4.38D-02 ExpMax= 5.48D+03 ExpMxC= 8.25D+02 IAcc=3 IRadAn=         5 AccDes= 0.00D+00
 Harris functional with IExCor=  402 and IRadAn=       5 diagonalized for initial guess.
 HarFok:  IExCor=  402 AccDes= 0.00D+00 IRadAn=         5 IDoV= 1 UseB2=F ITyADJ=14
 ICtDFT=  3500011 ScaDFX=  1.000000  1.000000  1.000000  1.000000
 FoFCou: FMM=F IPFlag=           0 FMFlag=      100000 FMFlg1=           0
         NFxFlg=           0 DoJE=T BraDBF=F KetDBF=T FulRan=T
         wScrn=  0.000000 ICntrl=       500 IOpCl=  0 I1Cent=   200000004 NGrid=           0
         NMat0=    1 NMatS0=      1 NMatT0=    0 NMatD0=    1 NMtDS0=    0 NMtDT0=    0
 Petite list used in FoFCou.
 Keep R1 ints in memory in canonical form, NReq=47237537.
 Requested convergence on RMS density matrix=1.00D-08 within 128 cycles.
 Requested convergence on MAX density matrix=1.00D-06.
 Requested convergence on             energy=1.00D-06.
 No special actions if energy rises.
 SCF Done:  E(RB3LYP) =  -343.333335721     A.U. after   14 cycles
            NFock= 14  Conv=0.99D-08     -V/T= 2.0088
 DoSCS=F DFT=T ScalE2(SS,OS)=  1.000000  1.000000
 Range of M.O.s used for correlation:     1   126
 NBasis=   126 NAE=    24 NBE=    24 NFC=     0 NFV=     0
 NROrb=    126 NOA=    24 NOB=    24 NVA=   102 NVB=   102

 **** Warning!!: The largest alpha MO coefficient is  0.35203884D+02

 Symmetrizing basis deriv contribution to polar:
 IMax=3 JMax=2 DiffMx= 0.00D+00
 G2DrvN: will do    13 centers at a time, making    1 passes.
 Calling FoFCou, ICntrl=  3107 FMM=F I1Cent=   0 AccDes= 0.00D+00.
 End of G2Drv F.D. properties file   721 does not exist.
 End of G2Drv F.D. properties file   722 does not exist.
 End of G2Drv F.D. properties file   788 does not exist.
          IDoAtm=111111111111
          Differentiating once with respect to electric field.
                with respect to dipole field.
          Differentiating once with respect to nuclear coordinates.
 Keep R1 ints in memory in canonical form, NReq=47193552.
          There are    39 degrees of freedom in the 1st order CPHF.  IDoFFX=6 NUNeed=     3.
     36 vectors produced by pass  0 Test12= 6.28D-15 2.56D-09 XBig12= 7.86D+01 5.34D+00.
 AX will form    36 AO Fock derivatives at one time.
     36 vectors produced by pass  1 Test12= 6.28D-15 2.56D-09 XBig12= 1.74D+01 8.19D-01.
     36 vectors produced by pass  2 Test12= 6.28D-15 2.56D-09 XBig12= 1.99D-01 7.68D-02.
     36 vectors produced by pass  3 Test12= 6.28D-15 2.56D-09 XBig12= 8.49D-04 4.65D-03.
     36 vectors produced by pass  4 Test12= 6.28D-15 2.56D-09 XBig12= 1.32D-06 1.41D-04.
     26 vectors produced by pass  5 Test12= 6.28D-15 2.56D-09 XBig12= 1.44D-09 4.10D-06.
      4 vectors produced by pass  6 Test12= 6.28D-15 2.56D-09 XBig12= 1.30D-12 1.36D-07.
      2 vectors produced by pass  7 Test12= 6.28D-15 2.56D-09 XBig12= 1.27D-15 4.53D-09.
 InvSVY:  IOpt=1 It=  1 EMax= 5.33D-15
 Solved reduced A of dimension   212 with    39 vectors.
 Isotropic polarizability for W=    0.000000       59.26 Bohr**3.
 End of Minotr F.D. properties file   721 does not exist.
 End of Minotr F.D. properties file   722 does not exist.
 End of Minotr F.D. properties file   788 does not exist.

 **********************************************************************

            Population analysis using the SCF Density.

 **********************************************************************

 Orbital symmetries:
       Occupied  (A) (A) (A) (A) (A) (A) (A) (A) (A) (A) (A) (A)
                 (A) (A) (A) (A) (A) (A) (A) (A) (A) (A) (A) (A)
       Virtual   (A) (A) (A) (A) (A) (A) (A) (A) (A) (A) (A) (A)
                 (A) (A) (A) (A) (A) (A) (A) (A) (A) (A) (A) (A)
                 (A) (A) (A) (A) (A) (A) (A) (A) (A) (A) (A) (A)
                 (A) (A) (A) (A) (A) (A) (A) (A) (A) (A) (A) (A)
                 (A) (A) (A) (A) (A) (A) (A) (A) (A) (A) (A) (A)
                 (A) (A) (A) (A) (A) (A) (A) (A) (A) (A) (A) (A)
                 (A) (A) (A) (A) (A) (A) (A) (A) (A) (A) (A) (A)
                 (A) (A) (A) (A) (A) (A) (A) (A) (A) (A) (A) (A)
                 (A) (A) (A) (A) (A) (A)
 The electronic state is 1-A.
 Alpha  occ. eigenvalues --  -19.25815 -19.24883 -19.19119 -10.35580 -10.27965
 Alpha  occ. eigenvalues --  -10.23773  -1.18882  -1.10188  -0.93625  -0.82097
 Alpha  occ. eigenvalues --   -0.67457  -0.61097  -0.56922  -0.52296  -0.50072
 Alpha  occ. eigenvalues --   -0.47359  -0.46713  -0.45240  -0.43315  -0.40925
 Alpha  occ. eigenvalues --   -0.38188  -0.33066  -0.29526  -0.24643
 Alpha virt. eigenvalues --   -0.09769  -0.01774  -0.00248   0.01516   0.03115
 Alpha virt. eigenvalues --    0.03824   0.04421   0.05728   0.06526   0.07346
 Alpha virt. eigenvalues --    0.07868   0.09843   0.10761   0.11683   0.12717
 Alpha virt. eigenvalues --    0.14908   0.17248   0.17378   0.19299   0.20461
 Alpha virt. eigenvalues --    0.21811   0.23043   0.23904   0.24910   0.25891
 Alpha virt. eigenvalues --    0.27576   0.27878   0.29433   0.30749   0.31896
 Alpha virt. eigenvalues --    0.32098   0.34064   0.34732   0.35729   0.43076
 Alpha virt. eigenvalues --    0.49079   0.60286   0.62939   0.63992   0.67867
 Alpha virt. eigenvalues --    0.70293   0.75112   0.76529   0.80873   0.84016
 Alpha virt. eigenvalues --    0.85953   0.91386   0.95450   1.00788   1.04936
 Alpha virt. eigenvalues --    1.07007   1.10914   1.16097   1.16803   1.18277
 Alpha virt. eigenvalues --    1.19860   1.24114   1.25778   1.27899   1.31084
 Alpha virt. eigenvalues --    1.33695   1.37856   1.39925   1.42032   1.46454
 Alpha virt. eigenvalues --    1.53716   1.55068   1.62906   1.65340   1.68753
 Alpha virt. eigenvalues --    1.70408   1.77851   1.83512   1.84478   1.88067
 Alpha virt. eigenvalues --    1.89693   1.93272   1.96666   2.03072   2.08790
 Alpha virt. eigenvalues --    2.11282   2.12725   2.19873   2.30025   2.34155
 Alpha virt. eigenvalues --    2.41012   2.44990   2.53412   2.54906   2.61296
 Alpha virt. eigenvalues --    2.71372   2.80568   2.84067   2.97737   3.14398
 Alpha virt. eigenvalues --    3.21088   4.05819   4.19533   4.28409   4.35625
 Alpha virt. eigenvalues --    4.42825   4.60720
          Condensed to atoms (all electrons):
               1          2          3          4          5          6
     1  C    5.300356   0.129199  -0.045265   0.170960  -0.079153  -0.026005
     2  C    0.129199   6.200563  -0.306492  -0.098681   0.006241  -0.006435
     3  C   -0.045265  -0.306492   5.613672   0.039174  -0.274456   0.381369
     4  O    0.170960  -0.098681   0.039174   8.022584   0.142265  -0.004046
     5  O   -0.079153   0.006241  -0.274456   0.142265   8.500879   0.013908
     6  O   -0.026005  -0.006435   0.381369  -0.004046   0.013908   8.050671
     7  H    0.020594   0.003514   0.104437  -0.000737  -0.090274  -0.024397
     8  H    0.405244  -0.067715  -0.008983  -0.055373   0.018424   0.000652
     9  H    0.400892  -0.055320   0.021396  -0.039185   0.003056  -0.000208
    10  H    0.037140  -0.111546   0.367278   0.018959  -0.233831  -0.055018
    11  H   -0.027293   0.370927  -0.036354   0.006122   0.004553  -0.005710
    12  H   -0.045883   0.406361  -0.051032  -0.001687   0.008123   0.004264
               7          8          9         10         11         12
     1  C    0.020594   0.405244   0.400892   0.037140  -0.027293  -0.045883
     2  C    0.003514  -0.067715  -0.055320  -0.111546   0.370927   0.406361
     3  C    0.104437  -0.008983   0.021396   0.367278  -0.036354  -0.051032
     4  O   -0.000737  -0.055373  -0.039185   0.018959   0.006122  -0.001687
     5  O   -0.090274   0.018424   0.003056  -0.233831   0.004553   0.008123
     6  O   -0.024397   0.000652  -0.000208  -0.055018  -0.005710   0.004264
     7  H    0.553961  -0.000288  -0.000102   0.204353   0.000033  -0.000177
     8  H   -0.000288   0.521707  -0.032908  -0.000025  -0.000849   0.003310
     9  H   -0.000102  -0.032908   0.482410  -0.000003   0.001138  -0.005205
    10  H    0.204353  -0.000025  -0.000003   0.874502   0.001007  -0.001056
    11  H    0.000033  -0.000849   0.001138   0.001007   0.467279  -0.024199
    12  H   -0.000177   0.003310  -0.005205  -0.001056  -0.024199   0.453405
 Mulliken charges:
               1
     1  C   -0.240787
     2  C   -0.470616
     3  C    0.195256
     4  O   -0.200355
     5  O   -0.019738
     6  O   -0.329046
     7  H    0.229084
     8  H    0.216805
     9  H    0.224037
    10  H   -0.101759
    11  H    0.243344
    12  H    0.253776
 Sum of Mulliken charges =  -0.00000
 Mulliken charges with hydrogens summed into heavy atoms:
               1
     1  C    0.200055
     2  C    0.026504
     3  C    0.093497
     4  O   -0.200355
     5  O    0.209346
     6  O   -0.329046
 APT charges:
               1
     1  C    0.368956
     2  C   -0.103410
     3  C    1.245075
     4  O   -0.318548
     5  O   -0.354745
     6  O   -0.763095
     7  H    0.306599
     8  H   -0.032217
     9  H    0.033042
    10  H   -0.445449
    11  H    0.028412
    12  H    0.035381
 Sum of APT charges =  -0.00000
 APT charges with hydrogens summed into heavy atoms:
               1
     1  C    0.369781
     2  C   -0.039617
     3  C    0.799625
     4  O   -0.318548
     5  O   -0.048146
     6  O   -0.763095
 Electronic spatial extent (au):  <R**2>=            503.9615
 Charge=             -0.0000 electrons
 Dipole moment (field-independent basis, Debye):
    X=              2.6438    Y=              2.3632    Z=             -0.1227  Tot=              3.5482
 Quadrupole moment (field-independent basis, Debye-Ang):
   XX=            -41.6502   YY=            -33.2055   ZZ=            -39.3520
   XY=              3.2489   XZ=             -1.1026   YZ=             -0.2767
 Traceless Quadrupole moment (field-independent basis, Debye-Ang):
   XX=             -3.5810   YY=              4.8637   ZZ=             -1.2828
   XY=              3.2489   XZ=             -1.1026   YZ=             -0.2767
 Octapole moment (field-independent basis, Debye-Ang**2):
  XXX=             18.6435  YYY=             -4.7242  ZZZ=            -12.8204  XYY=             -1.2069
  XXY=              3.4645  XXZ=             -1.4598  XZZ=              4.8357  YZZ=              3.1068
  YYZ=              1.3174  XYZ=             -0.5152
 Hexadecapole moment (field-independent basis, Debye-Ang**3):
 XXXX=           -349.1514 YYYY=           -188.9293 ZZZZ=           -118.2720 XXXY=              6.6242
 XXXZ=              2.1021 YYYX=             -1.1185 YYYZ=             -3.8384 ZZZX=             12.1002
 ZZZY=             11.3969 XXYY=            -91.5720 XXZZ=            -78.3726 YYZZ=            -53.4433
 XXYZ=              3.3425 YYXZ=              2.0014 ZZXY=             -3.1272
 N-N= 2.604621569890D+02 E-N=-1.324368375844D+03  KE= 3.403294628150D+02
  Exact polarizability:  59.949   0.329  62.003  -1.012  -6.165  55.835
 Approx polarizability:  90.956  -8.890 101.270   5.491  -7.395  86.383
 Calling FoFJK, ICntrl=    100127 FMM=F ISym2X=0 I1Cent= 0 IOpClX= 0 NMat=1 NMatS=1 NMatT=0.
 ***** Axes restored to original set *****
 -------------------------------------------------------------------
 Center     Atomic                   Forces (Hartrees/Bohr)
 Number     Number              X              Y              Z
 -------------------------------------------------------------------
      1        6          -0.008365855   -0.016291672   -0.008113226
      2        6          -0.000360104    0.001805024   -0.005158090
      3        6          -0.004132609    0.018116403   -0.001170151
      4        8           0.003906433    0.031731105   -0.005784632
      5        8           0.030989207    0.004369750    0.026045702
      6        8          -0.003775976   -0.015253613    0.010998166
      7        1          -0.032901743   -0.030218043   -0.042939927
      8        1           0.001081744    0.000487300   -0.000625640
      9        1          -0.001623512    0.003669972    0.000178398
     10        1           0.015815989    0.005210571    0.024170215
     11        1           0.000294137   -0.005751354    0.003384745
     12        1          -0.000927710    0.002124554   -0.000985559
 -------------------------------------------------------------------
 Cartesian Forces:  Max     0.042939927 RMS     0.015482109
 FormGI is forming the generalized inverse of G from B-inverse, IUseBI=4.

 GradGradGradGradGradGradGradGradGradGradGradGradGradGradGradGradGradGrad
 Berny optimization.
 Internal  Forces:  Max     0.039198891 RMS     0.009993263
 Search for a saddle point.
 Step number   1 out of a maximum of  100
 All quantities printed in internal units (Hartrees-Bohrs-Radians)
 Swapping is turned off.
 Second derivative matrix not updated -- analytic derivatives used.
 ITU=  0
     Eigenvalues ---   -0.33255  -0.01410   0.00214   0.00866   0.01263
     Eigenvalues ---    0.03219   0.03921   0.04155   0.04690   0.05082
     Eigenvalues ---    0.05908   0.06239   0.07029   0.07790   0.09475
     Eigenvalues ---    0.09915   0.10334   0.15160   0.20266   0.22316
     Eigenvalues ---    0.23517   0.24577   0.28200   0.32283   0.33679
     Eigenvalues ---    0.34981   0.35489   0.35909   0.36720   0.98433
 Eigenvectors required to have negative eigenvalues:
                          R11       A20       R12       A18       D25
   1                    0.55341   0.41384  -0.33081   0.30874  -0.29104
                          D24       R8        D26       D19       D23
   1                   -0.23690  -0.21800  -0.15348  -0.11673   0.09621
 RFO step:  Lambda0=3.753500615D-04 Lambda=-5.32844416D-02.
 Linear search not attempted -- option 19 set.
 Maximum step size (   0.300) exceeded in Quadratic search.
    -- Step size scaled by   0.283
 Iteration  1 RMS(Cart)=  0.05944019 RMS(Int)=  0.00896963
 Iteration  2 RMS(Cart)=  0.00717510 RMS(Int)=  0.00050433
 Iteration  3 RMS(Cart)=  0.00003967 RMS(Int)=  0.00050351
 Iteration  4 RMS(Cart)=  0.00000001 RMS(Int)=  0.00050351
 Variable       Old X    -DE/DX   Delta X   Delta X   Delta X     New X
                                 (Linear)    (Quad)   (Total)
    R1        2.90925   0.00202   0.00000  -0.00141  -0.00144   2.90780
    R2        2.64453   0.01700   0.00000   0.01258   0.01235   2.65688
    R3        2.07362   0.00078   0.00000  -0.00042  -0.00042   2.07320
    R4        2.05867   0.00194   0.00000   0.00163   0.00163   2.06030
    R5        2.85788   0.00502   0.00000   0.01314   0.01315   2.87104
    R6        2.05656   0.00360   0.00000   0.00208   0.00208   2.05864
    R7        2.05728   0.00174   0.00000   0.00199   0.00199   2.05927
    R8        3.06377   0.00217   0.00000   0.01352   0.01366   3.07742
    R9        2.23494   0.01597   0.00000   0.01229   0.01229   2.24723
   R10        2.66194   0.01964   0.00000   0.01598   0.01607   2.67801
   R11        2.77602  -0.01614   0.00000   0.06685   0.06685   2.84287
   R12        2.73643  -0.02222   0.00000  -0.24711  -0.24711   2.48932
    A1        1.80948  -0.00189   0.00000  -0.00211  -0.00231   1.80717
    A2        1.93570   0.00196   0.00000   0.00501   0.00506   1.94076
    A3        1.98431   0.00033   0.00000  -0.00035  -0.00033   1.98399
    A4        1.93397   0.00091   0.00000  -0.00157  -0.00146   1.93251
    A5        1.88500  -0.00159   0.00000  -0.00346  -0.00342   1.88158
    A6        1.91264   0.00013   0.00000   0.00191   0.00188   1.91451
    A7        1.75099   0.00524   0.00000   0.00625   0.00619   1.75718
    A8        1.95787   0.00391   0.00000   0.00804   0.00798   1.96585
    A9        1.94269  -0.00505   0.00000  -0.00642  -0.00631   1.93639
   A10        1.95584  -0.00575   0.00000  -0.01174  -0.01177   1.94407
   A11        1.93803   0.00033   0.00000   0.00469   0.00475   1.94278
   A12        1.91424   0.00137   0.00000  -0.00047  -0.00047   1.91377
   A13        1.77932  -0.00119   0.00000  -0.00578  -0.00566   1.77367
   A14        2.31278  -0.00347   0.00000  -0.02449  -0.02483   2.28794
   A15        1.95106   0.00595   0.00000   0.01046   0.01016   1.96122
   A16        1.79684  -0.00782   0.00000  -0.00651  -0.00612   1.79071
   A17        1.83378   0.00209   0.00000  -0.00127  -0.00169   1.83209
   A18        1.61698  -0.02794   0.00000  -0.14071  -0.14124   1.47575
   A19        1.96039   0.00144   0.00000   0.00394   0.00139   1.96178
   A20        1.59843   0.03920   0.00000   0.04706   0.04706   1.64549
    D1       -0.78994  -0.00229   0.00000  -0.00259  -0.00268  -0.79263
    D2       -2.86887  -0.00027   0.00000   0.00403   0.00400  -2.86487
    D3        1.26197  -0.00117   0.00000   0.00351   0.00348   1.26545
    D4        1.28645  -0.00134   0.00000  -0.00318  -0.00326   1.28320
    D5       -0.79247   0.00068   0.00000   0.00344   0.00343  -0.78904
    D6       -2.94481  -0.00022   0.00000   0.00292   0.00290  -2.94191
    D7       -2.83214   0.00063   0.00000   0.00303   0.00300  -2.82914
    D8        1.37212   0.00264   0.00000   0.00965   0.00969   1.38181
    D9       -0.78022   0.00174   0.00000   0.00913   0.00916  -0.77106
   D10        0.91205   0.00092   0.00000   0.00974   0.00976   0.92181
   D11       -1.16553  -0.00076   0.00000   0.00582   0.00584  -1.15969
   D12        3.02259  -0.00046   0.00000   0.00658   0.00655   3.02915
   D13        0.36134  -0.00158   0.00000  -0.00733  -0.00699   0.35435
   D14       -1.99704  -0.00640   0.00000   0.01222   0.01231  -1.98474
   D15        2.44175   0.00344   0.00000   0.00046   0.00061   2.44236
   D16        0.08336  -0.00138   0.00000   0.02000   0.01991   0.10327
   D17       -1.69402   0.00130   0.00000  -0.00519  -0.00502  -1.69904
   D18        2.23078  -0.00352   0.00000   0.01436   0.01428   2.24506
   D19        0.14186   0.00657   0.00000   0.01586   0.01538   0.15723
   D20        2.13095  -0.00037   0.00000  -0.02457  -0.02306   2.10789
   D21        2.68895   0.00609   0.00000  -0.01542  -0.01633   2.67262
   D22       -1.60515  -0.00085   0.00000  -0.05585  -0.05477  -1.65992
   D23       -0.64404  -0.00462   0.00000  -0.01474  -0.01452  -0.65856
   D24       -2.37778   0.02559   0.00000   0.14397   0.14446  -2.23333
   D25       -0.49443   0.02237   0.00000   0.09599   0.09494  -0.39949
   D26        1.38137   0.01249   0.00000   0.03268   0.03373   1.41510
         Item               Value     Threshold  Converged?
 Maximum Force            0.039199     0.000450     NO 
 RMS     Force            0.009993     0.000300     NO 
 Maximum Displacement     0.243599     0.001800     NO 
 RMS     Displacement     0.059041     0.001200     NO 
 Predicted change in Energy=-1.761721D-02
 GradGradGradGradGradGradGradGradGradGradGradGradGradGradGradGradGradGrad

                          Input orientation:                          
 ---------------------------------------------------------------------
 Center     Atomic      Atomic             Coordinates (Angstroms)
 Number     Number       Type             X           Y           Z
 ---------------------------------------------------------------------
      1          6           0        1.518302    1.347872   -2.755161
      2          6           0        0.461204    0.471066   -2.061269
      3          6           0        1.041772    0.386104   -0.659856
      4          8           0        1.746204    2.382440   -1.830796
      5          8           0        2.038972    1.673422   -0.639215
      6          8           0        1.480283   -0.535884   -0.050101
      7          1           0        1.195152    2.127866    0.520358
      8          1           0        2.440691    0.784071   -2.942064
      9          1           0        1.170174    1.801057   -3.683657
     10          1           0        0.149559    1.407631    0.169281
     11          1           0        0.371583   -0.515440   -2.514626
     12          1           0       -0.511370    0.962571   -2.057945
 ---------------------------------------------------------------------
                    Distance matrix (angstroms):
                    1          2          3          4          5
     1  C    0.000000
     2  C    1.538743   0.000000
     3  C    2.354226   1.519288   0.000000
     4  O    1.405959   2.314669   2.419232   0.000000
     5  O    2.203250   2.440748   1.628503   1.417140   0.000000
     6  O    3.296564   2.469264   1.189182   3.429024   2.353768
     7  H    3.382579   3.154119   2.109541   2.428249   1.504380
     8  H    1.097090   2.189095   2.706257   2.066884   2.501087
     9  H    1.090263   2.214420   3.340951   2.025563   3.168553
    10  H    3.229456   2.439186   1.589663   2.738583   2.072243
    11  H    2.201080   1.089384   2.168434   3.279468   3.329935
    12  H    2.180397   1.089719   2.167768   2.676614   3.003722
                    6          7          8          9         10
     6  O    0.000000
     7  H    2.739030   0.000000
     8  H    3.320860   3.917335   0.000000
     9  H    4.331303   4.216772   1.788417   0.000000
    10  H    2.365630   1.317292   3.913895   4.005192   0.000000
    11  H    2.702501   4.108096   2.480451   2.714874   3.309207
    12  H    3.200544   3.304206   3.086776   2.484670   2.365468
                   11         12
    11  H    0.000000
    12  H    1.781201   0.000000
 Stoichiometry    C3H6O3
 Framework group  C1[X(C3H6O3)]
 Deg. of freedom    30
 Full point group                 C1      NOp   1
 Largest Abelian subgroup         C1      NOp   1
 Largest concise Abelian subgroup C1      NOp   1
                         Standard orientation:                         
 ---------------------------------------------------------------------
 Center     Atomic      Atomic             Coordinates (Angstroms)
 Number     Number       Type             X           Y           Z
 ---------------------------------------------------------------------
      1          6           0        1.307856    0.593709   -0.367193
      2          6           0        0.112770    1.210628    0.380411
      3          6           0       -0.928485    0.119836    0.195486
      4          8           0        1.332113   -0.735382    0.090683
      5          8           0        0.004651   -1.169421   -0.149614
      6          8           0       -1.953002    0.111572   -0.408212
      7          1           0       -0.630321   -1.775662    1.072041
      8          1           0        1.156625    0.627476   -1.453284
      9          1           0        2.265095    1.050699   -0.115147
     10          1           0       -0.945900   -0.613443    1.605815
     11          1           0       -0.215742    2.151966   -0.058588
     12          1           0        0.347303    1.359772    1.434090
 ---------------------------------------------------------------------
 Rotational constants (GHZ):           6.4266517           3.5219097           2.6213861
 Standard basis: 6-31+G(d) (6D, 7F)
 There are   126 symmetry adapted cartesian basis functions of A   symmetry.
 There are   126 symmetry adapted basis functions of A   symmetry.
   126 basis functions,   216 primitive gaussians,   126 cartesian basis functions
    24 alpha electrons       24 beta electrons
       nuclear repulsion energy       260.1321056832 Hartrees.
 NAtoms=   12 NActive=   12 NUniq=   12 SFac= 1.00D+00 NAtFMM=   60 NAOKFM=F Big=F
 Integral buffers will be    131072 words long.
 Raffenetti 2 integral format.
 Two-electron integral symmetry is turned on.
 One-electron integrals computed using PRISM.
 NBasis=   126 RedAO= T EigKep=  1.14D-04  NBF=   126
 NBsUse=   126 1.00D-06 EigRej= -1.00D+00 NBFU=   126
 Initial guess from the checkpoint file:  "/scratch/bell/zhao922/YARP/paper-example/KHP-network/pp_0/TS-folder/Gau-20918.chk"
 B after Tr=    -0.000000    0.000000   -0.000000
         Rot=    0.999966    0.007198    0.004003   -0.001002 Ang=   0.95 deg.
 ExpMin= 4.38D-02 ExpMax= 5.48D+03 ExpMxC= 8.25D+02 IAcc=3 IRadAn=         5 AccDes= 0.00D+00
 Harris functional with IExCor=  402 and IRadAn=       5 diagonalized for initial guess.
 HarFok:  IExCor=  402 AccDes= 0.00D+00 IRadAn=         5 IDoV= 1 UseB2=F ITyADJ=14
 ICtDFT=  3500011 ScaDFX=  1.000000  1.000000  1.000000  1.000000
 FoFCou: FMM=F IPFlag=           0 FMFlag=      100000 FMFlg1=           0
         NFxFlg=           0 DoJE=T BraDBF=F KetDBF=T FulRan=T
         wScrn=  0.000000 ICntrl=       500 IOpCl=  0 I1Cent=   200000004 NGrid=           0
         NMat0=    1 NMatS0=      1 NMatT0=    0 NMatD0=    1 NMtDS0=    0 NMtDT0=    0
 Petite list used in FoFCou.
 Keep R1 ints in memory in canonical form, NReq=47237537.
 Requested convergence on RMS density matrix=1.00D-08 within 128 cycles.
 Requested convergence on MAX density matrix=1.00D-06.
 Requested convergence on             energy=1.00D-06.
 No special actions if energy rises.
 SCF Done:  E(RB3LYP) =  -343.350627384     A.U. after   13 cycles
            NFock= 13  Conv=0.28D-08     -V/T= 2.0089
 DoSCS=F DFT=T ScalE2(SS,OS)=  1.000000  1.000000
 Range of M.O.s used for correlation:     1   126
 NBasis=   126 NAE=    24 NBE=    24 NFC=     0 NFV=     0
 NROrb=    126 NOA=    24 NOB=    24 NVA=   102 NVB=   102

 **** Warning!!: The largest alpha MO coefficient is  0.34902695D+02

 Symmetrizing basis deriv contribution to polar:
 IMax=3 JMax=2 DiffMx= 0.00D+00
 G2DrvN: will do    13 centers at a time, making    1 passes.
 Calling FoFCou, ICntrl=  3107 FMM=F I1Cent=   0 AccDes= 0.00D+00.
 End of G2Drv F.D. properties file   721 does not exist.
 End of G2Drv F.D. properties file   722 does not exist.
 End of G2Drv F.D. properties file   788 does not exist.
          IDoAtm=111111111111
          Differentiating once with respect to electric field.
                with respect to dipole field.
          Differentiating once with respect to nuclear coordinates.
 Keep R1 ints in memory in canonical form, NReq=47193552.
          There are    39 degrees of freedom in the 1st order CPHF.  IDoFFX=6 NUNeed=     3.
     36 vectors produced by pass  0 Test12= 6.28D-15 2.56D-09 XBig12= 6.81D+01 4.08D+00.
 AX will form    36 AO Fock derivatives at one time.
     36 vectors produced by pass  1 Test12= 6.28D-15 2.56D-09 XBig12= 1.83D+01 6.89D-01.
     36 vectors produced by pass  2 Test12= 6.28D-15 2.56D-09 XBig12= 1.99D-01 6.49D-02.
     36 vectors produced by pass  3 Test12= 6.28D-15 2.56D-09 XBig12= 8.53D-04 3.82D-03.
     36 vectors produced by pass  4 Test12= 6.28D-15 2.56D-09 XBig12= 1.46D-06 1.44D-04.
     26 vectors produced by pass  5 Test12= 6.28D-15 2.56D-09 XBig12= 1.51D-09 3.99D-06.
      4 vectors produced by pass  6 Test12= 6.28D-15 2.56D-09 XBig12= 1.29D-12 1.42D-07.
      2 vectors produced by pass  7 Test12= 6.28D-15 2.56D-09 XBig12= 1.34D-15 4.68D-09.
 InvSVY:  IOpt=1 It=  1 EMax= 3.55D-15
 Solved reduced A of dimension   212 with    39 vectors.
 Isotropic polarizability for W=    0.000000       57.46 Bohr**3.
 End of Minotr F.D. properties file   721 does not exist.
 End of Minotr F.D. properties file   722 does not exist.
 End of Minotr F.D. properties file   788 does not exist.
 Calling FoFJK, ICntrl=    100127 FMM=F ISym2X=0 I1Cent= 0 IOpClX= 0 NMat=1 NMatS=1 NMatT=0.
 ***** Axes restored to original set *****
 -------------------------------------------------------------------
 Center     Atomic                   Forces (Hartrees/Bohr)
 Number     Number              X              Y              Z
 -------------------------------------------------------------------
      1        6          -0.008010349   -0.013018783   -0.005593682
      2        6          -0.000116910    0.002055781   -0.004708946
      3        6          -0.004396287    0.013654711    0.000955222
      4        8           0.004387613    0.024097480   -0.005376593
      5        8           0.024307432    0.005448341    0.021172086
      6        8          -0.001852181   -0.013022048    0.007197832
      7        1          -0.030045413   -0.030493302   -0.039181856
      8        1           0.000822376    0.000406905   -0.000437947
      9        1          -0.001311206    0.003247675    0.000330621
     10        1           0.016801635    0.010508644    0.023315351
     11        1           0.000177954   -0.004498724    0.003308463
     12        1          -0.000764663    0.001613320   -0.000980551
 -------------------------------------------------------------------
 Cartesian Forces:  Max     0.039181856 RMS     0.013716773
 FormGI is forming the generalized inverse of G from B-inverse, IUseBI=4.

 GradGradGradGradGradGradGradGradGradGradGradGradGradGradGradGradGradGrad
 Berny optimization.
 Internal  Forces:  Max     0.033973053 RMS     0.008424690
 Search for a saddle point.
 Step number   2 out of a maximum of  100
 All quantities printed in internal units (Hartrees-Bohrs-Radians)
 Swapping is turned off.
 Second derivative matrix not updated -- analytic derivatives used.
 ITU=  0  0
     Eigenvalues ---   -0.30969  -0.00164   0.00465   0.01045   0.01558
     Eigenvalues ---    0.03240   0.03900   0.04036   0.04695   0.05423
     Eigenvalues ---    0.06301   0.06460   0.07821   0.08831   0.09645
     Eigenvalues ---    0.10128   0.10453   0.16507   0.19969   0.21998
     Eigenvalues ---    0.23281   0.24151   0.27952   0.31923   0.33351
     Eigenvalues ---    0.34566   0.35205   0.35682   0.36191   0.95704
 Eigenvectors required to have negative eigenvalues:
                          R11       R12       A20       A18       R8
   1                    0.56193  -0.39480   0.39224   0.28302  -0.25973
                          D25       D24       D19       D26       D17
   1                   -0.22925  -0.21841  -0.11183  -0.11063   0.09155
 RFO step:  Lambda0=5.148286009D-06 Lambda=-4.37755178D-02.
 Linear search not attempted -- option 19 set.
 Maximum step size (   0.300) exceeded in Quadratic search.
    -- Step size scaled by   0.346
 Iteration  1 RMS(Cart)=  0.07427658 RMS(Int)=  0.01099802
 Iteration  2 RMS(Cart)=  0.00880519 RMS(Int)=  0.00042009
 Iteration  3 RMS(Cart)=  0.00008940 RMS(Int)=  0.00041524
 Iteration  4 RMS(Cart)=  0.00000002 RMS(Int)=  0.00041524
 Variable       Old X    -DE/DX   Delta X   Delta X   Delta X     New X
                                 (Linear)    (Quad)   (Total)
    R1        2.90780   0.00125   0.00000  -0.00122  -0.00115   2.90665
    R2        2.65688   0.01291   0.00000   0.01052   0.01044   2.66732
    R3        2.07320   0.00056   0.00000  -0.00011  -0.00011   2.07308
    R4        2.06030   0.00149   0.00000   0.00182   0.00182   2.06212
    R5        2.87104   0.00408   0.00000   0.01468   0.01496   2.88600
    R6        2.05864   0.00268   0.00000   0.00176   0.00176   2.06040
    R7        2.05927   0.00141   0.00000   0.00208   0.00208   2.06136
    R8        3.07742   0.00302   0.00000   0.04610   0.04609   3.12351
    R9        2.24723   0.01310   0.00000   0.01586   0.01586   2.26309
   R10        2.67801   0.01503   0.00000   0.01668   0.01639   2.69440
   R11        2.84287  -0.01084   0.00000   0.08128   0.08128   2.92415
   R12        2.48932  -0.02530   0.00000  -0.23920  -0.23920   2.25012
    A1        1.80717  -0.00101   0.00000   0.00417   0.00384   1.81101
    A2        1.94076   0.00133   0.00000   0.00122   0.00115   1.94191
    A3        1.98399   0.00036   0.00000  -0.00236  -0.00215   1.98184
    A4        1.93251   0.00048   0.00000  -0.00027   0.00004   1.93254
    A5        1.88158  -0.00155   0.00000  -0.00604  -0.00613   1.87545
    A6        1.91451   0.00024   0.00000   0.00298   0.00295   1.91746
    A7        1.75718   0.00414   0.00000   0.00575   0.00583   1.76301
    A8        1.96585   0.00325   0.00000   0.00588   0.00598   1.97184
    A9        1.93639  -0.00390   0.00000  -0.00714  -0.00728   1.92911
   A10        1.94407  -0.00479   0.00000  -0.01417  -0.01439   1.92968
   A11        1.94278   0.00032   0.00000   0.00809   0.00829   1.95106
   A12        1.91377   0.00105   0.00000   0.00177   0.00180   1.91557
   A13        1.77367  -0.00125   0.00000  -0.01656  -0.01724   1.75643
   A14        2.28794  -0.00314   0.00000  -0.03477  -0.03537   2.25257
   A15        1.96122   0.00512   0.00000   0.00342   0.00193   1.96315
   A16        1.79071  -0.00588   0.00000  -0.00260  -0.00271   1.78800
   A17        1.83209   0.00157   0.00000   0.00588   0.00618   1.83827
   A18        1.47575  -0.02248   0.00000  -0.13769  -0.13739   1.33836
   A19        1.96178  -0.00100   0.00000   0.02102   0.01939   1.98118
   A20        1.64549   0.03397   0.00000   0.02717   0.02717   1.67266
    D1       -0.79263  -0.00174   0.00000  -0.02633  -0.02670  -0.81933
    D2       -2.86487   0.00003   0.00000  -0.01568  -0.01589  -2.88075
    D3        1.26545  -0.00079   0.00000  -0.01694  -0.01713   1.24832
    D4        1.28320  -0.00111   0.00000  -0.02364  -0.02387   1.25933
    D5       -0.78904   0.00067   0.00000  -0.01299  -0.01305  -0.80210
    D6       -2.94191  -0.00015   0.00000  -0.01425  -0.01430  -2.95621
    D7       -2.82914   0.00055   0.00000  -0.02050  -0.02066  -2.84980
    D8        1.38181   0.00232   0.00000  -0.00985  -0.00985   1.37196
    D9       -0.77106   0.00150   0.00000  -0.01111  -0.01110  -0.78215
   D10        0.92181   0.00042   0.00000  -0.00147  -0.00177   0.92004
   D11       -1.15969  -0.00080   0.00000  -0.00515  -0.00533  -1.16503
   D12        3.02915  -0.00042   0.00000  -0.00487  -0.00515   3.02400
   D13        0.35435  -0.00116   0.00000   0.03051   0.03068   0.38503
   D14       -1.98474  -0.00476   0.00000   0.08717   0.08681  -1.89792
   D15        2.44236   0.00280   0.00000   0.03432   0.03450   2.47685
   D16        0.10327  -0.00080   0.00000   0.09098   0.09063   0.19390
   D17       -1.69904   0.00096   0.00000   0.03226   0.03241  -1.66663
   D18        2.24506  -0.00264   0.00000   0.08892   0.08854   2.33359
   D19        0.15723   0.00469   0.00000  -0.03286  -0.03302   0.12422
   D20        2.10789  -0.00195   0.00000  -0.04548  -0.04436   2.06353
   D21        2.67262   0.00371   0.00000  -0.09541  -0.09621   2.57641
   D22       -1.65992  -0.00294   0.00000  -0.10803  -0.10755  -1.76747
   D23       -0.65856  -0.00299   0.00000   0.02443   0.02459  -0.63397
   D24       -2.23333   0.02168   0.00000   0.16981   0.17027  -2.06305
   D25       -0.39949   0.01669   0.00000   0.12613   0.12642  -0.27307
   D26        1.41510   0.00937   0.00000   0.07735   0.07705   1.49216
         Item               Value     Threshold  Converged?
 Maximum Force            0.033973     0.000450     NO 
 RMS     Force            0.008425     0.000300     NO 
 Maximum Displacement     0.279454     0.001800     NO 
 RMS     Displacement     0.072177     0.001200     NO 
 Predicted change in Energy=-1.515749D-02
 GradGradGradGradGradGradGradGradGradGradGradGradGradGradGradGradGradGrad

                          Input orientation:                          
 ---------------------------------------------------------------------
 Center     Atomic      Atomic             Coordinates (Angstroms)
 Number     Number       Type             X           Y           Z
 ---------------------------------------------------------------------
      1          6           0        1.528879    1.336949   -2.759706
      2          6           0        0.449599    0.511426   -2.038927
      3          6           0        1.038182    0.426514   -0.632260
      4          8           0        1.781905    2.405802   -1.873245
      5          8           0        2.053840    1.730456   -0.647314
      6          8           0        1.513126   -0.517372   -0.068617
      7          1           0        1.051790    2.072168    0.481202
      8          1           0        2.438105    0.745651   -2.924469
      9          1           0        1.190549    1.767576   -3.703565
     10          1           0        0.238432    1.259750    0.171008
     11          1           0        0.323047   -0.485493   -2.461920
     12          1           0       -0.504929    1.039347   -2.047237
 ---------------------------------------------------------------------
                    Distance matrix (angstroms):
                    1          2          3          4          5
     1  C    0.000000
     2  C    1.538134   0.000000
     3  C    2.365524   1.527204   0.000000
     4  O    1.411483   2.321885   2.451684   0.000000
     5  O    2.211930   2.448715   1.652892   1.425815   0.000000
     6  O    3.268136   2.464069   1.197575   3.445849   2.383274
     7  H    3.357327   3.024830   1.986997   2.487529   1.547392
     8  H    1.097029   2.189339   2.704785   2.071659   2.510565
     9  H    1.091227   2.213129   3.354784   2.026599   3.176054
    10  H    3.203171   2.342732   1.406813   2.806193   2.046198
    11  H    2.205448   1.090315   2.165833   3.291565   3.346471
    12  H    2.175443   1.090822   2.181493   2.669660   2.997451
                    6          7          8          9         10
     6  O    0.000000
     7  H    2.687164   0.000000
     8  H    3.256794   3.908979   0.000000
     9  H    4.305565   4.198131   1.791010   0.000000
    10  H    2.200098   1.190712   3.832081   4.022031   0.000000
    11  H    2.673051   3.966694   2.490611   2.714878   3.159960
    12  H    3.226586   3.143739   3.085003   2.479594   2.349846
                   11         12
    11  H    0.000000
    12  H    1.783997   0.000000
 Stoichiometry    C3H6O3
 Framework group  C1[X(C3H6O3)]
 Deg. of freedom    30
 Full point group                 C1      NOp   1
 Largest Abelian subgroup         C1      NOp   1
 Largest concise Abelian subgroup C1      NOp   1
                         Standard orientation:                         
 ---------------------------------------------------------------------
 Center     Atomic      Atomic             Coordinates (Angstroms)
 Number     Number       Type             X           Y           Z
 ---------------------------------------------------------------------
      1          6           0        1.283266    0.617429   -0.381422
      2          6           0        0.091428    1.199896    0.397108
      3          6           0       -0.943853    0.091562    0.217833
      4          8           0        1.367724   -0.713708    0.080342
      5          8           0        0.039896   -1.193128   -0.119603
      6          8           0       -1.941531    0.090738   -0.444605
      7          1           0       -0.666316   -1.619199    1.189651
      8          1           0        1.102311    0.642391   -1.463136
      9          1           0        2.232939    1.103993   -0.153051
     10          1           0       -1.061645   -0.532407    1.473186
     11          1           0       -0.274298    2.137163   -0.023086
     12          1           0        0.353251    1.343525    1.446256
 ---------------------------------------------------------------------
 Rotational constants (GHZ):           6.3990443           3.4953863           2.6200195
 Standard basis: 6-31+G(d) (6D, 7F)
 There are   126 symmetry adapted cartesian basis functions of A   symmetry.
 There are   126 symmetry adapted basis functions of A   symmetry.
   126 basis functions,   216 primitive gaussians,   126 cartesian basis functions
    24 alpha electrons       24 beta electrons
       nuclear repulsion energy       259.6124708431 Hartrees.
 NAtoms=   12 NActive=   12 NUniq=   12 SFac= 1.00D+00 NAtFMM=   60 NAOKFM=F Big=F
 Integral buffers will be    131072 words long.
 Raffenetti 2 integral format.
 Two-electron integral symmetry is turned on.
 One-electron integrals computed using PRISM.
 NBasis=   126 RedAO= T EigKep=  1.19D-04  NBF=   126
 NBsUse=   126 1.00D-06 EigRej= -1.00D+00 NBFU=   126
 Initial guess from the checkpoint file:  "/scratch/bell/zhao922/YARP/paper-example/KHP-network/pp_0/TS-folder/Gau-20918.chk"
 B after Tr=     0.000000   -0.000000    0.000000
         Rot=    0.999953    0.005049    0.002392   -0.007962 Ang=   1.11 deg.
 ExpMin= 4.38D-02 ExpMax= 5.48D+03 ExpMxC= 8.25D+02 IAcc=3 IRadAn=         5 AccDes= 0.00D+00
 Harris functional with IExCor=  402 and IRadAn=       5 diagonalized for initial guess.
 HarFok:  IExCor=  402 AccDes= 0.00D+00 IRadAn=         5 IDoV= 1 UseB2=F ITyADJ=14
 ICtDFT=  3500011 ScaDFX=  1.000000  1.000000  1.000000  1.000000
 FoFCou: FMM=F IPFlag=           0 FMFlag=      100000 FMFlg1=           0
         NFxFlg=           0 DoJE=T BraDBF=F KetDBF=T FulRan=T
         wScrn=  0.000000 ICntrl=       500 IOpCl=  0 I1Cent=   200000004 NGrid=           0
         NMat0=    1 NMatS0=      1 NMatT0=    0 NMatD0=    1 NMtDS0=    0 NMtDT0=    0
 Petite list used in FoFCou.
 Keep R1 ints in memory in canonical form, NReq=47237537.
 Requested convergence on RMS density matrix=1.00D-08 within 128 cycles.
 Requested convergence on MAX density matrix=1.00D-06.
 Requested convergence on             energy=1.00D-06.
 No special actions if energy rises.
 SCF Done:  E(RB3LYP) =  -343.365017402     A.U. after   13 cycles
            NFock= 13  Conv=0.42D-08     -V/T= 2.0089
 DoSCS=F DFT=T ScalE2(SS,OS)=  1.000000  1.000000
 Range of M.O.s used for correlation:     1   126
 NBasis=   126 NAE=    24 NBE=    24 NFC=     0 NFV=     0
 NROrb=    126 NOA=    24 NOB=    24 NVA=   102 NVB=   102

 **** Warning!!: The largest alpha MO coefficient is  0.28591216D+02

 Symmetrizing basis deriv contribution to polar:
 IMax=3 JMax=2 DiffMx= 0.00D+00
 G2DrvN: will do    13 centers at a time, making    1 passes.
 Calling FoFCou, ICntrl=  3107 FMM=F I1Cent=   0 AccDes= 0.00D+00.
 End of G2Drv F.D. properties file   721 does not exist.
 End of G2Drv F.D. properties file   722 does not exist.
 End of G2Drv F.D. properties file   788 does not exist.
          IDoAtm=111111111111
          Differentiating once with respect to electric field.
                with respect to dipole field.
          Differentiating once with respect to nuclear coordinates.
 Keep R1 ints in memory in canonical form, NReq=47193552.
          There are    39 degrees of freedom in the 1st order CPHF.  IDoFFX=6 NUNeed=     3.
     36 vectors produced by pass  0 Test12= 6.28D-15 2.56D-09 XBig12= 6.11D+01 3.47D+00.
 AX will form    36 AO Fock derivatives at one time.
     36 vectors produced by pass  1 Test12= 6.28D-15 2.56D-09 XBig12= 2.07D+01 7.83D-01.
     36 vectors produced by pass  2 Test12= 6.28D-15 2.56D-09 XBig12= 2.12D-01 7.63D-02.
     36 vectors produced by pass  3 Test12= 6.28D-15 2.56D-09 XBig12= 9.94D-04 5.07D-03.
     36 vectors produced by pass  4 Test12= 6.28D-15 2.56D-09 XBig12= 1.66D-06 1.52D-04.
     26 vectors produced by pass  5 Test12= 6.28D-15 2.56D-09 XBig12= 1.53D-09 4.23D-06.
      4 vectors produced by pass  6 Test12= 6.28D-15 2.56D-09 XBig12= 1.17D-12 1.38D-07.
      1 vectors produced by pass  7 Test12= 6.28D-15 2.56D-09 XBig12= 1.16D-15 3.62D-09.
 InvSVY:  IOpt=1 It=  1 EMax= 7.11D-15
 Solved reduced A of dimension   211 with    39 vectors.
 Isotropic polarizability for W=    0.000000       56.27 Bohr**3.
 End of Minotr F.D. properties file   721 does not exist.
 End of Minotr F.D. properties file   722 does not exist.
 End of Minotr F.D. properties file   788 does not exist.
 Calling FoFJK, ICntrl=    100127 FMM=F ISym2X=0 I1Cent= 0 IOpClX= 0 NMat=1 NMatS=1 NMatT=0.
 ***** Axes restored to original set *****
 -------------------------------------------------------------------
 Center     Atomic                   Forces (Hartrees/Bohr)
 Number     Number              X              Y              Z
 -------------------------------------------------------------------
      1        6          -0.007041924   -0.009429705   -0.003240427
      2        6           0.000091658    0.002419304   -0.003576112
      3        6          -0.001680720    0.005562807   -0.000300993
      4        8           0.004417313    0.016097825   -0.004915364
      5        8           0.015500923    0.008272877    0.018088353
      6        8          -0.000474297   -0.010148627    0.003911151
      7        1          -0.019208860   -0.029786305   -0.034359762
      8        1           0.000595996    0.000334981   -0.000301894
      9        1          -0.000998655    0.002638315    0.000331644
     10        1           0.009359849    0.016122141    0.022049579
     11        1           0.000056238   -0.003240970    0.002930637
     12        1          -0.000617521    0.001157358   -0.000616812
 -------------------------------------------------------------------
 Cartesian Forces:  Max     0.034359762 RMS     0.011253508
 FormGI is forming the generalized inverse of G from B-inverse, IUseBI=4.

 GradGradGradGradGradGradGradGradGradGradGradGradGradGradGradGradGradGrad
 Berny optimization.
 Internal  Forces:  Max     0.036037068 RMS     0.006817456
 Search for a saddle point.
 Step number   3 out of a maximum of  100
 All quantities printed in internal units (Hartrees-Bohrs-Radians)
 Swapping is turned off.
 Second derivative matrix not updated -- analytic derivatives used.
 ITU=  0  0  0
     Eigenvalues ---   -0.21045   0.00137   0.00941   0.01950   0.02757
     Eigenvalues ---    0.03053   0.03620   0.04022   0.04687   0.05562
     Eigenvalues ---    0.06341   0.06969   0.08274   0.09455   0.09971
     Eigenvalues ---    0.10883   0.12012   0.19240   0.21419   0.21875
     Eigenvalues ---    0.23698   0.27248   0.29705   0.31968   0.33564
     Eigenvalues ---    0.34311   0.34969   0.35476   0.35926   0.93850
 Eigenvectors required to have negative eigenvalues:
                          R11       R12       R8        A20       A18
   1                   -0.62273   0.52988   0.34741  -0.21751  -0.14273
                          D25       A13       D14       D24       D17
   1                    0.12158  -0.10118   0.09989   0.09936  -0.09696
 RFO step:  Lambda0=5.313173756D-04 Lambda=-3.29854225D-02.
 Linear search not attempted -- option 19 set.
 Maximum step size (   0.300) exceeded in Quadratic search.
    -- Step size scaled by   0.433
 Iteration  1 RMS(Cart)=  0.03582216 RMS(Int)=  0.00322643
 Iteration  2 RMS(Cart)=  0.00405557 RMS(Int)=  0.00031969
 Iteration  3 RMS(Cart)=  0.00002497 RMS(Int)=  0.00031887
 Iteration  4 RMS(Cart)=  0.00000000 RMS(Int)=  0.00031887
 Variable       Old X    -DE/DX   Delta X   Delta X   Delta X     New X
                                 (Linear)    (Quad)   (Total)
    R1        2.90665  -0.00004   0.00000  -0.00325  -0.00347   2.90318
    R2        2.66732   0.00904   0.00000   0.01231   0.01220   2.67951
    R3        2.07308   0.00036   0.00000  -0.00012  -0.00012   2.07296
    R4        2.06212   0.00106   0.00000   0.00110   0.00110   2.06322
    R5        2.88600   0.00244   0.00000  -0.00247  -0.00257   2.88342
    R6        2.06040   0.00182   0.00000   0.00218   0.00218   2.06258
    R7        2.06136   0.00111   0.00000   0.00107   0.00107   2.06242
    R8        3.12351   0.00461   0.00000   0.06893   0.06915   3.19267
    R9        2.26309   0.00965   0.00000  -0.00404  -0.00404   2.25905
   R10        2.69440   0.01066   0.00000   0.01287   0.01307   2.70747
   R11        2.92415  -0.00562   0.00000  -0.15569  -0.15569   2.76846
   R12        2.25012  -0.02314   0.00000  -0.15862  -0.15862   2.09150
    A1        1.81101   0.00034   0.00000   0.00594   0.00585   1.81686
    A2        1.94191   0.00030   0.00000   0.00358   0.00363   1.94555
    A3        1.98184   0.00055   0.00000  -0.00026  -0.00028   1.98156
    A4        1.93254  -0.00009   0.00000  -0.00301  -0.00305   1.92950
    A5        1.87545  -0.00155   0.00000  -0.00830  -0.00823   1.86722
    A6        1.91746   0.00036   0.00000   0.00159   0.00156   1.91902
    A7        1.76301   0.00297   0.00000   0.01688   0.01681   1.77982
    A8        1.97184   0.00241   0.00000   0.00526   0.00531   1.97715
    A9        1.92911  -0.00255   0.00000  -0.00433  -0.00425   1.92486
   A10        1.92968  -0.00360   0.00000  -0.01502  -0.01503   1.91465
   A11        1.95106   0.00009   0.00000  -0.00400  -0.00404   1.94703
   A12        1.91557   0.00076   0.00000   0.00177   0.00170   1.91727
   A13        1.75643  -0.00073   0.00000  -0.01444  -0.01405   1.74237
   A14        2.25257  -0.00177   0.00000   0.01115   0.01102   2.26360
   A15        1.96315   0.00369   0.00000   0.00906   0.00893   1.97208
   A16        1.78800  -0.00348   0.00000  -0.00036   0.00003   1.78803
   A17        1.83827   0.00064   0.00000  -0.00533  -0.00593   1.83234
   A18        1.33836  -0.01025   0.00000  -0.06192  -0.06276   1.27559
   A19        1.98118  -0.00342   0.00000  -0.04325  -0.04340   1.93778
   A20        1.67266   0.03604   0.00000   0.16881   0.16881   1.84147
    D1       -0.81933  -0.00100   0.00000  -0.00339  -0.00331  -0.82264
    D2       -2.88075   0.00041   0.00000   0.00203   0.00205  -2.87871
    D3        1.24832  -0.00040   0.00000  -0.00085  -0.00083   1.24749
    D4        1.25933  -0.00077   0.00000  -0.00172  -0.00167   1.25766
    D5       -0.80210   0.00065   0.00000   0.00370   0.00369  -0.79840
    D6       -2.95621  -0.00017   0.00000   0.00082   0.00082  -2.95539
    D7       -2.84980   0.00037   0.00000   0.00305   0.00312  -2.84668
    D8        1.37196   0.00179   0.00000   0.00847   0.00848   1.38044
    D9       -0.78215   0.00097   0.00000   0.00559   0.00560  -0.77655
   D10        0.92004  -0.00077   0.00000  -0.00100  -0.00091   0.91913
   D11       -1.16503  -0.00127   0.00000  -0.00713  -0.00703  -1.17206
   D12        3.02400  -0.00070   0.00000  -0.00218  -0.00214   3.02185
   D13        0.38503  -0.00017   0.00000  -0.00209  -0.00194   0.38309
   D14       -1.89792  -0.00350   0.00000  -0.00935  -0.00931  -1.90723
   D15        2.47685   0.00264   0.00000   0.00657   0.00658   2.48343
   D16        0.19390  -0.00068   0.00000  -0.00069  -0.00079   0.19311
   D17       -1.66663   0.00110   0.00000  -0.00469  -0.00457  -1.67120
   D18        2.33359  -0.00222   0.00000  -0.01195  -0.01193   2.32166
   D19        0.12422   0.00171   0.00000   0.00224   0.00204   0.12626
   D20        2.06353  -0.00404   0.00000  -0.05480  -0.05461   2.00891
   D21        2.57641   0.00163   0.00000   0.01177   0.01161   2.58802
   D22       -1.76747  -0.00411   0.00000  -0.04527  -0.04505  -1.81252
   D23       -0.63397   0.00003   0.00000   0.00351   0.00362  -0.63035
   D24       -2.06305   0.01189   0.00000   0.08375   0.08348  -1.97958
   D25       -0.27307   0.00866   0.00000   0.03724   0.03584  -0.23723
   D26        1.49216   0.00582   0.00000   0.01353   0.01494   1.50709
         Item               Value     Threshold  Converged?
 Maximum Force            0.036037     0.000450     NO 
 RMS     Force            0.006817     0.000300     NO 
 Maximum Displacement     0.221537     0.001800     NO 
 RMS     Displacement     0.035269     0.001200     NO 
 Predicted change in Energy=-1.271594D-02
 GradGradGradGradGradGradGradGradGradGradGradGradGradGradGradGradGradGrad

                          Input orientation:                          
 ---------------------------------------------------------------------
 Center     Atomic      Atomic             Coordinates (Angstroms)
 Number     Number       Type             X           Y           Z
 ---------------------------------------------------------------------
      1          6           0        1.527687    1.343069   -2.753038
      2          6           0        0.455931    0.514637   -2.028302
      3          6           0        1.033608    0.412363   -0.619748
      4          8           0        1.788825    2.419827   -1.868198
      5          8           0        2.071395    1.745440   -0.636096
      6          8           0        1.495500   -0.532020   -0.050655
      7          1           0        1.037318    2.022553    0.363970
      8          1           0        2.438857    0.757338   -2.926287
      9          1           0        1.180773    1.778884   -3.692058
     10          1           0        0.243814    1.272052    0.184941
     11          1           0        0.327385   -0.485195   -2.446773
     12          1           0       -0.498567    1.043826   -2.032807
 ---------------------------------------------------------------------
                    Distance matrix (angstroms):
                    1          2          3          4          5
     1  C    0.000000
     2  C    1.536295   0.000000
     3  C    2.379339   1.525843   0.000000
     4  O    1.417936   2.330663   2.481712   0.000000
     5  O    2.222378   2.462283   1.689486   1.432731   0.000000
     6  O    3.289356   2.467242   1.195437   3.478922   2.420996
     7  H    3.227676   2.887002   1.886908   2.388548   1.465004
     8  H    1.096963   2.190269   2.722840   2.075082   2.521180
     9  H    1.091807   2.211741   3.365728   2.026574   3.183274
    10  H    3.207038   2.348854   1.417873   2.814219   2.058701
    11  H    2.208410   1.091470   2.154619   3.302986   3.360931
    12  H    2.171171   1.091388   2.177853   2.674442   3.007951
                    6          7          8          9         10
     6  O    0.000000
     7  H    2.628247   0.000000
     8  H    3.289623   3.793529   0.000000
     9  H    4.324250   4.065872   1.792412   0.000000
    10  H    2.208370   1.106775   3.842250   4.020683   0.000000
    11  H    2.666096   3.833155   2.496425   2.721224   3.165569
    12  H    3.223123   3.010214   3.083641   2.472570   2.349814
                   11         12
    11  H    0.000000
    12  H    1.786469   0.000000
 Stoichiometry    C3H6O3
 Framework group  C1[X(C3H6O3)]
 Deg. of freedom    30
 Full point group                 C1      NOp   1
 Largest Abelian subgroup         C1      NOp   1
 Largest concise Abelian subgroup C1      NOp   1
                         Standard orientation:                         
 ---------------------------------------------------------------------
 Center     Atomic      Atomic             Coordinates (Angstroms)
 Number     Number       Type             X           Y           Z
 ---------------------------------------------------------------------
      1          6           0        1.273834    0.640616   -0.382987
      2          6           0        0.065462    1.199865    0.383355
      3          6           0       -0.960230    0.082649    0.216081
      4          8           0        1.393929   -0.691961    0.086436
      5          8           0        0.074103   -1.211072   -0.116793
      6          8           0       -1.963097    0.057927   -0.434085
      7          1           0       -0.577889   -1.504732    1.161841
      8          1           0        1.103051    0.653307   -1.466499
      9          1           0        2.211855    1.147379   -0.147718
     10          1           0       -1.047197   -0.554186    1.479902
     11          1           0       -0.325472    2.125217   -0.043495
     12          1           0        0.321771    1.355090    1.432802
 ---------------------------------------------------------------------
 Rotational constants (GHZ):           6.4060242           3.4475785           2.5857038
 Standard basis: 6-31+G(d) (6D, 7F)
 There are   126 symmetry adapted cartesian basis functions of A   symmetry.
 There are   126 symmetry adapted basis functions of A   symmetry.
   126 basis functions,   216 primitive gaussians,   126 cartesian basis functions
    24 alpha electrons       24 beta electrons
       nuclear repulsion energy       258.8345465663 Hartrees.
 NAtoms=   12 NActive=   12 NUniq=   12 SFac= 1.00D+00 NAtFMM=   60 NAOKFM=F Big=F
 Integral buffers will be    131072 words long.
 Raffenetti 2 integral format.
 Two-electron integral symmetry is turned on.
 One-electron integrals computed using PRISM.
 NBasis=   126 RedAO= T EigKep=  1.20D-04  NBF=   126
 NBsUse=   126 1.00D-06 EigRej= -1.00D+00 NBFU=   126
 Initial guess from the checkpoint file:  "/scratch/bell/zhao922/YARP/paper-example/KHP-network/pp_0/TS-folder/Gau-20918.chk"
 B after Tr=     0.000000    0.000000    0.000000
         Rot=    0.999945    0.003652   -0.001047   -0.009792 Ang=   1.20 deg.
 ExpMin= 4.38D-02 ExpMax= 5.48D+03 ExpMxC= 8.25D+02 IAcc=3 IRadAn=         5 AccDes= 0.00D+00
 Harris functional with IExCor=  402 and IRadAn=       5 diagonalized for initial guess.
 HarFok:  IExCor=  402 AccDes= 0.00D+00 IRadAn=         5 IDoV= 1 UseB2=F ITyADJ=14
 ICtDFT=  3500011 ScaDFX=  1.000000  1.000000  1.000000  1.000000
 FoFCou: FMM=F IPFlag=           0 FMFlag=      100000 FMFlg1=           0
         NFxFlg=           0 DoJE=T BraDBF=F KetDBF=T FulRan=T
         wScrn=  0.000000 ICntrl=       500 IOpCl=  0 I1Cent=   200000004 NGrid=           0
         NMat0=    1 NMatS0=      1 NMatT0=    0 NMatD0=    1 NMtDS0=    0 NMtDT0=    0
 Petite list used in FoFCou.
 Keep R1 ints in memory in canonical form, NReq=47237537.
 Requested convergence on RMS density matrix=1.00D-08 within 128 cycles.
 Requested convergence on MAX density matrix=1.00D-06.
 Requested convergence on             energy=1.00D-06.
 No special actions if energy rises.
 SCF Done:  E(RB3LYP) =  -343.377632711     A.U. after   12 cycles
            NFock= 12  Conv=0.61D-08     -V/T= 2.0089
 DoSCS=F DFT=T ScalE2(SS,OS)=  1.000000  1.000000
 Range of M.O.s used for correlation:     1   126
 NBasis=   126 NAE=    24 NBE=    24 NFC=     0 NFV=     0
 NROrb=    126 NOA=    24 NOB=    24 NVA=   102 NVB=   102

 **** Warning!!: The largest alpha MO coefficient is  0.30710095D+02

 Symmetrizing basis deriv contribution to polar:
 IMax=3 JMax=2 DiffMx= 0.00D+00
 G2DrvN: will do    13 centers at a time, making    1 passes.
 Calling FoFCou, ICntrl=  3107 FMM=F I1Cent=   0 AccDes= 0.00D+00.
 End of G2Drv F.D. properties file   721 does not exist.
 End of G2Drv F.D. properties file   722 does not exist.
 End of G2Drv F.D. properties file   788 does not exist.
          IDoAtm=111111111111
          Differentiating once with respect to electric field.
                with respect to dipole field.
          Differentiating once with respect to nuclear coordinates.
 Keep R1 ints in memory in canonical form, NReq=47193552.
          There are    39 degrees of freedom in the 1st order CPHF.  IDoFFX=6 NUNeed=     3.
     36 vectors produced by pass  0 Test12= 6.28D-15 2.56D-09 XBig12= 5.73D+01 3.04D+00.
 AX will form    36 AO Fock derivatives at one time.
     36 vectors produced by pass  1 Test12= 6.28D-15 2.56D-09 XBig12= 2.01D+01 7.65D-01.
     36 vectors produced by pass  2 Test12= 6.28D-15 2.56D-09 XBig12= 2.07D-01 7.16D-02.
     36 vectors produced by pass  3 Test12= 6.28D-15 2.56D-09 XBig12= 1.11D-03 6.75D-03.
     36 vectors produced by pass  4 Test12= 6.28D-15 2.56D-09 XBig12= 1.87D-06 1.61D-04.
     26 vectors produced by pass  5 Test12= 6.28D-15 2.56D-09 XBig12= 1.80D-09 4.82D-06.
      4 vectors produced by pass  6 Test12= 6.28D-15 2.56D-09 XBig12= 1.45D-12 1.45D-07.
      2 vectors produced by pass  7 Test12= 6.28D-15 2.56D-09 XBig12= 1.22D-15 3.76D-09.
 InvSVY:  IOpt=1 It=  1 EMax= 3.55D-15
 Solved reduced A of dimension   212 with    39 vectors.
 Isotropic polarizability for W=    0.000000       55.10 Bohr**3.
 End of Minotr F.D. properties file   721 does not exist.
 End of Minotr F.D. properties file   722 does not exist.
 End of Minotr F.D. properties file   788 does not exist.
 Calling FoFJK, ICntrl=    100127 FMM=F ISym2X=0 I1Cent= 0 IOpClX= 0 NMat=1 NMatS=1 NMatT=0.
 ***** Axes restored to original set *****
 -------------------------------------------------------------------
 Center     Atomic                   Forces (Hartrees/Bohr)
 Number     Number              X              Y              Z
 -------------------------------------------------------------------
      1        6          -0.005273502   -0.006191568   -0.001860482
      2        6           0.000020343    0.002355807   -0.002374966
      3        6          -0.002750388    0.001535813   -0.000050311
      4        8           0.003404388    0.010032357   -0.003426459
      5        8           0.011706552    0.010305615    0.015604622
      6        8          -0.000603074   -0.006619330    0.002552821
      7        1          -0.012474243   -0.024329011   -0.028310791
      8        1           0.000392064    0.000297764   -0.000273793
      9        1          -0.000719609    0.001889500    0.000381547
     10        1           0.006633212    0.012370956    0.016061078
     11        1           0.000162210   -0.002112229    0.002037600
     12        1          -0.000497952    0.000464325   -0.000340865
 -------------------------------------------------------------------
 Cartesian Forces:  Max     0.028310791 RMS     0.008771685
 FormGI is forming the generalized inverse of G from B-inverse, IUseBI=4.

 GradGradGradGradGradGradGradGradGradGradGradGradGradGradGradGradGradGrad
 Berny optimization.
 Internal  Forces:  Max     0.027849549 RMS     0.005125520
 Search for a saddle point.
 Step number   4 out of a maximum of  100
 All quantities printed in internal units (Hartrees-Bohrs-Radians)
 Swapping is turned off.
 Second derivative matrix not updated -- analytic derivatives used.
 ITU=  0  0  0  0
     Eigenvalues ---   -0.21402   0.00186   0.00929   0.02654   0.02908
     Eigenvalues ---    0.03071   0.03776   0.04144   0.04655   0.05566
     Eigenvalues ---    0.06458   0.06949   0.08493   0.09545   0.10002
     Eigenvalues ---    0.11616   0.11688   0.18192   0.21269   0.21589
     Eigenvalues ---    0.23575   0.26557   0.29157   0.31538   0.33062
     Eigenvalues ---    0.34061   0.34827   0.35274   0.35631   0.94265
 Eigenvectors required to have negative eigenvalues:
                          R11       R12       R8        A20       A18
   1                   -0.64871   0.48716   0.36270  -0.23309  -0.15365
                          D24       A13       D25       D17       D19
   1                    0.10751  -0.10344   0.10318  -0.09399   0.09285
 RFO step:  Lambda0=9.235422153D-05 Lambda=-2.21699008D-02.
 Linear search not attempted -- option 19 set.
 Maximum step size (   0.300) exceeded in Quadratic search.
    -- Step size scaled by   0.526
 Iteration  1 RMS(Cart)=  0.03532965 RMS(Int)=  0.00393217
 Iteration  2 RMS(Cart)=  0.00450305 RMS(Int)=  0.00035340
 Iteration  3 RMS(Cart)=  0.00003569 RMS(Int)=  0.00035207
 Iteration  4 RMS(Cart)=  0.00000001 RMS(Int)=  0.00035207
 Variable       Old X    -DE/DX   Delta X   Delta X   Delta X     New X
                                 (Linear)    (Quad)   (Total)
    R1        2.90318  -0.00003   0.00000  -0.00240  -0.00263   2.90054
    R2        2.67951   0.00566   0.00000   0.00826   0.00812   2.68764
    R3        2.07296   0.00021   0.00000   0.00007   0.00007   2.07303
    R4        2.06322   0.00065   0.00000   0.00096   0.00096   2.06418
    R5        2.88342   0.00151   0.00000  -0.00553  -0.00563   2.87779
    R6        2.06258   0.00113   0.00000   0.00193   0.00193   2.06451
    R7        2.06242   0.00066   0.00000   0.00066   0.00066   2.06308
    R8        3.19267   0.00550   0.00000   0.08299   0.08323   3.27589
    R9        2.25905   0.00621   0.00000  -0.00685  -0.00685   2.25220
   R10        2.70747   0.00677   0.00000   0.01078   0.01098   2.71845
   R11        2.76846  -0.00650   0.00000  -0.12099  -0.12099   2.64747
   R12        2.09150  -0.01574   0.00000  -0.14855  -0.14855   1.94295
    A1        1.81686   0.00036   0.00000   0.00711   0.00702   1.82388
    A2        1.94555   0.00032   0.00000   0.00219   0.00222   1.94777
    A3        1.98156   0.00026   0.00000  -0.00194  -0.00193   1.97963
    A4        1.92950  -0.00013   0.00000  -0.00191  -0.00193   1.92757
    A5        1.86722  -0.00115   0.00000  -0.00741  -0.00735   1.85987
    A6        1.91902   0.00026   0.00000   0.00165   0.00164   1.92066
[...]
   D24       -1.66222  -0.00000   0.00000   0.00001   0.00001  -1.66221
   D25       -0.05629   0.00000   0.00000   0.00002   0.00002  -0.05627
   D26        1.62535   0.00000   0.00000   0.00002   0.00002   1.62537
         Item               Value     Threshold  Converged?
 Maximum Force            0.000002     0.000450     YES
 RMS     Force            0.000000     0.000300     YES
 Maximum Displacement     0.000020     0.001800     YES
 RMS     Displacement     0.000005     0.001200     YES
 Predicted change in Energy=-1.905714D-11
 Optimization completed.
    -- Stationary point found.
                           ----------------------------
                           !   Optimized Parameters   !
                           ! (Angstroms and Degrees)  !
 --------------------------                            --------------------------
 ! Name  Definition              Value          Derivative Info.                !
 --------------------------------------------------------------------------------
 ! R1    R(1,2)                  1.536          -DE/DX =    0.0                 !
 ! R2    R(1,4)                  1.4215         -DE/DX =    0.0                 !
 ! R3    R(1,8)                  1.0976         -DE/DX =    0.0                 !
 ! R4    R(1,9)                  1.0933         -DE/DX =    0.0                 !
 ! R5    R(2,3)                  1.5121         -DE/DX =    0.0                 !
 ! R6    R(2,11)                 1.0943         -DE/DX =    0.0                 !
 ! R7    R(2,12)                 1.0918         -DE/DX =    0.0                 !
 ! R8    R(3,5)                  1.8658         -DE/DX =    0.0                 !
 ! R9    R(3,6)                  1.1817         -DE/DX =    0.0                 !
 ! R10   R(4,5)                  1.4451         -DE/DX =    0.0                 !
 ! R11   R(5,7)                  1.3623         -DE/DX =    0.0                 !
 ! R12   R(7,10)                 0.934          -DE/DX =    0.0                 !
 ! A1    A(2,1,4)              106.229          -DE/DX =    0.0                 !
 ! A2    A(2,1,8)              111.1536         -DE/DX =    0.0                 !
 ! A3    A(2,1,9)              112.5569         -DE/DX =    0.0                 !
 ! A4    A(4,1,8)              110.558          -DE/DX =    0.0                 !
 ! A5    A(4,1,9)              106.0983         -DE/DX =    0.0                 !
 ! A6    A(8,1,9)              110.06           -DE/DX =    0.0                 !
 ! A7    A(1,2,3)              105.2623         -DE/DX =    0.0                 !
 ! A8    A(1,2,11)             113.028          -DE/DX =    0.0                 !
 ! A9    A(1,2,12)             110.6631         -DE/DX =    0.0                 !
 ! A10   A(3,2,11)             107.3451         -DE/DX =    0.0                 !
 ! A11   A(3,2,12)             110.5773         -DE/DX =    0.0                 !
 ! A12   A(11,2,12)            109.8257         -DE/DX =    0.0                 !
 ! A13   A(2,3,5)               96.7675         -DE/DX =    0.0                 !
 ! A14   A(2,3,6)              134.2754         -DE/DX =    0.0                 !
 ! A15   A(5,3,6)              114.9638         -DE/DX =    0.0                 !
 ! A16   A(1,4,5)              104.0996         -DE/DX =    0.0                 !
 ! A17   A(3,5,4)              102.6519         -DE/DX =    0.0                 !
 ! A18   A(3,5,7)               59.8625         -DE/DX =    0.0                 !
 ! A19   A(4,5,7)              104.5866         -DE/DX =    0.0                 !
 ! A20   A(5,7,10)             141.777          -DE/DX =    0.0                 !
 ! D1    D(4,1,2,3)            -47.7852         -DE/DX =    0.0                 !
 ! D2    D(4,1,2,11)          -164.6421         -DE/DX =    0.0                 !
 ! D3    D(4,1,2,12)            71.7048         -DE/DX =    0.0                 !
 ! D4    D(8,1,2,3)             72.5318         -DE/DX =    0.0                 !
 ! D5    D(8,1,2,11)           -44.3251         -DE/DX =    0.0                 !
 ! D6    D(8,1,2,12)          -167.9782         -DE/DX =    0.0                 !
 ! D7    D(9,1,2,3)           -163.4829         -DE/DX =    0.0                 !
 ! D8    D(9,1,2,11)            79.6603         -DE/DX =    0.0                 !
 ! D9    D(9,1,2,12)           -43.9929         -DE/DX =    0.0                 !
 ! D10   D(2,1,4,5)             51.7462         -DE/DX =    0.0                 !
 ! D11   D(8,1,4,5)            -68.9559         -DE/DX =    0.0                 !
 ! D12   D(9,1,4,5)            171.735          -DE/DX =    0.0                 !
 ! D13   D(1,2,3,5)             22.243          -DE/DX =    0.0                 !
 ! D14   D(1,2,3,6)           -112.9345         -DE/DX =    0.0                 !
 ! D15   D(11,2,3,5)           142.9082         -DE/DX =    0.0                 !
 ! D16   D(11,2,3,6)             7.7307         -DE/DX =    0.0                 !
 ! D17   D(12,2,3,5)           -97.304          -DE/DX =    0.0                 !
 ! D18   D(12,2,3,6)           127.5184         -DE/DX =    0.0                 !
 ! D19   D(2,3,5,4)              5.6277         -DE/DX =    0.0                 !
 ! D20   D(2,3,5,7)            105.3071         -DE/DX =    0.0                 !
 ! D21   D(6,3,5,4)            151.7982         -DE/DX =    0.0                 !
 ! D22   D(6,3,5,7)           -108.5225         -DE/DX =    0.0                 !
 ! D23   D(1,4,5,3)            -33.4865         -DE/DX =    0.0                 !
 ! D24   D(1,4,5,7)            -95.2382         -DE/DX =    0.0                 !
 ! D25   D(3,5,7,10)            -3.225          -DE/DX =    0.0                 !
 ! D26   D(4,5,7,10)            93.1259         -DE/DX =    0.0                 !
 --------------------------------------------------------------------------------
 GradGradGradGradGradGradGradGradGradGradGradGradGradGradGradGradGradGrad


 ----------------------------------------------------------------------

 Electric dipole moment (input orientation):
 (Debye = 10**-18 statcoulomb cm , SI units = C m)
                  (au)            (Debye)         (10**-30 SI)
   Tot        0.159320D+01      0.404951D+01      0.135077D+02
   x         -0.101244D+01     -0.257335D+01     -0.858378D+01
   y         -0.275581D+00     -0.700456D+00     -0.233647D+01
   z         -0.119888D+01     -0.304725D+01     -0.101645D+02

 Dipole polarizability, Alpha (input orientation).
 (esu units = cm**3 , SI units = C**2 m**2 J**-1)
 Alpha(0;0):
               (au)            (10**-24 esu)      (10**-40 SI)
   iso        0.544624D+02      0.807050D+01      0.897964D+01
   aniso      0.125261D+02      0.185617D+01      0.206527D+01
   xx         0.481934D+02      0.714152D+01      0.794602D+01
   yx         0.177211D+01      0.262599D+00      0.292181D+00
   yy         0.582254D+02      0.862811D+01      0.960007D+01
   zx        -0.275603D+01     -0.408401D+00     -0.454407D+00
   zy        -0.341968D+01     -0.506744D+00     -0.563829D+00
   zz         0.569686D+02      0.844187D+01      0.939285D+01

 ----------------------------------------------------------------------

 Dipole orientation:
     6          5.35298015         -3.25414154          1.61229457
     6          3.04609341         -1.56203825          2.10242735
     6          2.17275491         -0.71359459         -0.48263085
     8          4.63287672         -4.95998728         -0.33395565
     8          3.65183646         -3.34455066         -2.30509544
     8          2.11645503          1.25143870         -1.54183805
     1          1.10771349         -3.31458106         -1.91254478
     1          6.99445783         -2.13021581          1.02519622
     1          5.84097593         -4.42151637          3.24567052
     1         -0.15832901         -2.39673008         -1.09387672
     1          3.50553218          0.13794627          3.18665316
     1          1.55651051         -2.62118970          3.05961984

 Electric dipole moment (dipole orientation):
 (Debye = 10**-18 statcoulomb cm , SI units = C m)
                  (au)            (Debye)         (10**-30 SI)
   Tot        0.159320D+01      0.404951D+01      0.135077D+02
   x          0.000000D+00      0.000000D+00      0.000000D+00
   y          0.000000D+00      0.000000D+00      0.000000D+00
   z          0.159320D+01      0.404951D+01      0.135077D+02

 Dipole polarizability, Alpha (dipole orientation).
 (esu units = cm**3 , SI units = C**2 m**2 J**-1)
 Alpha(0;0):
               (au)            (10**-24 esu)      (10**-40 SI)
   iso        0.544624D+02      0.807050D+01      0.897964D+01
   aniso      0.125261D+02      0.185617D+01      0.206527D+01
   xx         0.540284D+02      0.800619D+01      0.890809D+01
   yx        -0.404947D+01     -0.600069D+00     -0.667667D+00
   yy         0.590328D+02      0.874776D+01      0.973320D+01
   zx         0.408557D+01      0.605419D+00      0.673620D+00
   zy        -0.342921D+00     -0.508156D-01     -0.565400D-01
   zz         0.503261D+02      0.745755D+01      0.829765D+01

 ----------------------------------------------------------------------
 1\1\GINC-BELL-A064\Freq\RB3LYP\6-31+G(d)\C3H6O3\ZHAO922\23-Dec-2020\0\
 \#N Geom=AllCheck Guess=TCheck SCRF=Check GenChk RB3LYP/6-31+G(d) Freq
 \\pp_25_0 TS\\0,1\C,1.5297601515,1.3673693637,-2.7399744509\C,0.481645
 769,0.5189380935,-2.0045095916\C,1.0234453867,0.3432322961,-0.60378039
 67\O,1.8343672658,2.4567005022,-1.8789543634\O,2.151316579,1.829429517
 7,-0.6162676079\O,1.4219266787,-0.5800441122,0.0168001838\H,0.98423718
 25,1.8623512069,0.085691449\H,2.4329672896,0.7820245336,-2.9553041879\
 H,1.140477488,1.8088654889,-3.661349382\H,0.2238188259,1.3520232138,0.
 2694492143\H,0.3605706137,-0.4797886521,-2.4351477321\H,-0.4820082306,
 1.031673548,-1.9817031345\\Version=ES64L-G16RevB.01\State=1-A\HF=-343.
 3947412\RMSD=6.847e-09\RMSF=5.203e-07\ZeroPoint=0.0861028\Thermal=0.09
 1724\Dipole=-1.0124351,-0.2755807,-1.1988817\DipoleDeriv=0.3985335,0.0
 871984,-0.1184873,-0.032627,0.43712,0.182153,-0.0626184,0.0306589,0.38
 96325,-0.0444512,-0.0752546,0.1116514,-0.0603816,-0.0375023,-0.0181497
 ,-0.0074979,0.1198334,-0.1718267,0.7407914,-0.4131241,-0.1213543,-0.10
 91051,2.1569253,-0.1063606,-0.0198626,-0.1494104,1.1181688,-0.317241,-
 0.0554342,-0.0197417,-0.086637,-0.4174527,-0.0828051,0.1585663,0.00013
 8,-0.3364643,-0.691346,-0.557452,0.3542395,-0.2297751,-0.5406007,0.110
 5947,0.0818459,-0.0546662,-0.3472031,-0.3605471,0.4179389,-0.1406646,0
 .069578,-1.3279973,0.2649005,-0.0917505,0.5095529,-0.6436688,0.5174866
 ,0.5273654,-0.2406053,0.2818917,0.1951268,-0.1153603,-0.1547193,-0.203
 1947,0.1578908,-0.087113,0.0589844,0.0743188,0.0540816,-0.0389524,-0.0
 886439,0.0082776,-0.0084763,0.0198332,0.0574839,0.0274797,-0.0435411,0
 .0146876,0.0503968,0.0442919,-0.028757,0.0380974,-0.0591575,-0.2781244
 ,-0.0408372,0.1602597,0.0622574,-0.5012463,-0.1535198,0.1063252,-0.193
 8861,-0.2110937,0.078489,-0.0040616,-0.0165139,-0.0224074,-0.0177424,-
 0.043713,-0.0206305,-0.0590982,0.035241,-0.0139619,0.0271969,0.0004388
 ,0.058437,0.0419253,0.0066123,0.030821,-0.0295487,0.048648\Polar=48.19
 33993,1.7721079,58.2253676,-2.7560253,-3.4196786,56.9685665\Quadrupole
 =0.8396026,-3.2068408,2.3672382,-0.6876286,-0.3354152,2.4124422\PG=C01
  [X(C3H6O3)]\NImag=1\\0.52639806,-0.10914183,0.48032881,0.01887940,-0.
 06570506,0.58277424,-0.12691299,-0.02556611,0.04163749,0.54570744,-0.0
 2346867,-0.08819110,0.02358315,-0.04411509,0.59204421,0.03032223,0.019
 74183,-0.10204011,0.02236836,0.06652937,0.41733033,0.02022945,0.009278
 75,0.02185375,-0.07924102,0.00683489,-0.03576057,0.19918780,0.00774174
 ,0.00727967,0.02743224,0.01071761,-0.06828467,0.00692009,-0.23536785,0
 .59950646,0.01553466,0.02906022,-0.03005387,-0.04669236,0.00525174,-0.
 15314188,0.26498509,-0.36596738,0.58092866,-0.06491891,-0.01907687,-0.
 00780551,-0.00860364,-0.03463714,-0.01553528,0.00156781,-0.00101218,-0
 .00224383,0.09033106,-0.00393811,-0.17996785,-0.03602868,-0.01948700,-
 0.03946551,-0.00955227,0.00630387,-0.01339910,0.00548087,0.02657472,0.
 34581314,-0.01072345,-0.07497234,-0.10050167,-0.00744355,-0.00509100,0
 .00467162,-0.00007510,0.00115294,-0.00800625,0.06531391,0.01298674,0.3
 2007167,-0.01180956,-0.01308208,-0.01936932,-0.00406513,-0.00980432,-0
 .00858111,-0.05624005,0.02091349,-0.00062733,-0.02779687,0.01267471,-0
 .03114002,0.11662559,-0.01020826,0.00308761,-0.01743740,-0.01874968,-0
 .01059747,-0.00520620,0.04063570,0.02380352,-0.04307258,0.02921017,-0.
 09184811,0.09792815,0.00974219,0.09583886,-0.01496128,0.01898000,-0.05
 569218,-0.01500794,-0.00475512,0.00769061,0.01487394,0.00575842,-0.051
 66227,-0.05656330,0.03470326,-0.17249867,0.06621236,-0.07212400,0.2620
 1658,-0.00799321,-0.00141493,-0.00317210,0.00924800,0.01440707,-0.0140
 3484,-0.14672162,0.21208396,-0.17189679,-0.00059429,-0.00431508,0.0005
 7379,0.02182664,-0.01050223,0.00406780,0.14486392,0.00062973,-0.004467
 33,-0.00574179,0.00543957,-0.00388247,0.01065593,0.21462416,-0.5315594
 4,0.35828379,-0.00129853,-0.00468593,0.00377331,-0.01471170,-0.0213217
 5,0.01402725,-0.23688441,0.60031108,-0.00588673,-0.00161975,0.00189655
 ,-0.01616565,0.02975755,-0.01417294,-0.15961469,0.32037957,-0.32184979
 ,0.00266829,0.00130750,-0.00197683,-0.00053645,0.01532483,0.00916465,0
 .16945500,-0.36824938,0.31573872,0.00781354,0.01249052,0.00335096,-0.0
 1520462,-0.00142717,0.00934363,0.10175372,-0.00658482,-0.05918792,0.00
 036304,-0.01273485,-0.00656362,0.00060395,-0.03017442,-0.02583240,-0.0
 2375929,0.02415412,0.00916236,-0.02022849,0.00253271,0.00388631,0.0001
 1188,-0.00297769,0.00188818,0.00330356,0.02476405,-0.02261312,-0.02350
 440,-0.00841893,-0.00242005,0.00752678,0.03477919,-0.02317172,-0.01846
 753,-0.00470991,-0.00102483,0.00290428,-0.00879259,0.07158438,-0.00313
 518,-0.00438926,-0.00608032,0.00947831,-0.00489685,-0.00641608,-0.0513
 2784,-0.00708502,0.01522870,0.00850417,0.00247578,-0.01038014,-0.01754
 675,0.02630977,-0.00126886,0.00955206,-0.00588520,0.00145792,0.0440327
 0,0.01231024,0.03603654,-0.23440368,0.11318113,0.03632906,-0.01899793,
 0.00914624,0.00515252,-0.00266363,0.00098166,-0.00217924,0.01458913,-0
 .00540983,-0.00320548,0.00142484,-0.00031684,0.00148159,0.00103874,-0.
 00085423,0.00082207,-0.00024179,-0.00023622,0.00016339,0.24736225,0.11
 087973,-0.11359705,-0.01902456,-0.01772538,0.00991073,0.00535275,-0.00
 209140,-0.00143932,-0.00132105,0.01913463,-0.03054381,-0.01689782,0.00
 017241,0.00407805,0.00145296,0.00026963,0.00079494,-0.00016394,-0.0014
 8489,-0.00055707,0.00066809,-0.11863267,0.13630457,0.03326952,-0.01507
 257,-0.06266505,0.01443687,-0.00556641,-0.00285196,0.00224820,-0.00149
 189,0.00094001,0.01304273,-0.02355817,-0.01073852,0.00077956,-0.000058
 61,0.00447126,-0.00056457,0.00055600,-0.00018947,0.00037653,0.00052034
 ,-0.00010656,-0.04282641,0.02924493,0.06398078,-0.08579393,0.04346545,
 -0.08166194,0.00744053,-0.00806812,0.02114489,-0.00331961,-0.00461583,
 0.00110353,-0.00319784,0.00264372,-0.00876507,0.00179746,-0.00219748,-
 0.00116171,0.00121893,0.00025079,0.00068848,-0.00197208,-0.00051938,0.
 00101397,-0.00739741,0.01068612,-0.02194345,0.08927353,0.04623668,-0.1
 0158427,0.10277584,0.00721403,-0.00426679,0.01420746,-0.00279222,-0.00
 529328,-0.00038307,-0.00980686,0.01207028,-0.02539698,-0.00065128,-0.0
 0212492,-0.00795671,0.00039436,0.00137748,0.00035956,-0.00266427,-0.00
 047599,0.00076709,0.00496847,-0.00467304,0.01395342,-0.04352753,0.1025
 6315,-0.07953992,0.09183398,-0.23358447,-0.00370011,0.00514636,-0.0080
 9309,-0.00001831,-0.00018769,-0.00057019,-0.00796197,0.00652728,-0.023
 48110,0.00023831,-0.00341513,-0.00226370,-0.00011919,0.00041596,-0.000
 09508,-0.00103771,-0.00042836,-0.00002422,0.00208405,-0.00169712,0.007
 49211,0.08966007,-0.09806113,0.26068865,-0.00210412,-0.00451143,-0.002
 18235,0.00385242,-0.00097101,-0.00483526,-0.02520124,-0.00235706,0.004
 66733,-0.00077406,0.00061165,0.00480783,-0.04083517,-0.00258660,0.0280
 9953,0.00064932,0.00902101,-0.00068166,-0.04655195,-0.03525161,-0.0023
 9304,0.00017988,0.00079291,-0.00010722,0.00035448,0.00054342,0.0002756
 8,0.10815721,-0.00363750,-0.00441890,-0.00301973,0.01299667,-0.0016222
 2,-0.00753775,-0.06440614,0.01565039,0.03501771,0.00248180,0.00547357,
 -0.00240143,-0.04132258,0.02173597,0.02680871,0.03026611,-0.03850118,-
 0.00291075,0.02628431,-0.02788098,-0.01994737,-0.00004642,0.00042342,-
 0.00004489,0.00132768,0.00142972,0.00000357,0.03558655,0.02723518,-0.0
 0133695,-0.00163889,-0.00161235,0.00798999,-0.00754285,-0.00984630,-0.
 02544609,0.01898797,-0.01566192,-0.00111443,0.00055788,0.00248473,0.01
 441322,0.00716569,0.00409290,0.00377946,-0.00680610,0.01146661,0.02708
 842,0.01525988,-0.02815850,-0.00004279,0.00011855,-0.00003365,0.000659
 19,0.00050506,-0.00015560,-0.02707749,-0.02563929,0.04020646,0.0004382
 5,-0.01539922,-0.01069785,-0.05267352,-0.02360665,-0.00986487,-0.00203
 766,-0.00953860,-0.00496408,-0.00373548,-0.00408085,-0.00182904,-0.001
 14279,-0.00312338,0.00014392,0.00021169,0.00058269,0.00075495,-0.00119
 753,-0.00025205,0.00103547,0.00046985,0.00076413,-0.00051953,0.0001175
 9,0.00002658,0.00042713,0.00083288,0.00039760,0.00033569,0.05258611,0.
 00209280,-0.01091483,-0.00789689,-0.02654321,-0.27526263,-0.09932427,0
 .00040670,0.00105162,0.00184275,-0.00400288,-0.00284374,0.00046981,0.0
 0152064,0.00124986,0.00182133,-0.00004122,0.00176942,0.00087258,0.0004
 7547,0.00024604,0.00046788,-0.00009864,0.00110625,0.00002209,-0.000151
 87,-0.00020691,0.00038263,0.00005985,0.00035949,-0.00003927,0.02872811
 ,0.29499625,-0.00139582,0.01380745,0.01020574,-0.01103398,-0.09631496,
 -0.08822651,-0.00357463,-0.02729104,-0.01394595,0.00403319,0.00567570,
 -0.00159892,-0.00370648,-0.00283813,-0.00087146,0.00154937,0.00044297,
 0.00278869,0.00181246,0.00138749,-0.00200311,-0.00030368,-0.00085989,0
 .00061853,-0.00043465,-0.00004586,-0.00030432,-0.00118338,-0.00153033,
 -0.00245875,0.01356353,0.10627234,0.09532780,-0.02094291,0.00977664,0.
 00283842,-0.26054954,0.11570997,0.00028029,-0.00731395,0.00703787,0.00
 150094,0.00277005,0.00115703,-0.00095020,-0.00038890,-0.00172919,-0.00
 135252,0.00001117,-0.00095320,-0.00066597,-0.00137849,-0.00091758,0.00
 062275,-0.00136027,-0.00276521,0.00180777,0.00147835,0.00005864,-0.000
 30805,0.00144034,0.00007191,0.00075178,0.00613059,-0.00244575,0.000674
 07,0.28010356,-0.01971904,0.00855894,0.00095100,0.11879627,-0.11227026
 ,-0.00509049,0.00180951,-0.00470273,-0.00068860,0.00085207,0.00181712,
 0.00092182,-0.00023069,-0.00072991,-0.00024856,0.00044664,0.00119001,0
 .00203794,0.00045858,0.00053884,-0.00079515,-0.00268265,-0.00180767,0.
 00149576,0.00070646,0.00118457,-0.00052033,-0.00093768,0.00011556,-0.0
 0092862,0.02550165,-0.01155081,0.00129427,-0.12500113,0.11765635,0.018
 97353,-0.01002560,-0.00264651,0.00413257,-0.00610098,-0.04490369,-0.02
 814376,0.02139179,-0.00220525,-0.00233797,-0.00057589,0.00195409,-0.00
 013599,-0.00257639,-0.00317885,0.00081001,-0.00147275,-0.00422903,-0.0
 0254540,-0.00092414,0.00171463,0.00252492,0.00312709,-0.00091750,-0.00
 030331,-0.00072466,0.00039099,0.00061001,0.00120155,-0.00032363,0.0116
 1467,-0.00489099,0.00046825,-0.00519928,0.00157096,0.05387651\\-0.0000
 0046,0.00000027,-0.00000013,-0.00000007,-0.00000002,0.00000025,-0.0000
 0023,0.00000014,0.00000065,-0.00000026,0.00000021,-0.00000007,-0.00000
 063,-0.00000006,-0.00000022,0.00000131,-0.00000064,-0.00000043,0.00000
 154,0.00000055,0.00000048,-0.00000044,0.00000035,-0.00000050,-0.000000
 85,0.00000025,0.00000007,0.00000029,-0.00000081,-0.00000078,-0.0000000
 4,-0.00000001,0.00000010,-0.00000015,-0.00000021,0.00000058\\\@


 THE CAUTIOUS SELDOM ERR...CONFUCIUS                   
 Job cpu time:       0 days  0 hours  4 minutes 10.4 seconds.
 Elapsed time:       0 days  0 hours  0 minutes 16.4 seconds.
 File lengths (MBytes):  RWF=     28 Int=      0 D2E=      0 Chk=      3 Scr=      1
 Normal termination of Gaussian 16 at Wed Dec 23 23:10:36 2020.
