 Entering Gaussian System, Link 0=g16
 Initial command:
 /apps/cent7/gaussian/g16-B.01/g16-haswell/g16/l1.exe "/scratch/bell/zhao922/YARP/paper-example/KHP-network/pp_0/TS-folder/Gau-95908.inp" -scrdir="/scratch/bell/zhao922/YARP/paper-example/KHP-network/pp_0/TS-folder/"
 Entering Link 1 = /apps/cent7/gaussian/g16-B.01/g16-haswell/g16/l1.exe PID=     95911.
  
 Copyright (c) 1988-2017, Gaussian, Inc.  All Rights Reserved.
  
 This is part of the Gaussian(R) 16 program.  It is based on
 the Gaussian(R) 09 system (copyright 2009, Gaussian, Inc.),
 the Gaussian(R) 03 system (copyright 2003, Gaussian, Inc.),
 the Gaussian(R) 98 system (copyright 1998, Gaussian, Inc.),
 the Gaussian(R) 94 system (copyright 1995, Gaussian, Inc.),
 the Gaussian 92(TM) system (copyright 1992, Gaussian, Inc.),
 the Gaussian 90(TM) system (copyright 1990, Gaussian, Inc.),
 the Gaussian 88(TM) system (copyright 1988, Gaussian, Inc.),
 the Gaussian 86(TM) system (copyright 1986, Carnegie Mellon
 University), and the Gaussian 82(TM) system (copyright 1983,
 Carnegie Mellon University). Gaussian is a federally registered
 trademark of Gaussian, Inc.
  
 This software contains proprietary and confidential information,
 including trade secrets, belonging to Gaussian, Inc.
  
 This software is provided under written license and may be
 used, copied, transmitted, or stored only in accord with that
 written license.
  
 The following legend is applicable only to US Government
 contracts under FAR:
  
                    RESTRICTED RIGHTS LEGEND
  
 Use, reproduction and disclosure by the US Government is
 subject to restrictions as set forth in subparagraphs (a)
 and (c) of the Commercial Computer Software - Restricted
 Rights clause in FAR 52.227-19.
  
 Gaussian, Inc.
 340 Quinnipiac St., Bldg. 40, Wallingford CT 06492
  
  
 ---------------------------------------------------------------
 Warning -- This program may not be used in any manner that
 competes with the business of Gaussian, Inc. or will provide
 assistance to any competitor of Gaussian, Inc.  The licensee
 of this program is prohibited from giving any competitor of
 Gaussian, Inc. access to this program.  By using this program,
 the user acknowledges that Gaussian, Inc. is engaged in the
 business of creating and licensing software in the field of
 computational chemistry and represents and warrants to the
 licensee that it is not a competitor of Gaussian, Inc. and that
 it will not use this program in any manner prohibited above.
 ---------------------------------------------------------------
  

 Cite this work as:
 Gaussian 16, Revision B.01,
 M. J. Frisch, G. W. Trucks, H. B. Schlegel, G. E. Scuseria, 
 M. A. Robb, J. R. Cheeseman, G. Scalmani, V. Barone, 
 G. A. Petersson, H. Nakatsuji, X. Li, M. Caricato, A. V. Marenich, 
 J. Bloino, B. G. Janesko, R. Gomperts, B. Mennucci, H. P. Hratchian, 
 J. V. Ortiz, A. F. Izmaylov, J. L. Sonnenberg, D. Williams-Young, 
 F. Ding, F. Lipparini, F. Egidi, J. Goings, B. Peng, A. Petrone, 
 T. Henderson, D. Ranasinghe, V. G. Zakrzewski, J. Gao, N. Rega, 
 G. Zheng, W. Liang, M. Hada, M. Ehara, K. Toyota, R. Fukuda, 
 J. Hasegawa, M. Ishida, T. Nakajima, Y. Honda, O. Kitao, H. Nakai, 
 T. Vreven, K. Throssell, J. A. Montgomery, Jr., J. E. Peralta, 
 F. Ogliaro, M. J. Bearpark, J. J. Heyd, E. N. Brothers, K. N. Kudin, 
 V. N. Staroverov, T. A. Keith, R. Kobayashi, J. Normand, 
 K. Raghavachari, A. P. Rendell, J. C. Burant, S. S. Iyengar, 
 J. Tomasi, M. Cossi, J. M. Millam, M. Klene, C. Adamo, R. Cammi, 
 J. W. Ochterski, R. L. Martin, K. Morokuma, O. Farkas, 
 J. B. Foresman, and D. J. Fox, Gaussian, Inc., Wallingford CT, 2016.
 
 ******************************************
 Gaussian 16:  ES64L-G16RevB.01 20-Dec-2017
                23-Dec-2020 
 ******************************************
 %NProcShared=16
 Will use up to   16 processors via shared memory.
 %Mem=6GB
 --------------------------------------------------------------
 # B3LYP/6-31+G* OPT=(TS, CALCALL, NOEIGEN, maxcycles=100) Freq
 --------------------------------------------------------------
 1/5=1,6=100,10=4,11=1,18=20,26=3,38=1/1,3;
 2/9=110,12=2,17=6,18=5,40=1/2;
 3/5=1,6=6,7=11,11=2,25=1,30=1,71=2,74=-5,140=1/1,2,3;
 4//1;
 5/5=2,38=5/2;
 8/6=4,10=90,11=11/1;
 11/6=1,8=1,9=11,15=111,16=1/1,2,10;
 10/6=1/2;
 6/7=2,8=2,9=2,10=2,18=1,28=1/1;
 7/10=1,25=1/1,2,3,16;
 1/5=1,6=100,10=4,11=1,18=20,26=3/3(3);
 2/9=110/2;
 7/8=1,9=1,25=1,44=-1/16;
 99//99;
 2/9=110/2;
 3/5=1,6=6,7=11,11=2,25=1,30=1,71=2,74=-5,140=1/1,2,3;
 4/5=5,16=3,69=1/1;
 5/5=2,38=5/2;
 8/6=4,10=90,11=11/1;
 11/6=1,8=1,9=11,15=111,16=1/1,2,10;
 10/6=1/2;
 7/10=1,25=1/1,2,3,16;
 1/5=1,6=100,10=4,11=1,18=20,26=3/3(-8);
 2/9=110/2;
 6/7=2,8=2,9=2,10=2,18=1,19=2,28=1/1;
 7/8=1,9=1,25=1,44=-1/16;
 99//99;
 ----------
 pp_20_0 TS
 ----------
 Symbolic Z-matrix:
 Charge =  0 Multiplicity = 1
 C                     0.68537   1.51259  -2.41501 
 C                     0.66501   0.70429  -1.12732 
 C                     1.68126   0.25723  -0.26968 
 O                     0.91415   2.88149  -2.20132 
 O                     2.30131   2.93569  -1.80006 
 O                     1.84828  -0.11826   0.79162 
 H                     2.38072   3.75724  -1.30161 
 H                     1.49405   1.14314  -3.06736 
 H                    -0.2671    1.44959  -2.93489 
 H                     1.37474  -1.80684  -1.46088 
 H                     0.73156  -0.41576  -1.74471 
 H                    -0.12875   0.79684  -0.37025 
 
 Add virtual bond connecting atoms H11        and H10        Dist= 2.95D+00.

 GradGradGradGradGradGradGradGradGradGradGradGradGradGradGradGradGradGrad
 Berny optimization.
 Initialization pass.
                           ----------------------------
                           !    Initial Parameters    !
                           ! (Angstroms and Degrees)  !
 --------------------------                            --------------------------
 ! Name  Definition              Value          Derivative Info.                !
 --------------------------------------------------------------------------------
 ! R1    R(1,2)                  1.5205         calculate D2E/DX2 analytically  !
 ! R2    R(1,4)                  1.4042         calculate D2E/DX2 analytically  !
 ! R3    R(1,8)                  1.1027         calculate D2E/DX2 analytically  !
 ! R4    R(1,9)                  1.0869         calculate D2E/DX2 analytically  !
 ! R5    R(2,3)                  1.4029         calculate D2E/DX2 analytically  !
 ! R6    R(2,11)                 1.2807         calculate D2E/DX2 analytically  !
 ! R7    R(2,12)                 1.1008         calculate D2E/DX2 analytically  !
 ! R8    R(3,6)                  1.1381         calculate D2E/DX2 analytically  !
 ! R9    R(4,5)                  1.445          calculate D2E/DX2 analytically  !
 ! R10   R(5,7)                  0.9642         calculate D2E/DX2 analytically  !
 ! R11   R(10,11)                1.5586         calculate D2E/DX2 analytically  !
 ! A1    A(2,1,4)              113.0499         calculate D2E/DX2 analytically  !
 ! A2    A(2,1,8)              109.4339         calculate D2E/DX2 analytically  !
 ! A3    A(2,1,9)              111.2548         calculate D2E/DX2 analytically  !
 ! A4    A(4,1,8)              107.2864         calculate D2E/DX2 analytically  !
 ! A5    A(4,1,9)              105.7863         calculate D2E/DX2 analytically  !
 ! A6    A(8,1,9)              109.8916         calculate D2E/DX2 analytically  !
 ! A7    A(1,2,3)              132.6428         calculate D2E/DX2 analytically  !
 ! A8    A(1,2,11)              93.2082         calculate D2E/DX2 analytically  !
 ! A9    A(1,2,12)             123.1892         calculate D2E/DX2 analytically  !
 ! A10   A(3,2,11)              88.7601         calculate D2E/DX2 analytically  !
 ! A11   A(3,2,12)              97.394          calculate D2E/DX2 analytically  !
 ! A12   A(11,2,12)            116.2665         calculate D2E/DX2 analytically  !
 ! A13   A(2,3,6)              141.4001         calculate D2E/DX2 analytically  !
 ! A14   A(1,4,5)              103.604          calculate D2E/DX2 analytically  !
 ! A15   A(4,5,7)              104.7481         calculate D2E/DX2 analytically  !
 ! A16   A(2,11,10)            135.5792         calculate D2E/DX2 analytically  !
 ! D1    D(4,1,2,3)            -75.8362         calculate D2E/DX2 analytically  !
 ! D2    D(4,1,2,11)          -167.1058         calculate D2E/DX2 analytically  !
 ! D3    D(4,1,2,12)            68.401          calculate D2E/DX2 analytically  !
 ! D4    D(8,1,2,3)             43.6732         calculate D2E/DX2 analytically  !
 ! D5    D(8,1,2,11)           -47.5964         calculate D2E/DX2 analytically  !
 ! D6    D(8,1,2,12)          -172.0896         calculate D2E/DX2 analytically  !
 ! D7    D(9,1,2,3)            165.2991         calculate D2E/DX2 analytically  !
 ! D8    D(9,1,2,11)            74.0294         calculate D2E/DX2 analytically  !
 ! D9    D(9,1,2,12)           -50.4638         calculate D2E/DX2 analytically  !
 ! D10   D(2,1,4,5)             70.777          calculate D2E/DX2 analytically  !
 ! D11   D(8,1,4,5)            -49.9608         calculate D2E/DX2 analytically  !
 ! D12   D(9,1,4,5)           -167.2373         calculate D2E/DX2 analytically  !
 ! D13   D(1,2,3,6)            160.9359         calculate D2E/DX2 analytically  !
 ! D14   D(11,2,3,6)          -105.8443         calculate D2E/DX2 analytically  !
 ! D15   D(12,2,3,6)            10.4866         calculate D2E/DX2 analytically  !
 ! D16   D(1,2,11,10)          146.5652         calculate D2E/DX2 analytically  !
 ! D17   D(3,2,11,10)           13.9216         calculate D2E/DX2 analytically  !
 ! D18   D(12,2,11,10)         -83.7134         calculate D2E/DX2 analytically  !
 ! D19   D(1,4,5,7)           -156.6284         calculate D2E/DX2 analytically  !
 --------------------------------------------------------------------------------
 Trust Radius=3.00D-01 FncErr=1.00D-07 GrdErr=1.00D-06 EigMax=2.50D+02 EigMin=1.00D-04
 Number of steps in this run=    100 maximum allowed number of steps=    100.
 Search for a saddle point of order  1.
 GradGradGradGradGradGradGradGradGradGradGradGradGradGradGradGradGradGrad

                          Input orientation:                          
 ---------------------------------------------------------------------
 Center     Atomic      Atomic             Coordinates (Angstroms)
 Number     Number       Type             X           Y           Z
 ---------------------------------------------------------------------
      1          6           0        0.685372    1.512593   -2.415010
      2          6           0        0.665008    0.704293   -1.127319
      3          6           0        1.681261    0.257225   -0.269683
      4          8           0        0.914146    2.881493   -2.201324
      5          8           0        2.301308    2.935694   -1.800064
      6          8           0        1.848283   -0.118262    0.791624
      7          1           0        2.380722    3.757235   -1.301608
      8          1           0        1.494049    1.143144   -3.067361
      9          1           0       -0.267096    1.449589   -2.934894
     10          1           0        1.374735   -1.806835   -1.460877
     11          1           0        0.731559   -0.415761   -1.744710
     12          1           0       -0.128754    0.796840   -0.370246
 ---------------------------------------------------------------------
                    Distance matrix (angstroms):
                    1          2          3          4          5
     1  C    0.000000
     2  C    1.520497   0.000000
     3  C    2.677718   1.402918   0.000000
     4  O    1.404239   2.440442   3.347609   0.000000
     5  O    2.239336   2.847668   3.146541   1.445049   0.000000
     6  O    3.780814   2.399808   1.138095   4.339226   4.030971
     7  H    3.025276   3.506352   3.715398   1.930611   0.964207
     8  H    1.102730   2.154916   2.940562   2.026861   2.339005
     9  H    1.086943   2.166013   3.510153   1.995948   3.176956
    10  H    3.521959   2.630729   2.402758   4.768734   4.844086
    11  H    2.042054   1.280672   1.878975   3.333724   3.701274
    12  H    2.314339   1.100810   1.891415   2.964163   3.538966
                    6          7          8          9         10
     6  O    0.000000
     7  H    4.436732   0.000000
     8  H    4.075340   3.276819   0.000000
     9  H    4.562885   3.873473   1.792509   0.000000
    10  H    2.854696   5.656523   3.361161   3.933527   0.000000
    11  H    2.787215   4.508877   2.181967   2.427629   1.558629
    12  H    2.469014   3.991096   3.166677   2.650026   3.198293
                   11         12
    11  H    0.000000
    12  H    2.024769   0.000000
 Stoichiometry    C3H6O3
 Framework group  C1[X(C3H6O3)]
 Deg. of freedom    30
 Full point group                 C1      NOp   1
 Largest Abelian subgroup         C1      NOp   1
 Largest concise Abelian subgroup C1      NOp   1
                         Standard orientation:                         
 ---------------------------------------------------------------------
 Center     Atomic      Atomic             Coordinates (Angstroms)
 Number     Number       Type             X           Y           Z
 ---------------------------------------------------------------------
      1          6           0       -0.899422    1.005429    0.124800
      2          6           0        0.539823    0.727728   -0.279386
      3          6           0        1.484824   -0.212979    0.156759
      4          8           0       -1.806225    0.064640   -0.389505
      5          8           0       -1.516811   -1.133748    0.364333
      6          8           0        2.457117   -0.710829   -0.162696
      7          1           0       -1.829219   -1.855815   -0.193084
      8          1           0       -0.984180    0.975391    1.223857
      9          1           0       -1.233383    1.971196   -0.245619
     10          1           0        2.302634    1.642451    1.445874
     11          1           0        1.014856    1.558279    0.571878
     12          1           0        0.905295    0.826916   -1.313008
 ---------------------------------------------------------------------
 Rotational constants (GHZ):           6.8688010           2.0180599           1.6834602
 Standard basis: 6-31+G(d) (6D, 7F)
 There are   126 symmetry adapted cartesian basis functions of A   symmetry.
 There are   126 symmetry adapted basis functions of A   symmetry.
   126 basis functions,   216 primitive gaussians,   126 cartesian basis functions
    24 alpha electrons       24 beta electrons
       nuclear repulsion energy       236.7235607471 Hartrees.
 NAtoms=   12 NActive=   12 NUniq=   12 SFac= 1.00D+00 NAtFMM=   60 NAOKFM=F Big=F
 Integral buffers will be    131072 words long.
 Raffenetti 2 integral format.
 Two-electron integral symmetry is turned on.
 One-electron integrals computed using PRISM.
 NBasis=   126 RedAO= T EigKep=  7.23D-05  NBF=   126
 NBsUse=   126 1.00D-06 EigRej= -1.00D+00 NBFU=   126
 ExpMin= 4.38D-02 ExpMax= 5.48D+03 ExpMxC= 8.25D+02 IAcc=3 IRadAn=         5 AccDes= 0.00D+00
 Harris functional with IExCor=  402 and IRadAn=       5 diagonalized for initial guess.
 HarFok:  IExCor=  402 AccDes= 0.00D+00 IRadAn=         5 IDoV= 1 UseB2=F ITyADJ=14
 ICtDFT=  3500011 ScaDFX=  1.000000  1.000000  1.000000  1.000000
 FoFCou: FMM=F IPFlag=           0 FMFlag=      100000 FMFlg1=           0
         NFxFlg=           0 DoJE=T BraDBF=F KetDBF=T FulRan=T
         wScrn=  0.000000 ICntrl=       500 IOpCl=  0 I1Cent=   200000004 NGrid=           0
         NMat0=    1 NMatS0=      1 NMatT0=    0 NMatD0=    1 NMtDS0=    0 NMtDT0=    0
 Petite list used in FoFCou.
 Keep R1 ints in memory in canonical form, NReq=47237537.
 Requested convergence on RMS density matrix=1.00D-08 within 128 cycles.
 Requested convergence on MAX density matrix=1.00D-06.
 Requested convergence on             energy=1.00D-06.
 No special actions if energy rises.
 EnCoef did     3 forward-backward iterations
 SCF Done:  E(RB3LYP) =  -343.301030742     A.U. after   18 cycles
            NFock= 18  Conv=0.87D-08     -V/T= 2.0088
 DoSCS=F DFT=T ScalE2(SS,OS)=  1.000000  1.000000
 Range of M.O.s used for correlation:     1   126
 NBasis=   126 NAE=    24 NBE=    24 NFC=     0 NFV=     0
 NROrb=    126 NOA=    24 NOB=    24 NVA=   102 NVB=   102

 **** Warning!!: The largest alpha MO coefficient is  0.31490104D+02


 **** Warning!!: The smallest alpha delta epsilon is  0.86605682D-01

 Symmetrizing basis deriv contribution to polar:
 IMax=3 JMax=2 DiffMx= 0.00D+00
 G2DrvN: will do    13 centers at a time, making    1 passes.
 Calling FoFCou, ICntrl=  3107 FMM=F I1Cent=   0 AccDes= 0.00D+00.
 End of G2Drv F.D. properties file   721 does not exist.
 End of G2Drv F.D. properties file   722 does not exist.
 End of G2Drv F.D. properties file   788 does not exist.
          IDoAtm=111111111111
          Differentiating once with respect to electric field.
                with respect to dipole field.
          Differentiating once with respect to nuclear coordinates.
 Keep R1 ints in memory in canonical form, NReq=47193552.
          There are    39 degrees of freedom in the 1st order CPHF.  IDoFFX=6 NUNeed=     3.
     36 vectors produced by pass  0 Test12= 6.28D-15 2.56D-09 XBig12= 2.60D+02 1.32D+01.
 AX will form    36 AO Fock derivatives at one time.
     36 vectors produced by pass  1 Test12= 6.28D-15 2.56D-09 XBig12= 9.74D+01 2.00D+00.
     36 vectors produced by pass  2 Test12= 6.28D-15 2.56D-09 XBig12= 1.12D+00 1.44D-01.
     36 vectors produced by pass  3 Test12= 6.28D-15 2.56D-09 XBig12= 3.82D-03 9.90D-03.
     36 vectors produced by pass  4 Test12= 6.28D-15 2.56D-09 XBig12= 7.54D-06 5.66D-04.
     24 vectors produced by pass  5 Test12= 6.28D-15 2.56D-09 XBig12= 7.78D-09 1.36D-05.
      4 vectors produced by pass  6 Test12= 6.28D-15 2.56D-09 XBig12= 5.80D-12 2.84D-07.
      3 vectors produced by pass  7 Test12= 6.28D-15 2.56D-09 XBig12= 4.53D-15 9.10D-09.
 InvSVY:  IOpt=1 It=  1 EMax= 2.00D-15
 Solved reduced A of dimension   211 with    39 vectors.
 Isotropic polarizability for W=    0.000000       69.60 Bohr**3.
 End of Minotr F.D. properties file   721 does not exist.
 End of Minotr F.D. properties file   722 does not exist.
 End of Minotr F.D. properties file   788 does not exist.

 **********************************************************************

            Population analysis using the SCF Density.

 **********************************************************************

 Orbital symmetries:
       Occupied  (A) (A) (A) (A) (A) (A) (A) (A) (A) (A) (A) (A)
                 (A) (A) (A) (A) (A) (A) (A) (A) (A) (A) (A) (A)
       Virtual   (A) (A) (A) (A) (A) (A) (A) (A) (A) (A) (A) (A)
                 (A) (A) (A) (A) (A) (A) (A) (A) (A) (A) (A) (A)
                 (A) (A) (A) (A) (A) (A) (A) (A) (A) (A) (A) (A)
                 (A) (A) (A) (A) (A) (A) (A) (A) (A) (A) (A) (A)
                 (A) (A) (A) (A) (A) (A) (A) (A) (A) (A) (A) (A)
                 (A) (A) (A) (A) (A) (A) (A) (A) (A) (A) (A) (A)
                 (A) (A) (A) (A) (A) (A) (A) (A) (A) (A) (A) (A)
                 (A) (A) (A) (A) (A) (A) (A) (A) (A) (A) (A) (A)
                 (A) (A) (A) (A) (A) (A)
 The electronic state is 1-A.
 Alpha  occ. eigenvalues --  -19.26990 -19.24921 -19.24334 -10.36815 -10.29401
 Alpha  occ. eigenvalues --  -10.25985  -1.18126  -1.16473  -0.96225  -0.84296
 Alpha  occ. eigenvalues --   -0.71202  -0.58737  -0.57766  -0.53980  -0.53362
 Alpha  occ. eigenvalues --   -0.52152  -0.49810  -0.46592  -0.43678  -0.42224
 Alpha  occ. eigenvalues --   -0.38602  -0.37528  -0.28757  -0.19876
 Alpha virt. eigenvalues --   -0.11216  -0.05345  -0.02486   0.00102   0.01612
 Alpha virt. eigenvalues --    0.01954   0.04174   0.05420   0.06022   0.06703
 Alpha virt. eigenvalues --    0.08092   0.10077   0.10645   0.11705   0.12521
 Alpha virt. eigenvalues --    0.14294   0.15658   0.17001   0.17899   0.19075
 Alpha virt. eigenvalues --    0.20195   0.21902   0.22563   0.23456   0.24563
 Alpha virt. eigenvalues --    0.25725   0.26580   0.27799   0.28538   0.29639
 Alpha virt. eigenvalues --    0.30567   0.32247   0.34564   0.35607   0.38643
 Alpha virt. eigenvalues --    0.48608   0.59963   0.62544   0.66129   0.67027
 Alpha virt. eigenvalues --    0.70455   0.73169   0.79042   0.81605   0.87023
 Alpha virt. eigenvalues --    0.90723   0.93170   0.97690   1.00530   1.02907
 Alpha virt. eigenvalues --    1.05657   1.07930   1.09895   1.11020   1.15142
 Alpha virt. eigenvalues --    1.17125   1.19833   1.21249   1.23080   1.25233
 Alpha virt. eigenvalues --    1.27506   1.30041   1.35060   1.42263   1.46394
 Alpha virt. eigenvalues --    1.47659   1.49866   1.56317   1.59942   1.63260
 Alpha virt. eigenvalues --    1.67312   1.69032   1.72386   1.76443   1.79445
 Alpha virt. eigenvalues --    1.84950   1.88719   1.94338   1.97124   2.03005
 Alpha virt. eigenvalues --    2.07335   2.12822   2.17196   2.22939   2.30598
 Alpha virt. eigenvalues --    2.39013   2.42057   2.49436   2.53876   2.62115
 Alpha virt. eigenvalues --    2.72244   2.81152   2.84267   2.95575   3.10488
 Alpha virt. eigenvalues --    3.20738   3.96152   4.16851   4.18552   4.23652
 Alpha virt. eigenvalues --    4.38880   4.54132
          Condensed to atoms (all electrons):
               1          2          3          4          5          6
     1  C    6.650088   0.415797  -1.775690   0.283216  -0.134010   0.086441
     2  C    0.415797   7.738054  -2.274470  -0.054850   0.035711   0.160904
     3  C   -1.775690  -2.274470   9.694602  -0.183373   0.081886   0.048961
     4  O    0.283216  -0.054850  -0.183373   8.083961   0.071691   0.004879
     5  O   -0.134010   0.035711   0.081886   0.071691   8.308453  -0.004454
     6  O    0.086441   0.160904   0.048961   0.004879  -0.004454   7.903419
     7  H    0.025884  -0.009925  -0.006001  -0.025870   0.193852  -0.000038
     8  H    0.427732  -0.113808   0.030936  -0.035664  -0.011777  -0.001128
     9  H    0.383298  -0.039099   0.013286  -0.049376   0.011283  -0.000023
    10  H   -0.153357  -0.407848   0.728566  -0.001401   0.000237  -0.061494
    11  H   -0.163629   0.049043   0.292054   0.006600  -0.001103  -0.025688
    12  H   -0.089666   0.267496   0.127794  -0.004209   0.001142  -0.022664
               7          8          9         10         11         12
     1  C    0.025884   0.427732   0.383298  -0.153357  -0.163629  -0.089666
     2  C   -0.009925  -0.113808  -0.039099  -0.407848   0.049043   0.267496
     3  C   -0.006001   0.030936   0.013286   0.728566   0.292054   0.127794
     4  O   -0.025870  -0.035664  -0.049376  -0.001401   0.006600  -0.004209
     5  O    0.193852  -0.011777   0.011283   0.000237  -0.001103   0.001142
     6  O   -0.000038  -0.001128  -0.000023  -0.061494  -0.025688  -0.022664
     7  H    0.330104  -0.000015  -0.000330  -0.000001  -0.000010   0.000026
     8  H   -0.000015   0.490080  -0.025933   0.001488   0.001996   0.002888
     9  H   -0.000330  -0.025933   0.479837   0.000097  -0.003521  -0.002785
    10  H   -0.000001   0.001488   0.000097   0.936251   0.118667   0.004971
    11  H   -0.000010   0.001996  -0.003521   0.118667   0.518270   0.003777
    12  H    0.000026   0.002888  -0.002785   0.004971   0.003777   0.468106
 Mulliken charges:
               1
     1  C    0.043897
     2  C    0.232995
     3  C   -0.778551
     4  O   -0.095604
     5  O   -0.552911
     6  O   -0.089117
     7  H    0.492325
     8  H    0.233205
     9  H    0.233268
    10  H   -0.166175
    11  H    0.203544
    12  H    0.243124
 Sum of Mulliken charges =  -0.00000
 Mulliken charges with hydrogens summed into heavy atoms:
               1
     1  C    0.510370
     2  C    0.679663
     3  C   -0.944726
     4  O   -0.095604
     5  O   -0.060586
     6  O   -0.089117
 APT charges:
               1
     1  C    0.680854
     2  C   -0.240557
     3  C    0.782981
     4  O   -0.392359
     5  O   -0.328980
     6  O   -0.575500
     7  H    0.286270
     8  H   -0.006648
     9  H    0.022723
    10  H   -0.400528
    11  H    0.186043
    12  H   -0.014301
 Sum of APT charges =  -0.00000
 APT charges with hydrogens summed into heavy atoms:
               1
     1  C    0.696930
     2  C   -0.068815
     3  C    0.382453
     4  O   -0.392359
     5  O   -0.042709
     6  O   -0.575500
 Electronic spatial extent (au):  <R**2>=            707.7096
 Charge=              0.0000 electrons
 Dipole moment (field-independent basis, Debye):
    X=             -3.1764    Y=             -1.1279    Z=             -2.8727  Tot=              4.4288
 Quadrupole moment (field-independent basis, Debye-Ang):
   XX=            -48.1904   YY=            -34.0921   ZZ=            -40.9588
   XY=             -2.6892   XZ=             -4.7863   YZ=             -2.0377
 Traceless Quadrupole moment (field-independent basis, Debye-Ang):
   XX=             -7.1099   YY=              6.9883   ZZ=              0.1216
   XY=             -2.6892   XZ=             -4.7863   YZ=             -2.0377
 Octapole moment (field-independent basis, Debye-Ang**2):
  XXX=            -38.8043  YYY=            -25.6386  ZZZ=            -15.0106  XYY=            -26.6456
  XXY=            -19.3736  XXZ=            -15.4667  XZZ=            -10.9732  YZZ=             -8.1742
  YYZ=            -11.0951  XYZ=            -11.8872
 Hexadecapole moment (field-independent basis, Debye-Ang**3):
 XXXX=           -698.3277 YYYY=           -201.9130 ZZZZ=           -107.6414 XXXY=            -24.0745
 XXXZ=            -36.3157 YYYX=            -14.5728 YYYZ=            -15.7036 ZZZX=            -31.0003
 ZZZY=            -17.4728 XXYY=           -140.4800 XXZZ=           -138.3253 YYZZ=            -60.6039
 XXYZ=            -16.3708 YYXZ=            -10.4842 ZZXY=            -17.3596
 N-N= 2.367235607471D+02 E-N=-1.276054833374D+03  KE= 3.403194336624D+02
  Exact polarizability:  74.835   4.598  73.540   8.918  11.976  60.426
 Approx polarizability: 104.006  13.162 167.978  21.069  49.867 103.855
 Calling FoFJK, ICntrl=    100127 FMM=F ISym2X=0 I1Cent= 0 IOpClX= 0 NMat=1 NMatS=1 NMatT=0.
 ***** Axes restored to original set *****
 -------------------------------------------------------------------
 Center     Atomic                   Forces (Hartrees/Bohr)
 Number     Number              X              Y              Z
 -------------------------------------------------------------------
      1        6           0.024282831    0.003048584    0.010732219
      2        6          -0.019510413   -0.037331422   -0.030573729
      3        6           0.006719071    0.013601868   -0.040194888
      4        8          -0.006999708    0.018472538    0.000363897
      5        8           0.014702072   -0.012443987   -0.004864794
      6        8           0.016098611   -0.020388831    0.042622429
      7        1          -0.008650907    0.010242962    0.003634661
      8        1          -0.005033614   -0.002834501    0.000412282
      9        1          -0.004259100   -0.000656025    0.001846804
     10        1           0.003256621    0.013412123   -0.005283399
     11        1          -0.007652154    0.000924297    0.034510434
     12        1          -0.012953310    0.013952394   -0.013205917
 -------------------------------------------------------------------
 Cartesian Forces:  Max     0.042622429 RMS     0.017320238
 FormGI is forming the generalized inverse of G from B-inverse, IUseBI=4.

 GradGradGradGradGradGradGradGradGradGradGradGradGradGradGradGradGradGrad
 Berny optimization.
 Internal  Forces:  Max     0.048836012 RMS     0.012905770
 Search for a saddle point.
 Step number   1 out of a maximum of  100
 All quantities printed in internal units (Hartrees-Bohrs-Radians)
 Swapping is turned off.
 Second derivative matrix not updated -- analytic derivatives used.
 ITU=  0
     Eigenvalues ---   -0.16569  -0.01464   0.00129   0.00322   0.00600
     Eigenvalues ---    0.01182   0.01613   0.02382   0.04168   0.04702
     Eigenvalues ---    0.05507   0.05943   0.07833   0.08508   0.09667
     Eigenvalues ---    0.12650   0.14107   0.16134   0.18983   0.23655
     Eigenvalues ---    0.25757   0.27634   0.32006   0.32722   0.35836
     Eigenvalues ---    0.37026   0.41757   0.48622   0.53378   1.25675
 Eigenvectors required to have negative eigenvalues:
                          A16       R6        A13       R11       R5
   1                   -0.54322  -0.48001  -0.35622   0.29018   0.21528
                          A10       D15       D14       D13       D17
   1                   -0.19429  -0.17169  -0.16481  -0.15942  -0.14191
 RFO step:  Lambda0=1.992426978D-03 Lambda=-3.33291178D-02.
 Linear search not attempted -- option 19 set.
 Maximum step size (   0.300) exceeded in Quadratic search.
    -- Step size scaled by   0.421
 Iteration  1 RMS(Cart)=  0.05610633 RMS(Int)=  0.01040079
 Iteration  2 RMS(Cart)=  0.00976842 RMS(Int)=  0.00055420
 Iteration  3 RMS(Cart)=  0.00006234 RMS(Int)=  0.00054992
 Iteration  4 RMS(Cart)=  0.00000001 RMS(Int)=  0.00054992
 Variable       Old X    -DE/DX   Delta X   Delta X   Delta X     New X
                                 (Linear)    (Quad)   (Total)
    R1        2.87332  -0.00167   0.00000  -0.00835  -0.00835   2.86498
    R2        2.65363   0.01558   0.00000   0.01378   0.01378   2.66741
    R3        2.08386  -0.00299   0.00000  -0.00427  -0.00427   2.07959
    R4        2.05402   0.00289   0.00000   0.00419   0.00419   2.05821
    R5        2.65113   0.02018   0.00000   0.00027   0.00027   2.65140
    R6        2.42012  -0.02686   0.00000   0.02699   0.02699   2.44711
    R7        2.08023   0.00143   0.00000  -0.00031  -0.00031   2.07992
    R8        2.15069   0.04884   0.00000   0.01360   0.01360   2.16429
    R9        2.73075   0.00538   0.00000   0.01062   0.01062   2.74137
   R10        1.82209   0.00989   0.00000   0.00724   0.00724   1.82932
   R11        2.94538  -0.01159   0.00000  -0.25109  -0.25109   2.69429
    A1        1.97309   0.01065   0.00000   0.00950   0.00942   1.98251
    A2        1.90998  -0.00203   0.00000   0.00541   0.00529   1.91527
    A3        1.94176  -0.00669   0.00000  -0.01234  -0.01233   1.92943
    A4        1.87250   0.00086   0.00000   0.01065   0.01052   1.88302
    A5        1.84632  -0.00417   0.00000  -0.01183  -0.01181   1.83451
    A6        1.91797   0.00157   0.00000  -0.00123  -0.00120   1.91677
    A7        2.31505  -0.01892   0.00000  -0.05180  -0.05195   2.26310
    A8        1.62679   0.02210   0.00000   0.02938   0.02794   1.65473
    A9        2.15006  -0.01147   0.00000  -0.02943  -0.03024   2.11982
   A10        1.54916  -0.01722   0.00000  -0.07380  -0.07423   1.47493
   A11        1.69985   0.02586   0.00000   0.06859   0.06902   1.76886
   A12        2.02923  -0.00412   0.00000   0.05866   0.05972   2.08895
   A13        2.46790   0.02085   0.00000   0.05645   0.05645   2.52435
   A14        1.80823   0.00897   0.00000   0.01075   0.01075   1.81898
   A15        1.82820  -0.01777   0.00000  -0.03409  -0.03409   1.79411
   A16        2.36630  -0.00310   0.00000   0.04394   0.04394   2.41024
    D1       -1.32359  -0.00409   0.00000  -0.03474  -0.03492  -1.35851
    D2       -2.91655   0.00041   0.00000   0.04261   0.04229  -2.87426
    D3        1.19382  -0.00668   0.00000  -0.04299  -0.04257   1.15125
    D4        0.76224   0.00248   0.00000  -0.01141  -0.01154   0.75070
    D5       -0.83071   0.00698   0.00000   0.06594   0.06567  -0.76504
    D6       -3.00353  -0.00011   0.00000  -0.01966  -0.01919  -3.02272
    D7        2.88501  -0.00129   0.00000  -0.01738  -0.01754   2.86747
    D8        1.29206   0.00321   0.00000   0.05996   0.05967   1.35173
    D9       -0.88076  -0.00388   0.00000  -0.02563  -0.02519  -0.90595
   D10        1.23529   0.00313   0.00000   0.01425   0.01430   1.24960
   D11       -0.87198  -0.00146   0.00000  -0.00559  -0.00566  -0.87764
   D12       -2.91884  -0.00162   0.00000  -0.00340  -0.00338  -2.92223
   D13        2.80886  -0.00569   0.00000   0.00264   0.00112   2.80998
   D14       -1.84733   0.00794   0.00000  -0.02696  -0.02540  -1.87273
   D15        0.18303   0.00251   0.00000   0.02509   0.02505   0.20808
   D16        2.55804  -0.01250   0.00000  -0.14894  -0.14991   2.40813
   D17        0.24298   0.00694   0.00000  -0.09355  -0.09421   0.14877
   D18       -1.46107  -0.01322   0.00000  -0.13617  -0.13455  -1.59563
   D19       -2.73368  -0.00002   0.00000   0.00949   0.00949  -2.72419
         Item               Value     Threshold  Converged?
 Maximum Force            0.048836     0.000450     NO 
 RMS     Force            0.012906     0.000300     NO 
 Maximum Displacement     0.230790     0.001800     NO 
 RMS     Displacement     0.058976     0.001200     NO 
 Predicted change in Energy=-1.297615D-02
 GradGradGradGradGradGradGradGradGradGradGradGradGradGradGradGradGradGrad

                          Input orientation:                          
 ---------------------------------------------------------------------
 Center     Atomic      Atomic             Coordinates (Angstroms)
 Number     Number       Type             X           Y           Z
 ---------------------------------------------------------------------
      1          6           0        0.687915    1.494236   -2.406833
      2          6           0        0.615248    0.697543   -1.119007
      3          6           0        1.650300    0.235610   -0.292046
      4          8           0        0.937632    2.869084   -2.207203
      5          8           0        2.324587    2.921756   -1.785273
      6          8           0        1.908430   -0.145035    0.756848
      7          1           0        2.368160    3.755627   -1.295525
      8          1           0        1.489274    1.094490   -3.046414
      9          1           0       -0.262885    1.452350   -2.936445
     10          1           0        1.420827   -1.684706   -1.484940
     11          1           0        0.731230   -0.455086   -1.697716
     12          1           0       -0.190125    0.861378   -0.386917
 ---------------------------------------------------------------------
                    Distance matrix (angstroms):
                    1          2          3          4          5
     1  C    0.000000
     2  C    1.516080   0.000000
     3  C    2.642471   1.403061   0.000000
     4  O    1.411530   2.450243   3.333303   0.000000
     5  O    2.258948   2.883205   3.146390   1.450669   0.000000
     6  O    3.766397   2.429215   1.145294   4.337391   4.005093
     7  H    3.028551   3.529269   3.729989   1.914034   0.968036
     8  H    1.100472   2.153227   2.889662   2.039060   2.372156
     9  H    1.089157   2.154979   3.483330   1.995037   3.190511
    10  H    3.390092   2.541255   2.272283   4.635962   4.703879
    11  H    2.074748   1.294955   1.815946   3.369315   3.734904
    12  H    2.291621   1.100646   1.946215   2.935330   3.538973
                    6          7          8          9         10
     6  O    0.000000
     7  H    4.431563   0.000000
     8  H    4.022053   3.304498   0.000000
     9  H    4.572380   3.862655   1.791709   0.000000
    10  H    2.762961   5.525446   3.188545   3.844851   0.000000
    11  H    2.739856   4.535571   2.189704   2.482142   1.425758
    12  H    2.593260   3.968258   3.153989   2.618136   3.206769
                   11         12
    11  H    0.000000
    12  H    2.073684   0.000000
 Stoichiometry    C3H6O3
 Framework group  C1[X(C3H6O3)]
 Deg. of freedom    30
 Full point group                 C1      NOp   1
 Largest Abelian subgroup         C1      NOp   1
 Largest concise Abelian subgroup C1      NOp   1
                         Standard orientation:                         
 ---------------------------------------------------------------------
 Center     Atomic      Atomic             Coordinates (Angstroms)
 Number     Number       Type             X           Y           Z
 ---------------------------------------------------------------------
      1          6           0       -0.883513    1.003422    0.152657
      2          6           0        0.540268    0.765679   -0.310835
      3          6           0        1.478623   -0.180783    0.127660
      4          8           0       -1.808729    0.070586   -0.363297
      5          8           0       -1.503725   -1.160554    0.340769
      6          8           0        2.448754   -0.727500   -0.140006
      7          1           0       -1.839059   -1.840482   -0.261181
      8          1           0       -0.930011    0.953548    1.251014
      9          1           0       -1.239430    1.974652   -0.188371
     10          1           0        2.202441    1.510665    1.461213
     11          1           0        1.075826    1.529147    0.587610
     12          1           0        0.827566    0.882303   -1.366904
 ---------------------------------------------------------------------
 Rotational constants (GHZ):           6.7587317           2.0376937           1.6882588
 Standard basis: 6-31+G(d) (6D, 7F)
 There are   126 symmetry adapted cartesian basis functions of A   symmetry.
 There are   126 symmetry adapted basis functions of A   symmetry.
   126 basis functions,   216 primitive gaussians,   126 cartesian basis functions
    24 alpha electrons       24 beta electrons
       nuclear repulsion energy       236.4611621140 Hartrees.
 NAtoms=   12 NActive=   12 NUniq=   12 SFac= 1.00D+00 NAtFMM=   60 NAOKFM=F Big=F
 Integral buffers will be    131072 words long.
 Raffenetti 2 integral format.
 Two-electron integral symmetry is turned on.
 One-electron integrals computed using PRISM.
 NBasis=   126 RedAO= T EigKep=  7.34D-05  NBF=   126
 NBsUse=   126 1.00D-06 EigRej= -1.00D+00 NBFU=   126
 Initial guess from the checkpoint file:  "/scratch/bell/zhao922/YARP/paper-example/KHP-network/pp_0/TS-folder/Gau-95911.chk"
 B after Tr=     0.000000   -0.000000    0.000000
         Rot=    0.999958   -0.009101   -0.000942   -0.000245 Ang=  -1.05 deg.
 ExpMin= 4.38D-02 ExpMax= 5.48D+03 ExpMxC= 8.25D+02 IAcc=3 IRadAn=         5 AccDes= 0.00D+00
 Harris functional with IExCor=  402 and IRadAn=       5 diagonalized for initial guess.
 HarFok:  IExCor=  402 AccDes= 0.00D+00 IRadAn=         5 IDoV= 1 UseB2=F ITyADJ=14
 ICtDFT=  3500011 ScaDFX=  1.000000  1.000000  1.000000  1.000000
 FoFCou: FMM=F IPFlag=           0 FMFlag=      100000 FMFlg1=           0
         NFxFlg=           0 DoJE=T BraDBF=F KetDBF=T FulRan=T
         wScrn=  0.000000 ICntrl=       500 IOpCl=  0 I1Cent=   200000004 NGrid=           0
         NMat0=    1 NMatS0=      1 NMatT0=    0 NMatD0=    1 NMtDS0=    0 NMtDT0=    0
 Petite list used in FoFCou.
 Keep R1 ints in memory in canonical form, NReq=47237537.
 Requested convergence on RMS density matrix=1.00D-08 within 128 cycles.
 Requested convergence on MAX density matrix=1.00D-06.
 Requested convergence on             energy=1.00D-06.
 No special actions if energy rises.
 SCF Done:  E(RB3LYP) =  -343.313982520     A.U. after   14 cycles
            NFock= 14  Conv=0.55D-08     -V/T= 2.0089
 DoSCS=F DFT=T ScalE2(SS,OS)=  1.000000  1.000000
 Range of M.O.s used for correlation:     1   126
 NBasis=   126 NAE=    24 NBE=    24 NFC=     0 NFV=     0
 NROrb=    126 NOA=    24 NOB=    24 NVA=   102 NVB=   102

 **** Warning!!: The largest alpha MO coefficient is  0.33137717D+02


 **** Warning!!: The smallest alpha delta epsilon is  0.99500370D-01

 Symmetrizing basis deriv contribution to polar:
 IMax=3 JMax=2 DiffMx= 0.00D+00
 G2DrvN: will do    13 centers at a time, making    1 passes.
 Calling FoFCou, ICntrl=  3107 FMM=F I1Cent=   0 AccDes= 0.00D+00.
 End of G2Drv F.D. properties file   721 does not exist.
 End of G2Drv F.D. properties file   722 does not exist.
 End of G2Drv F.D. properties file   788 does not exist.
          IDoAtm=111111111111
          Differentiating once with respect to electric field.
                with respect to dipole field.
          Differentiating once with respect to nuclear coordinates.
 Keep R1 ints in memory in canonical form, NReq=47193552.
          There are    39 degrees of freedom in the 1st order CPHF.  IDoFFX=6 NUNeed=     3.
     36 vectors produced by pass  0 Test12= 6.28D-15 2.56D-09 XBig12= 1.94D+02 1.18D+01.
 AX will form    36 AO Fock derivatives at one time.
     36 vectors produced by pass  1 Test12= 6.28D-15 2.56D-09 XBig12= 6.34D+01 1.54D+00.
     36 vectors produced by pass  2 Test12= 6.28D-15 2.56D-09 XBig12= 7.10D-01 1.18D-01.
     36 vectors produced by pass  3 Test12= 6.28D-15 2.56D-09 XBig12= 2.27D-03 7.72D-03.
     36 vectors produced by pass  4 Test12= 6.28D-15 2.56D-09 XBig12= 4.26D-06 4.08D-04.
     25 vectors produced by pass  5 Test12= 6.28D-15 2.56D-09 XBig12= 4.56D-09 1.01D-05.
      3 vectors produced by pass  6 Test12= 6.28D-15 2.56D-09 XBig12= 3.52D-12 2.00D-07.
      3 vectors produced by pass  7 Test12= 6.28D-15 2.56D-09 XBig12= 2.70D-15 7.14D-09.
 InvSVY:  IOpt=1 It=  1 EMax= 1.42D-14
 Solved reduced A of dimension   211 with    39 vectors.
 Isotropic polarizability for W=    0.000000       67.06 Bohr**3.
 End of Minotr F.D. properties file   721 does not exist.
 End of Minotr F.D. properties file   722 does not exist.
 End of Minotr F.D. properties file   788 does not exist.
 Calling FoFJK, ICntrl=    100127 FMM=F ISym2X=0 I1Cent= 0 IOpClX= 0 NMat=1 NMatS=1 NMatT=0.
 ***** Axes restored to original set *****
 -------------------------------------------------------------------
 Center     Atomic                   Forces (Hartrees/Bohr)
 Number     Number              X              Y              Z
 -------------------------------------------------------------------
      1        6           0.018098144    0.002085995    0.007756844
      2        6          -0.013071306   -0.024487755   -0.018505348
      3        6           0.002247451    0.009228856   -0.023649450
      4        8          -0.004940159    0.011622618   -0.000133234
      5        8           0.009839325   -0.007533184   -0.002630361
      6        8           0.012290862   -0.013466949    0.024884169
      7        1          -0.005777325    0.006121418    0.001989706
      8        1          -0.003628599   -0.001922749   -0.000160318
      9        1          -0.002824651   -0.000003788    0.001269019
     10        1           0.002759573    0.014277148   -0.007395709
     11        1          -0.007254055   -0.007567244    0.026540649
     12        1          -0.007739260    0.011645634   -0.009965966
 -------------------------------------------------------------------
 Cartesian Forces:  Max     0.026540649 RMS     0.011669924
 FormGI is forming the generalized inverse of G from B-inverse, IUseBI=4.

 GradGradGradGradGradGradGradGradGradGradGradGradGradGradGradGradGradGrad
 Berny optimization.
 Internal  Forces:  Max     0.030035545 RMS     0.008409152
 Search for a saddle point.
 Step number   2 out of a maximum of  100
 All quantities printed in internal units (Hartrees-Bohrs-Radians)
 Swapping is turned off.
 Second derivative matrix not updated -- analytic derivatives used.
 ITU=  0  0
     Eigenvalues ---   -0.19287  -0.01606   0.00109   0.00321   0.00557
     Eigenvalues ---    0.01141   0.01614   0.02190   0.04530   0.04703
     Eigenvalues ---    0.05481   0.06194   0.07257   0.08837   0.09806
     Eigenvalues ---    0.12605   0.14097   0.16645   0.18875   0.23107
     Eigenvalues ---    0.25433   0.27695   0.32284   0.32808   0.35112
     Eigenvalues ---    0.36368   0.40339   0.46338   0.51951   1.19316
 Eigenvectors required to have negative eigenvalues:
                          R6        A16       A13       R11       R5
   1                   -0.52234  -0.52113  -0.37668   0.29761   0.22621
                          A10       D15       D13       D14       A8
   1                   -0.18585  -0.14779  -0.13625  -0.13077   0.12268
 RFO step:  Lambda0=5.199886700D-04 Lambda=-2.43306542D-02.
 Linear search not attempted -- option 19 set.
 Maximum step size (   0.300) exceeded in Quadratic search.
    -- Step size scaled by   0.479
 Iteration  1 RMS(Cart)=  0.06369845 RMS(Int)=  0.01115871
 Iteration  2 RMS(Cart)=  0.01029974 RMS(Int)=  0.00064442
 Iteration  3 RMS(Cart)=  0.00008723 RMS(Int)=  0.00063879
 Iteration  4 RMS(Cart)=  0.00000002 RMS(Int)=  0.00063879
 Variable       Old X    -DE/DX   Delta X   Delta X   Delta X     New X
                                 (Linear)    (Quad)   (Total)
    R1        2.86498  -0.00091   0.00000  -0.00661  -0.00661   2.85837
    R2        2.66741   0.00968   0.00000   0.01177   0.01177   2.67918
    R3        2.07959  -0.00185   0.00000  -0.00287  -0.00287   2.07672
    R4        2.05821   0.00185   0.00000   0.00358   0.00358   2.06179
    R5        2.65140   0.01285   0.00000   0.00389   0.00389   2.65529
    R6        2.44711  -0.01493   0.00000   0.05793   0.05793   2.50504
    R7        2.07992   0.00077   0.00000  -0.00084  -0.00084   2.07908
    R8        2.16429   0.03004   0.00000   0.01280   0.01280   2.17709
    R9        2.74137   0.00365   0.00000   0.00926   0.00926   2.75063
   R10        1.82932   0.00602   0.00000   0.00515   0.00515   1.83447
   R11        2.69429  -0.01208   0.00000  -0.25013  -0.25013   2.44416
    A1        1.98251   0.00661   0.00000   0.00698   0.00690   1.98942
    A2        1.91527  -0.00111   0.00000   0.00776   0.00767   1.92294
    A3        1.92943  -0.00425   0.00000  -0.00910  -0.00909   1.92034
    A4        1.88302   0.00073   0.00000   0.00840   0.00828   1.89130
    A5        1.83451  -0.00284   0.00000  -0.01247  -0.01246   1.82205
    A6        1.91677   0.00086   0.00000  -0.00219  -0.00215   1.91462
    A7        2.26310  -0.01276   0.00000  -0.04295  -0.04345   2.21965
    A8        1.65473   0.01365   0.00000   0.01557   0.01404   1.66877
    A9        2.11982  -0.00812   0.00000  -0.03436  -0.03553   2.08429
   A10        1.47493  -0.01121   0.00000  -0.07597  -0.07640   1.39852
   A11        1.76886   0.01726   0.00000   0.05958   0.06022   1.82908
   A12        2.08895  -0.00059   0.00000   0.08670   0.08758   2.17653
   A13        2.52435   0.01374   0.00000   0.03619   0.03619   2.56054
   A14        1.81898   0.00572   0.00000   0.00912   0.00912   1.82810
   A15        1.79411  -0.01136   0.00000  -0.02582  -0.02582   1.76828
   A16        2.41024  -0.00066   0.00000  -0.00296  -0.00296   2.40728
    D1       -1.35851  -0.00296   0.00000  -0.03195  -0.03207  -1.39058
    D2       -2.87426   0.00083   0.00000   0.05557   0.05499  -2.81926
    D3        1.15125  -0.00517   0.00000  -0.05144  -0.05082   1.10043
    D4        0.75070   0.00167   0.00000  -0.01082  -0.01088   0.73982
    D5       -0.76504   0.00546   0.00000   0.07671   0.07619  -0.68885
    D6       -3.02272  -0.00055   0.00000  -0.03031  -0.02963  -3.05234
    D7        2.86747  -0.00074   0.00000  -0.01436  -0.01446   2.85302
    D8        1.35173   0.00305   0.00000   0.07317   0.07261   1.42434
    D9       -0.90595  -0.00295   0.00000  -0.03384  -0.03321  -0.93915
   D10        1.24960   0.00223   0.00000   0.01164   0.01167   1.26127
   D11       -0.87764  -0.00119   0.00000  -0.00877  -0.00882  -0.88646
   D12       -2.92223  -0.00110   0.00000  -0.00393  -0.00392  -2.92615
   D13        2.80998  -0.00415   0.00000  -0.00583  -0.00723   2.80275
   D14       -1.87273   0.00525   0.00000  -0.04530  -0.04425  -1.91699
   D15        0.20808   0.00271   0.00000   0.02987   0.03023   0.23831
   D16        2.40813  -0.01133   0.00000  -0.17929  -0.18033   2.22781
   D17        0.14877   0.00259   0.00000  -0.13300  -0.13427   0.01450
   D18       -1.59563  -0.01098   0.00000  -0.15909  -0.15679  -1.75241
   D19       -2.72419   0.00017   0.00000   0.01119   0.01119  -2.71300
         Item               Value     Threshold  Converged?
 Maximum Force            0.030036     0.000450     NO 
 RMS     Force            0.008409     0.000300     NO 
 Maximum Displacement     0.284644     0.001800     NO 
 RMS     Displacement     0.064627     0.001200     NO 
 Predicted change in Energy=-1.079124D-02
 GradGradGradGradGradGradGradGradGradGradGradGradGradGradGradGradGradGrad

                          Input orientation:                          
 ---------------------------------------------------------------------
 Center     Atomic      Atomic             Coordinates (Angstroms)
 Number     Number       Type             X           Y           Z
 ---------------------------------------------------------------------
      1          6           0        0.682482    1.475659   -2.398111
      2          6           0        0.565113    0.691538   -1.109976
      3          6           0        1.615422    0.206362   -0.312597
      4          8           0        0.958472    2.853637   -2.210892
      5          8           0        2.346406    2.897465   -1.774540
      6          8           0        1.939032   -0.178462    0.723958
      7          1           0        2.367506    3.738851   -1.290804
      8          1           0        1.471569    1.047510   -3.031926
      9          1           0       -0.268203    1.459688   -2.933218
     10          1           0        1.498420   -1.534079   -1.498624
     11          1           0        0.741555   -0.498729   -1.666190
     12          1           0       -0.237181    0.937809   -0.398553
 ---------------------------------------------------------------------
                    Distance matrix (angstroms):
                    1          2          3          4          5
     1  C    0.000000
     2  C    1.512584   0.000000
     3  C    2.613592   1.405119   0.000000
     4  O    1.417760   2.457929   3.323127   0.000000
     5  O    2.275745   2.912175   3.148595   1.455570   0.000000
     6  O    3.749980   2.451095   1.152067   4.332259   3.983688
     7  H    3.031085   3.545058   3.741791   1.901459   0.970760
     8  H    1.098951   2.154592   2.850083   2.049258   2.401810
     9  H    1.091053   2.146783   3.462156   1.992381   3.200925
    10  H    3.245513   2.444480   2.109380   4.477825   4.520376
    11  H    2.106516   1.325610   1.758696   3.403250   3.757848
    12  H    2.265677   1.100204   1.993626   2.895610   3.522572
                    6          7          8          9         10
     6  O    0.000000
     7  H    4.425855   0.000000
     8  H    3.978466   3.328292   0.000000
     9  H    4.574970   3.852152   1.790654   0.000000
    10  H    2.640399   5.348111   3.002722   3.760539   0.000000
    11  H    2.692457   4.554308   2.188381   2.541726   1.293395
    12  H    2.691096   3.927638   3.141101   2.588019   3.214452
                   11         12
    11  H    0.000000
    12  H    2.151388   0.000000
 Stoichiometry    C3H6O3
 Framework group  C1[X(C3H6O3)]
 Deg. of freedom    30
 Full point group                 C1      NOp   1
 Largest Abelian subgroup         C1      NOp   1
 Largest concise Abelian subgroup C1      NOp   1
                         Standard orientation:                         
 ---------------------------------------------------------------------
 Center     Atomic      Atomic             Coordinates (Angstroms)
 Number     Number       Type             X           Y           Z
 ---------------------------------------------------------------------
      1          6           0       -0.869598    1.001032    0.176321
      2          6           0        0.539461    0.799514   -0.335394
      3          6           0        1.476032   -0.149686    0.107566
      4          8           0       -1.808968    0.074080   -0.341740
      5          8           0       -1.490456   -1.183813    0.317759
      6          8           0        2.442355   -0.731350   -0.127265
      7          1           0       -1.841456   -1.826966   -0.319052
      8          1           0       -0.887496    0.935692    1.273181
      9          1           0       -1.246437    1.974754   -0.140309
     10          1           0        2.081926    1.327587    1.485985
     11          1           0        1.127972    1.493629    0.628506
     12          1           0        0.746671    0.918811   -1.409303
 ---------------------------------------------------------------------
 Rotational constants (GHZ):           6.6847618           2.0552264           1.6957258
 Standard basis: 6-31+G(d) (6D, 7F)
 There are   126 symmetry adapted cartesian basis functions of A   symmetry.
 There are   126 symmetry adapted basis functions of A   symmetry.
   126 basis functions,   216 primitive gaussians,   126 cartesian basis functions
    24 alpha electrons       24 beta electrons
       nuclear repulsion energy       236.3765692221 Hartrees.
 NAtoms=   12 NActive=   12 NUniq=   12 SFac= 1.00D+00 NAtFMM=   60 NAOKFM=F Big=F
 Integral buffers will be    131072 words long.
 Raffenetti 2 integral format.
 Two-electron integral symmetry is turned on.
 One-electron integrals computed using PRISM.
 NBasis=   126 RedAO= T EigKep=  7.54D-05  NBF=   126
 NBsUse=   126 1.00D-06 EigRej= -1.00D+00 NBFU=   126
 Initial guess from the checkpoint file:  "/scratch/bell/zhao922/YARP/paper-example/KHP-network/pp_0/TS-folder/Gau-95911.chk"
 B after Tr=     0.000000    0.000000   -0.000000
         Rot=    0.999948   -0.010147   -0.000586   -0.000859 Ang=  -1.17 deg.
 ExpMin= 4.38D-02 ExpMax= 5.48D+03 ExpMxC= 8.25D+02 IAcc=3 IRadAn=         5 AccDes= 0.00D+00
 Harris functional with IExCor=  402 and IRadAn=       5 diagonalized for initial guess.
 HarFok:  IExCor=  402 AccDes= 0.00D+00 IRadAn=         5 IDoV= 1 UseB2=F ITyADJ=14
 ICtDFT=  3500011 ScaDFX=  1.000000  1.000000  1.000000  1.000000
 FoFCou: FMM=F IPFlag=           0 FMFlag=      100000 FMFlg1=           0
         NFxFlg=           0 DoJE=T BraDBF=F KetDBF=T FulRan=T
         wScrn=  0.000000 ICntrl=       500 IOpCl=  0 I1Cent=   200000004 NGrid=           0
         NMat0=    1 NMatS0=      1 NMatT0=    0 NMatD0=    1 NMtDS0=    0 NMtDT0=    0
 Petite list used in FoFCou.
 Keep R1 ints in memory in canonical form, NReq=47237537.
 Requested convergence on RMS density matrix=1.00D-08 within 128 cycles.
 Requested convergence on MAX density matrix=1.00D-06.
 Requested convergence on             energy=1.00D-06.
 No special actions if energy rises.
 SCF Done:  E(RB3LYP) =  -343.324704829     A.U. after   14 cycles
            NFock= 14  Conv=0.51D-08     -V/T= 2.0090
 DoSCS=F DFT=T ScalE2(SS,OS)=  1.000000  1.000000
 Range of M.O.s used for correlation:     1   126
 NBasis=   126 NAE=    24 NBE=    24 NFC=     0 NFV=     0
 NROrb=    126 NOA=    24 NOB=    24 NVA=   102 NVB=   102

 **** Warning!!: The largest alpha MO coefficient is  0.33943004D+02

 Symmetrizing basis deriv contribution to polar:
 IMax=3 JMax=2 DiffMx= 0.00D+00
 G2DrvN: will do    13 centers at a time, making    1 passes.
 Calling FoFCou, ICntrl=  3107 FMM=F I1Cent=   0 AccDes= 0.00D+00.
 End of G2Drv F.D. properties file   721 does not exist.
 End of G2Drv F.D. properties file   722 does not exist.
 End of G2Drv F.D. properties file   788 does not exist.
          IDoAtm=111111111111
          Differentiating once with respect to electric field.
                with respect to dipole field.
          Differentiating once with respect to nuclear coordinates.
 Keep R1 ints in memory in canonical form, NReq=47193552.
          There are    39 degrees of freedom in the 1st order CPHF.  IDoFFX=6 NUNeed=     3.
     36 vectors produced by pass  0 Test12= 6.28D-15 2.56D-09 XBig12= 1.30D+02 9.35D+00.
 AX will form    36 AO Fock derivatives at one time.
     36 vectors produced by pass  1 Test12= 6.28D-15 2.56D-09 XBig12= 3.40D+01 1.33D+00.
     36 vectors produced by pass  2 Test12= 6.28D-15 2.56D-09 XBig12= 3.85D-01 9.28D-02.
     36 vectors produced by pass  3 Test12= 6.28D-15 2.56D-09 XBig12= 1.26D-03 5.68D-03.
     36 vectors produced by pass  4 Test12= 6.28D-15 2.56D-09 XBig12= 2.28D-06 2.08D-04.
     26 vectors produced by pass  5 Test12= 6.28D-15 2.56D-09 XBig12= 2.17D-09 6.35D-06.
      3 vectors produced by pass  6 Test12= 6.28D-15 2.56D-09 XBig12= 1.80D-12 1.63D-07.
      3 vectors produced by pass  7 Test12= 6.28D-15 2.56D-09 XBig12= 1.43D-15 5.64D-09.
 InvSVY:  IOpt=1 It=  1 EMax= 3.55D-15
 Solved reduced A of dimension   212 with    39 vectors.
 Isotropic polarizability for W=    0.000000       64.02 Bohr**3.
 End of Minotr F.D. properties file   721 does not exist.
 End of Minotr F.D. properties file   722 does not exist.
 End of Minotr F.D. properties file   788 does not exist.
 Calling FoFJK, ICntrl=    100127 FMM=F ISym2X=0 I1Cent= 0 IOpClX= 0 NMat=1 NMatS=1 NMatT=0.
 ***** Axes restored to original set *****
 -------------------------------------------------------------------
 Center     Atomic                   Forces (Hartrees/Bohr)
 Number     Number              X              Y              Z
 -------------------------------------------------------------------
      1        6           0.012798497    0.000657359    0.005036957
      2        6          -0.009268937   -0.011352252   -0.008388315
      3        6          -0.000360964    0.003691904   -0.013716197
      4        8          -0.003034799    0.006603740   -0.000367886
      5        8           0.005891756   -0.004031002   -0.001372954
      6        8           0.007924335   -0.007528802    0.014065804
      7        1          -0.003420454    0.003249609    0.001085833
      8        1          -0.002426193   -0.001173896   -0.000480443
      9        1          -0.001714946    0.000461102    0.000833870
     10        1           0.001808612    0.014751192   -0.009485440
     11        1          -0.004091034   -0.014814935    0.020047364
     12        1          -0.004105873    0.009485981   -0.007258593
 -------------------------------------------------------------------
 Cartesian Forces:  Max     0.020047364 RMS     0.007893468
 FormGI is forming the generalized inverse of G from B-inverse, IUseBI=4.

 GradGradGradGradGradGradGradGradGradGradGradGradGradGradGradGradGradGrad
 Berny optimization.
 Internal  Forces:  Max     0.017396182 RMS     0.005263943
 Search for a saddle point.
 Step number   3 out of a maximum of  100
 All quantities printed in internal units (Hartrees-Bohrs-Radians)
 Swapping is turned off.
 Second derivative matrix not updated -- analytic derivatives used.
 ITU=  0  0  0
     Eigenvalues ---   -0.22630  -0.01640   0.00081   0.00328   0.00567
     Eigenvalues ---    0.01108   0.01590   0.02143   0.04681   0.05134
     Eigenvalues ---    0.05404   0.06497   0.06843   0.09213   0.09969
     Eigenvalues ---    0.12634   0.14060   0.18448   0.18678   0.22629
     Eigenvalues ---    0.25140   0.27660   0.32351   0.32934   0.34573
     Eigenvalues ---    0.35917   0.39186   0.44576   0.50958   1.14099
 Eigenvectors required to have negative eigenvalues:
                          R6        A16       A13       R11       R5
   1                    0.55288   0.51603   0.38159  -0.29474  -0.23211
                          A10       D15       D13       A8        D16
   1                    0.17655   0.13053   0.11611  -0.11545   0.11239
 RFO step:  Lambda0=6.572679729D-05 Lambda=-2.44903331D-02.
 Linear search not attempted -- option 19 set.
 Maximum step size (   0.300) exceeded in Quadratic search.
    -- Step size scaled by   0.526
 Iteration  1 RMS(Cart)=  0.07409101 RMS(Int)=  0.01003150
 Iteration  2 RMS(Cart)=  0.00925097 RMS(Int)=  0.00073923
 Iteration  3 RMS(Cart)=  0.00010033 RMS(Int)=  0.00073613
 Iteration  4 RMS(Cart)=  0.00000002 RMS(Int)=  0.00073613
 Variable       Old X    -DE/DX   Delta X   Delta X   Delta X     New X
                                 (Linear)    (Quad)   (Total)
    R1        2.85837  -0.00042   0.00000  -0.00597  -0.00597   2.85239
    R2        2.67918   0.00546   0.00000   0.00959   0.00959   2.68877
    R3        2.07672  -0.00101   0.00000  -0.00126  -0.00126   2.07545
    R4        2.06179   0.00108   0.00000   0.00262   0.00262   2.06441
    R5        2.65529   0.00718   0.00000   0.00400   0.00400   2.65929
    R6        2.50504  -0.00468   0.00000   0.09960   0.09960   2.60464
    R7        2.07908   0.00042   0.00000  -0.00068  -0.00068   2.07841
    R8        2.17709   0.01740   0.00000   0.01386   0.01386   2.19095
    R9        2.75063   0.00225   0.00000   0.00662   0.00662   2.75725
   R10        1.83447   0.00328   0.00000   0.00301   0.00301   1.83748
   R11        2.44416  -0.01198   0.00000  -0.23136  -0.23136   2.21280
    A1        1.98942   0.00370   0.00000   0.00473   0.00468   1.99410
    A2        1.92294  -0.00040   0.00000   0.00903   0.00898   1.93193
    A3        1.92034  -0.00239   0.00000  -0.00499  -0.00499   1.91536
    A4        1.89130   0.00047   0.00000   0.00364   0.00356   1.89487
    A5        1.82205  -0.00184   0.00000  -0.01112  -0.01112   1.81093
    A6        1.91462   0.00038   0.00000  -0.00247  -0.00245   1.91217
    A7        2.21965  -0.00762   0.00000  -0.02469  -0.02573   2.19392
    A8        1.66877   0.00675   0.00000  -0.00725  -0.00857   1.66020
    A9        2.08429  -0.00529   0.00000  -0.03023  -0.03143   2.05286
   A10        1.39852  -0.00721   0.00000  -0.08008  -0.08022   1.31830
   A11        1.82908   0.01030   0.00000   0.04251   0.04410   1.87318
   A12        2.17653   0.00230   0.00000   0.10649   0.10682   2.28335
   A13        2.56054   0.00779   0.00000   0.00527   0.00527   2.56581
   A14        1.82810   0.00337   0.00000   0.00694   0.00694   1.83504
   A15        1.76828  -0.00651   0.00000  -0.01639  -0.01639   1.75189
   A16        2.40728  -0.00048   0.00000  -0.05744  -0.05744   2.34984
    D1       -1.39058  -0.00228   0.00000  -0.03644  -0.03632  -1.42690
    D2       -2.81926   0.00162   0.00000   0.06930   0.06852  -2.75075
    D3        1.10043  -0.00381   0.00000  -0.04650  -0.04589   1.05454
    D4        0.73982   0.00067   0.00000  -0.02149  -0.02133   0.71849
    D5       -0.68885   0.00458   0.00000   0.08424   0.08351  -0.60535
    D6       -3.05234  -0.00086   0.00000  -0.03155  -0.03090  -3.08325
    D7        2.85302  -0.00067   0.00000  -0.02196  -0.02183   2.83119
    D8        1.42434   0.00324   0.00000   0.08377   0.08301   1.50734
    D9       -0.93915  -0.00220   0.00000  -0.03202  -0.03140  -0.97055
   D10        1.26127   0.00148   0.00000   0.00920   0.00921   1.27048
   D11       -0.88646  -0.00090   0.00000  -0.00843  -0.00843  -0.89490
   D12       -2.92615  -0.00062   0.00000  -0.00167  -0.00167  -2.92782
   D13        2.80275  -0.00261   0.00000  -0.00279  -0.00358   2.79917
   D14       -1.91699   0.00184   0.00000  -0.06840  -0.06815  -1.98514
   D15        0.23831   0.00241   0.00000   0.02422   0.02477   0.26308
   D16        2.22781  -0.01029   0.00000  -0.17966  -0.18004   2.04776
   D17        0.01450  -0.00164   0.00000  -0.15624  -0.15869  -0.14418
   D18       -1.75241  -0.00925   0.00000  -0.14997  -0.14714  -1.89956
   D19       -2.71300   0.00039   0.00000   0.01339   0.01339  -2.69962
         Item               Value     Threshold  Converged?
 Maximum Force            0.017396     0.000450     NO 
 RMS     Force            0.005264     0.000300     NO 
 Maximum Displacement     0.337940     0.001800     NO 
 RMS     Displacement     0.073082     0.001200     NO 
 Predicted change in Energy=-9.642526D-03
 GradGradGradGradGradGradGradGradGradGradGradGradGradGradGradGradGradGrad

                          Input orientation:                          
 ---------------------------------------------------------------------
 Center     Atomic      Atomic             Coordinates (Angstroms)
 Number     Number       Type             X           Y           Z
 ---------------------------------------------------------------------
      1          6           0        0.668287    1.458573   -2.387110
      2          6           0        0.520084    0.691224   -1.095766
      3          6           0        1.575244    0.166925   -0.326312
      4          8           0        0.975024    2.837348   -2.215773
      5          8           0        2.366454    2.866611   -1.777646
      6          8           0        1.922746   -0.226985    0.707270
      7          1           0        2.381170    3.712095   -1.297634
      8          1           0        1.441167    1.004598   -3.021764
      9          1           0       -0.284368    1.468824   -2.921677
     10          1           0        1.605131   -1.355249   -1.512251
     11          1           0        0.774699   -0.542245   -1.655657
     12          1           0       -0.265044    1.015529   -0.397152
 ---------------------------------------------------------------------
                    Distance matrix (angstroms):
                    1          2          3          4          5
     1  C    0.000000
     2  C    1.509422   0.000000
     3  C    2.595730   1.407236   0.000000
     4  O    1.422836   2.463175   3.325881   0.000000
     5  O    2.288622   2.933658   3.165548   1.459072   0.000000
     6  O    3.740316   2.462013   1.159403   4.339643   3.992747
     7  H    3.033033   3.553879   3.763139   1.893518   0.972353
     8  H    1.098282   2.157791   2.825798   2.055695   2.423031
     9  H    1.092437   2.141437   3.448046   1.989278   3.207721
    10  H    3.092030   2.353474   1.929860   4.297656   4.298157
    11  H    2.132984   1.378315   1.706151   3.431546   3.764155
    12  H    2.242170   1.099847   2.027759   2.857302   3.501007
                    6          7          8          9         10
     6  O    0.000000
     7  H    4.443664   0.000000
     8  H    3.956565   3.344663   0.000000
     9  H    4.573443   3.843810   1.789691   0.000000
    10  H    2.510006   5.130913   2.806134   3.678597   0.000000
    11  H    2.645907   4.561616   2.168675   2.601697   1.170965
    12  H    2.747729   3.883914   3.130473   2.564971   3.218943
                   11         12
    11  H    0.000000
    12  H    2.256449   0.000000
 Stoichiometry    C3H6O3
 Framework group  C1[X(C3H6O3)]
 Deg. of freedom    30
 Full point group                 C1      NOp   1
 Largest Abelian subgroup         C1      NOp   1
 Largest concise Abelian subgroup C1      NOp   1
                         Standard orientation:                         
 ---------------------------------------------------------------------
 Center     Atomic      Atomic             Coordinates (Angstroms)
 Number     Number       Type             X           Y           Z
 ---------------------------------------------------------------------
      1          6           0       -0.857447    0.998341    0.191503
      2          6           0        0.539330    0.817808   -0.351430
      3          6           0        1.481144   -0.124490    0.101751
      4          8           0       -1.810370    0.079119   -0.329490
      5          8           0       -1.490151   -1.198493    0.298250
      6          8           0        2.450676   -0.717726   -0.126927
      7          1           0       -1.849206   -1.813693   -0.363625
      8          1           0       -0.860773    0.922137    1.287132
      9          1           0       -1.246697    1.974016   -0.108435
     10          1           0        1.929623    1.097124    1.526842
     11          1           0        1.164578    1.438333    0.708649
     12          1           0        0.683074    0.928934   -1.436166
 ---------------------------------------------------------------------
 Rotational constants (GHZ):           6.6876436           2.0535259           1.6974296
 Standard basis: 6-31+G(d) (6D, 7F)
 There are   126 symmetry adapted cartesian basis functions of A   symmetry.
 There are   126 symmetry adapted basis functions of A   symmetry.
   126 basis functions,   216 primitive gaussians,   126 cartesian basis functions
    24 alpha electrons       24 beta electrons
       nuclear repulsion energy       236.3085171403 Hartrees.
 NAtoms=   12 NActive=   12 NUniq=   12 SFac= 1.00D+00 NAtFMM=   60 NAOKFM=F Big=F
 Integral buffers will be    131072 words long.
 Raffenetti 2 integral format.
 Two-electron integral symmetry is turned on.
 One-electron integrals computed using PRISM.
 NBasis=   126 RedAO= T EigKep=  7.88D-05  NBF=   126
 NBsUse=   126 1.00D-06 EigRej= -1.00D+00 NBFU=   126
 Initial guess from the checkpoint file:  "/scratch/bell/zhao922/YARP/paper-example/KHP-network/pp_0/TS-folder/Gau-95911.chk"
 B after Tr=    -0.000000   -0.000000   -0.000000
         Rot=    0.999942   -0.010724    0.000491   -0.000841 Ang=  -1.23 deg.
 ExpMin= 4.38D-02 ExpMax= 5.48D+03 ExpMxC= 8.25D+02 IAcc=3 IRadAn=         5 AccDes= 0.00D+00
 Harris functional with IExCor=  402 and IRadAn=       5 diagonalized for initial guess.
 HarFok:  IExCor=  402 AccDes= 0.00D+00 IRadAn=         5 IDoV= 1 UseB2=F ITyADJ=14
 ICtDFT=  3500011 ScaDFX=  1.000000  1.000000  1.000000  1.000000
 FoFCou: FMM=F IPFlag=           0 FMFlag=      100000 FMFlg1=           0
         NFxFlg=           0 DoJE=T BraDBF=F KetDBF=T FulRan=T
         wScrn=  0.000000 ICntrl=       500 IOpCl=  0 I1Cent=   200000004 NGrid=           0
         NMat0=    1 NMatS0=      1 NMatT0=    0 NMatD0=    1 NMtDS0=    0 NMtDT0=    0
 Petite list used in FoFCou.
 Keep R1 ints in memory in canonical form, NReq=47237537.
 Requested convergence on RMS density matrix=1.00D-08 within 128 cycles.
 Requested convergence on MAX density matrix=1.00D-06.
 Requested convergence on             energy=1.00D-06.
 No special actions if energy rises.
 SCF Done:  E(RB3LYP) =  -343.334214911     A.U. after   13 cycles
            NFock= 13  Conv=0.70D-08     -V/T= 2.0091
 DoSCS=F DFT=T ScalE2(SS,OS)=  1.000000  1.000000
 Range of M.O.s used for correlation:     1   126
 NBasis=   126 NAE=    24 NBE=    24 NFC=     0 NFV=     0
 NROrb=    126 NOA=    24 NOB=    24 NVA=   102 NVB=   102

 **** Warning!!: The largest alpha MO coefficient is  0.32324191D+02

 Symmetrizing basis deriv contribution to polar:
 IMax=3 JMax=2 DiffMx= 0.00D+00
 G2DrvN: will do    13 centers at a time, making    1 passes.
 Calling FoFCou, ICntrl=  3107 FMM=F I1Cent=   0 AccDes= 0.00D+00.
 End of G2Drv F.D. properties file   721 does not exist.
 End of G2Drv F.D. properties file   722 does not exist.
 End of G2Drv F.D. properties file   788 does not exist.
          IDoAtm=111111111111
          Differentiating once with respect to electric field.
                with respect to dipole field.
          Differentiating once with respect to nuclear coordinates.
 Keep R1 ints in memory in canonical form, NReq=47193552.
          There are    39 degrees of freedom in the 1st order CPHF.  IDoFFX=6 NUNeed=     3.
     36 vectors produced by pass  0 Test12= 6.28D-15 2.56D-09 XBig12= 8.46D+01 6.43D+00.
 AX will form    36 AO Fock derivatives at one time.
     36 vectors produced by pass  1 Test12= 6.28D-15 2.56D-09 XBig12= 1.78D+01 9.98D-01.
     36 vectors produced by pass  2 Test12= 6.28D-15 2.56D-09 XBig12= 2.46D-01 1.00D-01.
     36 vectors produced by pass  3 Test12= 6.28D-15 2.56D-09 XBig12= 1.25D-03 6.08D-03.
     36 vectors produced by pass  4 Test12= 6.28D-15 2.56D-09 XBig12= 2.51D-06 2.24D-04.
     26 vectors produced by pass  5 Test12= 6.28D-15 2.56D-09 XBig12= 2.60D-09 6.27D-06.
      3 vectors produced by pass  6 Test12= 6.28D-15 2.56D-09 XBig12= 2.30D-12 2.05D-07.
      3 vectors produced by pass  7 Test12= 6.28D-15 2.56D-09 XBig12= 1.65D-15 7.17D-09.
 InvSVY:  IOpt=1 It=  1 EMax= 3.55D-15
 Solved reduced A of dimension   212 with    39 vectors.
 Isotropic polarizability for W=    0.000000       61.12 Bohr**3.
 End of Minotr F.D. properties file   721 does not exist.
 End of Minotr F.D. properties file   722 does not exist.
 End of Minotr F.D. properties file   788 does not exist.
 Calling FoFJK, ICntrl=    100127 FMM=F ISym2X=0 I1Cent= 0 IOpClX= 0 NMat=1 NMatS=1 NMatT=0.
 ***** Axes restored to original set *****
 -------------------------------------------------------------------
 Center     Atomic                   Forces (Hartrees/Bohr)
 Number     Number              X              Y              Z
 -------------------------------------------------------------------
      1        6           0.009099941   -0.000784836    0.003066599
      2        6          -0.008297041   -0.000675388   -0.000100570
      3        6          -0.002380590   -0.001406811   -0.009245078
      4        8          -0.001659099    0.003433694   -0.000408543
      5        8           0.003303127   -0.001892473   -0.000846919
      6        8           0.004663900   -0.003361524    0.008513689
      7        1          -0.001894085    0.001520648    0.000705679
      8        1          -0.001603714   -0.000657735   -0.000642558
      9        1          -0.000981522    0.000761094    0.000535362
     10        1          -0.000294001    0.014821213   -0.010889876
     11        1           0.001908285   -0.019666289    0.014808737
     12        1          -0.001865200    0.007908408   -0.005496523
 -------------------------------------------------------------------
 Cartesian Forces:  Max     0.019666289 RMS     0.006339105
 FormGI is forming the generalized inverse of G from B-inverse, IUseBI=4.

 GradGradGradGradGradGradGradGradGradGradGradGradGradGradGradGradGradGrad
 Berny optimization.
 Internal  Forces:  Max     0.011832695 RMS     0.003819343
 Search for a saddle point.
 Step number   4 out of a maximum of  100
 All quantities printed in internal units (Hartrees-Bohrs-Radians)
 Swapping is turned off.
 Second derivative matrix not updated -- analytic derivatives used.
 ITU=  0  0  0  0
     Eigenvalues ---   -0.25965  -0.01370   0.00039   0.00344   0.00697
     Eigenvalues ---    0.01074   0.01566   0.02177   0.04654   0.05306
     Eigenvalues ---    0.05572   0.06422   0.07262   0.09443   0.10190
     Eigenvalues ---    0.12965   0.14011   0.18483   0.21448   0.22380
     Eigenvalues ---    0.24922   0.27571   0.32242   0.33070   0.34237
     Eigenvalues ---    0.35619   0.38625   0.43331   0.50375   1.09434
 Eigenvectors required to have negative eigenvalues:
                          R6        A16       A13       R11       R5
   1                   -0.56746  -0.52215  -0.37992   0.29448   0.22990
                          A10       D15       A8        D16       D13
   1                   -0.17421  -0.11739   0.11438  -0.10269  -0.09748
 RFO step:  Lambda0=4.401887032D-07 Lambda=-2.56088138D-02.
 Linear search not attempted -- option 19 set.
 Maximum step size (   0.300) exceeded in Quadratic search.
    -- Step size scaled by   0.399
 Iteration  1 RMS(Cart)=  0.08385571 RMS(Int)=  0.00711872
 Iteration  2 RMS(Cart)=  0.00641336 RMS(Int)=  0.00102691
 Iteration  3 RMS(Cart)=  0.00008177 RMS(Int)=  0.00102534
 Iteration  4 RMS(Cart)=  0.00000001 RMS(Int)=  0.00102534
 Variable       Old X    -DE/DX   Delta X   Delta X   Delta X     New X
                                 (Linear)    (Quad)   (Total)
    R1        2.85239  -0.00024   0.00000  -0.00712  -0.00712   2.84528
    R2        2.68877   0.00285   0.00000   0.00697   0.00697   2.69574
    R3        2.07545  -0.00049   0.00000   0.00031   0.00031   2.07576
    R4        2.06441   0.00060   0.00000   0.00144   0.00144   2.06584
    R5        2.65929   0.00309   0.00000  -0.00047  -0.00047   2.65882
    R6        2.60464   0.00304   0.00000   0.13873   0.13873   2.74337
    R7        2.07841   0.00017   0.00000  -0.00149  -0.00149   2.07692
    R8        2.19095   0.01013   0.00000   0.01560   0.01560   2.20655
    R9        2.75725   0.00129   0.00000   0.00297   0.00297   2.76021
   R10        1.83748   0.00164   0.00000   0.00098   0.00098   1.83846
   R11        2.21280  -0.01183   0.00000  -0.19148  -0.19148   2.02133
    A1        1.99410   0.00183   0.00000   0.00139   0.00138   1.99548
    A2        1.93193   0.00012   0.00000   0.00967   0.00966   1.94158
    A3        1.91536  -0.00118   0.00000   0.00025   0.00024   1.91560
    A4        1.89487   0.00024   0.00000  -0.00188  -0.00191   1.89295
    A5        1.81093  -0.00118   0.00000  -0.00797  -0.00797   1.80296
    A6        1.91217   0.00007   0.00000  -0.00281  -0.00283   1.90935
    A7        2.19392  -0.00421   0.00000  -0.00301  -0.00501   2.18890
    A8        1.66020   0.00219   0.00000  -0.02721  -0.02765   1.63256
    A9        2.05286  -0.00326   0.00000  -0.01555  -0.01688   2.03598
   A10        1.31830  -0.00545   0.00000  -0.08784  -0.08659   1.23172
   A11        1.87318   0.00590   0.00000   0.02403   0.02697   1.90015
   A12        2.28335   0.00436   0.00000   0.10684   0.10623   2.38958
   A13        2.56581   0.00366   0.00000  -0.02715  -0.02715   2.53866
   A14        1.83504   0.00191   0.00000   0.00430   0.00430   1.83934
   A15        1.75189  -0.00347   0.00000  -0.00665  -0.00665   1.74525
   A16        2.34984  -0.00181   0.00000  -0.10579  -0.10579   2.24404
    D1       -1.42690  -0.00214   0.00000  -0.04827  -0.04801  -1.47491
    D2       -2.75075   0.00265   0.00000   0.07946   0.07861  -2.67214
    D3        1.05454  -0.00288   0.00000  -0.03035  -0.02979   1.02475
    D4        0.71849  -0.00037   0.00000  -0.04218  -0.04190   0.67660
    D5       -0.60535   0.00441   0.00000   0.08555   0.08472  -0.52063
    D6       -3.08325  -0.00111   0.00000  -0.02426  -0.02368  -3.10693
    D7        2.83119  -0.00098   0.00000  -0.03927  -0.03899   2.79219
    D8        1.50734   0.00380   0.00000   0.08846   0.08762   1.59497
    D9       -0.97055  -0.00172   0.00000  -0.02135  -0.02078  -0.99133
   D10        1.27048   0.00098   0.00000   0.00726   0.00725   1.27773
   D11       -0.89490  -0.00066   0.00000  -0.00492  -0.00490  -0.89980
   D12       -2.92782  -0.00026   0.00000   0.00308   0.00307  -2.92474
   D13        2.79917  -0.00121   0.00000   0.00680   0.00684   2.80601
   D14       -1.98514  -0.00115   0.00000  -0.09175  -0.09256  -2.07770
   D15        0.26308   0.00191   0.00000   0.00164   0.00240   0.26548
   D16        2.04776  -0.00944   0.00000  -0.13629  -0.13581   1.91195
   D17       -0.14418  -0.00493   0.00000  -0.14659  -0.15049  -0.29468
   D18       -1.89956  -0.00778   0.00000  -0.09466  -0.09123  -1.99078
   D19       -2.69962   0.00065   0.00000   0.01821   0.01821  -2.68141
         Item               Value     Threshold  Converged?
 Maximum Force            0.011833     0.000450     NO 
 RMS     Force            0.003819     0.000300     NO 
 Maximum Displacement     0.368686     0.001800     NO 
 RMS     Displacement     0.081700     0.001200     NO 
 Predicted change in Energy=-9.116367D-03
 GradGradGradGradGradGradGradGradGradGradGradGradGradGradGradGradGradGrad

                          Input orientation:                          
 ---------------------------------------------------------------------
 Center     Atomic      Atomic             Coordinates (Angstroms)
 Number     Number       Type             X           Y           Z
 ---------------------------------------------------------------------
      1          6           0        0.646839    1.445856   -2.374857
      2          6           0        0.486051    0.699716   -1.077004
      3          6           0        1.530981    0.116742   -0.336818
      4          8           0        0.985583    2.823223   -2.222926
      5          8           0        2.383229    2.834082   -1.798727
      6          8           0        1.858991   -0.291413    0.706850
      7          1           0        2.406776    3.678705   -1.316509
      8          1           0        1.401532    0.970800   -3.016219
      9          1           0       -0.309712    1.478870   -2.903061
     10          1           0        1.725146   -1.160149   -1.517071
[...]
    D4        0.64867  -0.00000   0.00000   0.00001   0.00001   0.64868
    D5        0.50616   0.00000   0.00000   0.00003   0.00003   0.50619
    D6       -2.64674  -0.00000   0.00000   0.00001   0.00001  -2.64672
    D7        2.81560  -0.00000   0.00000   0.00002   0.00002   2.81562
    D8        2.67310   0.00000   0.00000   0.00004   0.00004   2.67314
    D9       -0.47980  -0.00000   0.00000   0.00002   0.00002  -0.47978
   D10        1.17071  -0.00000   0.00000  -0.00003  -0.00003   1.17068
   D11       -1.02046  -0.00000   0.00000  -0.00003  -0.00003  -1.02049
   D12       -3.00765  -0.00000   0.00000  -0.00003  -0.00003  -3.00768
   D13        3.02679   0.00000   0.00000  -0.00000  -0.00000   3.02678
   D14       -2.99318  -0.00000   0.00000  -0.00003  -0.00003  -2.99321
   D15        0.03830   0.00000   0.00000  -0.00001  -0.00001   0.03829
   D16        1.40033  -0.00000   0.00000  -0.00004  -0.00004   1.40029
   D17       -1.51707  -0.00000   0.00000  -0.00006  -0.00006  -1.51713
   D18       -1.72056  -0.00000   0.00000  -0.00002  -0.00002  -1.72058
   D19       -2.31646  -0.00000   0.00000   0.00001   0.00001  -2.31645
         Item               Value     Threshold  Converged?
 Maximum Force            0.000004     0.000450     YES
 RMS     Force            0.000001     0.000300     YES
 Maximum Displacement     0.000091     0.001800     YES
 RMS     Displacement     0.000025     0.001200     YES
 Predicted change in Energy=-9.258950D-11
 Optimization completed.
    -- Stationary point found.
                           ----------------------------
                           !   Optimized Parameters   !
                           ! (Angstroms and Degrees)  !
 --------------------------                            --------------------------
 ! Name  Definition              Value          Derivative Info.                !
 --------------------------------------------------------------------------------
 ! R1    R(1,2)                  1.4864         -DE/DX =    0.0                 !
 ! R2    R(1,4)                  1.4672         -DE/DX =    0.0                 !
 ! R3    R(1,8)                  1.0969         -DE/DX =    0.0                 !
 ! R4    R(1,9)                  1.0931         -DE/DX =    0.0                 !
 ! R5    R(2,3)                  1.3967         -DE/DX =    0.0                 !
 ! R6    R(2,11)                 2.1131         -DE/DX =    0.0                 !
 ! R7    R(2,12)                 1.0875         -DE/DX =    0.0                 !
 ! R8    R(3,6)                  1.241          -DE/DX =    0.0                 !
 ! R9    R(4,5)                  1.4561         -DE/DX =    0.0                 !
 ! R10   R(5,7)                  0.9761         -DE/DX =    0.0                 !
 ! R11   R(10,11)                1.1239         -DE/DX =    0.0                 !
 ! A1    A(2,1,4)              112.289          -DE/DX =    0.0                 !
 ! A2    A(2,1,8)              113.8412         -DE/DX =    0.0                 !
 ! A3    A(2,1,9)              112.5503         -DE/DX =    0.0                 !
 ! A4    A(4,1,8)              106.924          -DE/DX =    0.0                 !
 ! A5    A(4,1,9)              101.7955         -DE/DX =    0.0                 !
 ! A6    A(8,1,9)              108.6187         -DE/DX =    0.0                 !
 ! A7    A(1,2,3)              121.31           -DE/DX =    0.0                 !
 ! A8    A(1,2,11)              89.1524         -DE/DX =    0.0                 !
 ! A9    A(1,2,12)             119.2937         -DE/DX =    0.0                 !
 ! A10   A(3,2,11)              33.0781         -DE/DX =    0.0                 !
 ! A11   A(3,2,12)             118.8194         -DE/DX =    0.0                 !
 ! A12   A(11,2,12)            151.5472         -DE/DX =    0.0                 !
 ! A13   A(2,3,6)              136.8732         -DE/DX =    0.0                 !
 ! A14   A(1,4,5)              105.5123         -DE/DX =    0.0                 !
 ! A15   A(4,5,7)              100.4356         -DE/DX =    0.0                 !
 ! A16   A(2,11,10)             63.0203         -DE/DX =    0.0                 !
 ! D1    D(4,1,2,3)            -84.509          -DE/DX =    0.0                 !
 ! D2    D(4,1,2,11)           -92.6739         -DE/DX =    0.0                 !
 ! D3    D(4,1,2,12)            86.6781         -DE/DX =    0.0                 !
 ! D4    D(8,1,2,3)             37.166          -DE/DX =    0.0                 !
 ! D5    D(8,1,2,11)            29.0011         -DE/DX =    0.0                 !
 ! D6    D(8,1,2,12)          -151.6469         -DE/DX =    0.0                 !
 ! D7    D(9,1,2,3)            161.3222         -DE/DX =    0.0                 !
 ! D8    D(9,1,2,11)           153.1573         -DE/DX =    0.0                 !
 ! D9    D(9,1,2,12)           -27.4907         -DE/DX =    0.0                 !
 ! D10   D(2,1,4,5)             67.0769         -DE/DX =    0.0                 !
 ! D11   D(8,1,4,5)            -58.4682         -DE/DX =    0.0                 !
 ! D12   D(9,1,4,5)           -172.3256         -DE/DX =    0.0                 !
 ! D13   D(1,2,3,6)            173.4222         -DE/DX =    0.0                 !
 ! D14   D(11,2,3,6)          -171.4965         -DE/DX =    0.0                 !
 ! D15   D(12,2,3,6)             2.1943         -DE/DX =    0.0                 !
 ! D16   D(1,2,11,10)           80.2328         -DE/DX =    0.0                 !
 ! D17   D(3,2,11,10)          -86.9217         -DE/DX =    0.0                 !
 ! D18   D(12,2,11,10)         -98.581          -DE/DX =    0.0                 !
 ! D19   D(1,4,5,7)           -132.7236         -DE/DX =    0.0                 !
 --------------------------------------------------------------------------------
 GradGradGradGradGradGradGradGradGradGradGradGradGradGradGradGradGradGrad


 ----------------------------------------------------------------------

 Electric dipole moment (input orientation):
 (Debye = 10**-18 statcoulomb cm , SI units = C m)
                  (au)            (Debye)         (10**-30 SI)
   Tot        0.147516D+01      0.374949D+01      0.125070D+02
   x         -0.619383D-01     -0.157431D+00     -0.525135D+00
   y          0.103002D+01      0.261805D+01      0.873286D+01
   z         -0.105420D+01     -0.267951D+01     -0.893787D+01

 Dipole polarizability, Alpha (input orientation).
 (esu units = cm**3 , SI units = C**2 m**2 J**-1)
 Alpha(0;0):
               (au)            (10**-24 esu)      (10**-40 SI)
   iso        0.595805D+02      0.882893D+01      0.982351D+01
   aniso      0.305333D+02      0.452456D+01      0.503426D+01
   xx         0.588617D+02      0.872241D+01      0.970499D+01
   yx        -0.504624D+01     -0.747775D+00     -0.832012D+00
   yy         0.606182D+02      0.898270D+01      0.999460D+01
   zx         0.460735D+01      0.682738D+00      0.759649D+00
   zy        -0.162241D+02     -0.240416D+01     -0.267499D+01
   zz         0.592617D+02      0.878167D+01      0.977093D+01

 ----------------------------------------------------------------------

 Dipole orientation:
     6          0.95318764          1.18561012          5.04063448
     6          0.60075985          0.30556833          2.39659056
     6          2.40468884          0.80017917          0.53439246
     8          2.48817681         -0.57181705          6.53809645
     8          5.01119796         -0.45971943          5.44591570
     8          2.76393862          0.19805310         -1.70339080
     1          5.39394254         -2.25858286          5.30371216
     1          1.84944086          3.04868040          5.19117067
     1         -0.81523816          1.21635120          6.10765109
     1          4.16142391          0.54234516          2.23185881
     1          3.80769480          2.42993393          1.32481677
     1         -0.94964775         -0.97069043          1.95983561

 Electric dipole moment (dipole orientation):
 (Debye = 10**-18 statcoulomb cm , SI units = C m)
                  (au)            (Debye)         (10**-30 SI)
   Tot        0.147516D+01      0.374949D+01      0.125070D+02
   x          0.000000D+00      0.000000D+00      0.000000D+00
   y          0.000000D+00      0.000000D+00      0.000000D+00
   z          0.147516D+01      0.374949D+01      0.125070D+02

 Dipole polarizability, Alpha (dipole orientation).
 (esu units = cm**3 , SI units = C**2 m**2 J**-1)
 Alpha(0;0):
               (au)            (10**-24 esu)      (10**-40 SI)
   iso        0.595805D+02      0.882893D+01      0.982351D+01
   aniso      0.305333D+02      0.452456D+01      0.503426D+01
   xx         0.583274D+02      0.864322D+01      0.961688D+01
   yx         0.951479D-01      0.140995D-01      0.156878D-01
   yy         0.437285D+02      0.647989D+01      0.720985D+01
   zx        -0.609043D+01     -0.902508D+00     -0.100418D+01
   zy        -0.965838D+00     -0.143122D+00     -0.159245D+00
   zz         0.766858D+02      0.113637D+02      0.126438D+02

 ----------------------------------------------------------------------
 1\1\GINC-BELL-A091\Freq\RB3LYP\6-31+G(d)\C3H6O3\ZHAO922\23-Dec-2020\0\
 \#N Geom=AllCheck Guess=TCheck SCRF=Check GenChk RB3LYP/6-31+G(d) Freq
 \\pp_20_0 TS\\0,1\C,0.3811624205,1.4220985341,-2.3654528408\C,0.261567
 468,0.7752362671,-1.0325640716\C,1.2520845882,-0.0838246847,-0.5511789
 676\O,1.1752380223,2.6548449188,-2.3164922082\O,2.5322432255,2.2316679
 558,-2.0009435287\O,1.4971647669,-0.679387021,0.5095751427\H,2.7540104
 471,2.8638368105,-1.2910041973\H,0.8347497168,0.780265112,-3.130685024
 4\H,-0.5776719849,1.7887105785,-2.7410293152\H,2.1453702058,0.65691615
 06,-1.1368688957\H,1.9614516867,-0.3962799385,-1.4834465671\H,-0.53677
 75629,1.0831633168,-0.361381526\\Version=ES64L-G16RevB.01\State=1-A\HF
 =-343.3650929\RMSD=1.553e-09\RMSF=6.967e-07\ZeroPoint=0.0844536\Therma
 l=0.0910382\Dipole=-0.0619383,1.0300184,-1.0541986\DipoleDeriv=0.26058
 1,0.1767523,-0.048904,0.1248106,0.7135397,-0.188086,0.1557467,-0.28252
 35,0.5708799,-0.3116687,0.130772,-0.3791914,-0.1397545,-0.36444,0.1464
 212,-0.1706671,0.1240123,-0.3270514,0.1249774,-0.0823043,0.007771,-0.1
 328098,0.4700192,-0.7275647,0.2092113,-0.9991214,1.5636814,0.0334184,-
 0.0607217,0.0852714,-0.0279375,-0.6326469,0.2119571,0.0336759,0.172334
 7,-0.3974215,-0.5349523,-0.3101432,0.052396,-0.2665885,-0.4463841,0.20
 02713,0.0054694,0.0944968,-0.2052924,-0.4175931,0.1176105,-0.1517134,0
 .1381919,-0.7318354,0.4802109,-0.2718243,0.7807427,-1.3609618,0.282001
 8,0.0737079,-0.0097938,0.0884641,0.3112694,-0.0543358,0.0169881,-0.017
 1196,0.2514152,0.0323554,0.0318888,0.1120558,-0.0026664,-0.0546625,-0.
 045056,0.004075,-0.0172726,-0.0427998,-0.0099505,0.0188856,-0.0499251,
 0.0207076,-0.0004643,0.0562727,-0.0256849,0.0387589,0.0689401,0.323764
 3,0.0148382,0.0273514,-0.0481762,0.6914749,-0.2047931,-0.2119364,0.088
 9695,0.0156617,0.1680508,-0.1908604,0.2760025,0.1714653,-0.0929972,0.0
 96604,0.2020716,-0.0313356,-0.1478093,0.0490155,0.0795741,0.0786796,0.
 0742936,0.1371272,0.0280984,0.0528747,0.0480578,0.0107577\Polar=58.861
 7316,-5.0462391,60.6182406,4.6073465,-16.2240672,59.2616727\Quadrupole
 =5.561011,-1.8176378,-3.7433732,1.1103884,1.1248137,7.7206385\PG=C01 [
 X(C3H6O3)]\NImag=1\\0.55375983,-0.16214446,0.41709605,0.01819420,0.020
 67422,0.54632721,-0.08916203,0.01116922,0.02527079,0.53083692,0.018821
 65,-0.07843988,0.05232793,-0.24689696,0.36057493,0.01238498,0.04321688
 ,-0.21218307,-0.10617355,-0.12505933,0.54493221,0.00488449,0.00595449,
 -0.00434524,-0.21241816,0.14488328,-0.04853444,0.39135730,0.00128975,-
 0.02537565,0.00943578,0.15897491,-0.15423156,0.06616641,-0.21894459,0.
 39130097,-0.03165844,0.02207694,-0.01658102,-0.06107589,0.07984610,-0.
 13176157,0.18894032,-0.27361927,0.57621243,-0.05887743,-0.02561175,-0.
 01471179,0.00036059,-0.02078246,0.01806222,-0.00804664,0.00811211,-0.0
 0060919,0.29903171,0.01194652,-0.14038901,-0.01125575,-0.00920521,-0.0
 3203539,0.02271686,-0.00474116,0.00193161,-0.00456722,-0.00137151,0.28
 778603,-0.00167666,-0.00793384,-0.05152314,0.00788484,0.02622224,0.003
 38194,-0.00161073,0.00307690,0.00422224,0.07199729,-0.00936393,0.08661
 112,-0.04785812,0.00147907,-0.00533920,-0.00090976,0.00163051,-0.00429
 942,0.00027795,-0.00182345,0.00181137,-0.18391240,0.05060553,-0.025330
 23,0.28067854,-0.03395992,0.01286232,-0.00712120,-0.00380579,-0.003933
 66,0.00297575,-0.00698830,-0.00081894,-0.00547444,0.05545327,-0.087513
 40,-0.00169740,0.01868923,0.30326414,-0.01047077,0.00837900,-0.0073252
 5,0.00661591,0.00654153,-0.00006281,0.00874880,-0.00263312,0.00129219,
 -0.06236871,-0.00202871,-0.03594931,0.11296586,0.23591757,0.30765079,-
 0.00198681,0.00068450,0.00195751,0.01016968,0.01874382,-0.03534636,-0.
 10777733,0.04853519,-0.07710561,0.00205568,0.00272888,-0.00097532,-0.0
 0028048,0.00044618,-0.00090352,0.08020785,0.00821233,0.00950904,-0.001
 84180,0.00580614,-0.01099681,0.03800345,0.07411026,-0.18034795,0.20253
 892,-0.00280987,-0.00160863,-0.00056194,-0.00069255,-0.00185233,0.0006
 8924,-0.06863681,0.19520804,0.00223825,-0.00511239,0.00964520,-0.01204
 561,0.01924355,-0.01613706,-0.12997800,0.21944198,-0.42574098,0.001586
 63,0.00638929,-0.00454542,0.00110917,0.00415524,0.00021307,0.09709696,
 -0.27480427,0.52463734,-0.00779938,0.00321141,-0.00415660,0.00066812,0
 .00080157,0.00003231,0.00033947,-0.00085886,0.00132720,-0.02257560,-0.
 02633109,-0.02998869,-0.04794643,-0.02442787,-0.04925181,-0.00022778,0
 .00036926,-0.00084048,0.07872414,-0.00041418,-0.00401354,-0.00000666,-
 0.00043952,0.00127144,-0.00023404,0.00093995,-0.00128968,-0.00023426,0
 .01740716,0.00948056,0.01448443,-0.06684270,-0.22548635,-0.23786733,-0
 .00007274,0.00017818,0.00016177,0.05077664,0.22150537,0.00035960,0.000
 27609,0.00047936,0.00042057,-0.00068573,0.00017481,-0.00030171,0.00130
 907,0.00110969,-0.00308448,-0.00084636,-0.00300860,-0.08133806,-0.2257
 6134,-0.26156313,-0.00006887,0.00007584,-0.00129260,0.08292272,0.22551
 704,0.26110065,-0.10032509,0.07522431,0.07590984,0.00054076,-0.0004403
 6,0.00413001,-0.00132466,0.00056343,-0.00091542,0.00057671,-0.02505280
 ,-0.01466008,0.00479606,0.00014179,-0.00036311,0.00021929,-0.00045391,
 0.00031590,0.00006988,-0.00030761,0.00027608,0.10288911,0.06651612,-0.
 12498989,-0.10177455,-0.00483067,0.00947159,0.01170930,-0.00157660,-0.
 00073712,-0.00071696,-0.00048445,-0.03678107,-0.01914093,0.00080565,0.
 00308635,0.00117077,0.00058450,-0.00038653,0.00112847,0.00058231,0.000
 65099,0.00039133,-0.06590658,0.15468499,0.07751931,-0.10028037,-0.1791
 2550,0.01522369,-0.01282054,-0.01949856,0.00198765,-0.00060617,0.00127
 048,-0.00428618,-0.00604960,0.00372230,0.00053789,-0.00114763,-0.00026
 490,-0.00059560,0.00055802,-0.00019266,0.00007665,0.00049225,-0.000023
 76,-0.08445481,0.11083670,0.18992373,-0.25507511,0.08333538,-0.0804372
 8,0.00620489,-0.00092078,0.00257272,0.00090707,0.00009496,0.00124759,-
 0.02477482,0.00312391,-0.00653745,0.00030674,-0.00519001,-0.00144925,-
 0.00002154,-0.00076238,0.00018968,-0.00126239,0.00024747,0.00037406,-0
 .00920946,0.00456619,-0.00372309,0.28265960,0.09298578,-0.08198762,0.0
 3168240,0.01226739,-0.00426567,0.00424020,0.00085153,0.00222266,0.0036
 4910,-0.02622209,0.00765633,-0.00780606,-0.00765132,-0.00469304,-0.003
 61759,0.00010100,-0.00140408,0.00014312,-0.00205173,0.00073314,0.00020
 254,0.01577117,-0.00460326,0.00712564,-0.08348600,0.08764952,-0.078807
 39,0.03115460,-0.07946162,-0.02529977,0.01248627,-0.00949787,0.0013927
 9,-0.00062212,-0.00495534,-0.00600986,-0.00149809,-0.00114389,0.001241
 49,-0.00084300,0.00087020,-0.00093516,0.00157982,-0.00012986,0.0000998
 0,0.00013925,0.00020861,0.01986737,-0.00684381,0.00911541,0.08753542,-
 0.03552482,0.08425206,0.00092570,0.00676157,-0.00926625,-0.01987365,-0
 .00512645,0.00531656,-0.03346111,-0.03593356,-0.02397961,-0.00670277,0
 .00058514,-0.00171444,-0.00420345,-0.00038815,0.00015806,0.00741340,0.
 00067243,0.01518836,0.00011408,-0.00080420,-0.00080586,0.00011296,-0.0
 0055960,-0.00022737,-0.00045014,-0.00161732,0.00054691,0.06832971,0.00
 976459,0.01269682,0.00311714,0.00402488,-0.01794792,-0.00254231,-0.078
 72738,0.01619714,0.05352872,-0.00620355,-0.00546773,-0.00087712,0.0055
 4833,0.00459511,-0.00272831,0.01068704,-0.01015080,-0.00427001,-0.0018
 4548,-0.00286471,-0.00143502,-0.00019858,-0.00018194,-0.00138633,-0.00
 063815,-0.00193744,-0.00009132,0.04137098,0.02328331,-0.00739715,-0.00
 618123,0.00500933,0.01099141,-0.00989595,0.00106897,-0.04479247,0.0039
 1353,0.03272862,0.00108151,0.00594876,-0.00344312,-0.00105282,-0.00459
 920,-0.00485235,0.00994792,0.02214339,-0.03815910,-0.00023624,-0.00300
 102,0.00357449,0.00004523,-0.00023197,-0.00158592,0.00073755,0.0011275
 5,-0.00079618,0.01066417,-0.01971639,0.01967529,-0.00196563,-0.0012105
 6,-0.00031255,-0.02367549,0.01983964,0.01931060,-0.02224760,0.03368866
 ,-0.01392427,0.00308227,-0.00185678,0.00282439,-0.00096336,-0.00033635
 ,-0.00307742,0.00822122,-0.01243066,0.02627574,0.00013113,-0.00044824,
 0.00107023,0.00072284,-0.00052971,-0.00047320,0.00014197,-0.00012289,-
 0.00002434,-0.01561913,0.01445608,0.01804292,0.05710749,-0.00364922,-0
 .00424131,-0.00485544,0.00022425,0.00137968,-0.01714252,0.07860995,-0.
 05190709,-0.06587937,0.00291596,-0.00266317,0.00458851,-0.00166650,0.0
 0002868,-0.00339280,-0.01215844,0.00392799,0.03337537,-0.00005021,-0.0
 0015345,0.00084004,0.00040171,-0.00038819,0.00183032,-0.00023820,0.000
 65301,0.00040530,-0.01431786,-0.01373308,0.01073719,-0.05521506,0.0594
 3362,0.00162680,0.00436961,-0.00193760,0.00253128,-0.00370534,-0.00038
 144,0.03828555,-0.03156680,-0.04675794,-0.00153581,-0.00075969,0.00110
 686,-0.00005726,0.00391370,-0.00000617,0.00569195,0.01403547,-0.048581
 50,0.00007964,0.00053373,-0.00067745,-0.00082941,0.00072402,0.00047469
 ,-0.00028896,-0.00091643,0.00042803,0.00099753,-0.02322223,-0.01362106
 ,-0.04724224,0.03518804,0.10874207,0.00347957,0.00114683,-0.00276342,-
 0.20274188,0.06944652,0.13254437,-0.01249078,0.00630145,0.01594197,-0.
 00021731,-0.00043143,-0.00021292,0.00001470,0.00036591,-0.00060404,0.0
 0200684,-0.00338425,-0.00113660,-0.00023524,-0.00004204,0.00017572,0.0
 0093158,0.00083282,-0.00158493,0.00057318,-0.00082551,0.00039274,0.003
 41440,0.00176126,0.00196798,-0.00493571,0.00514362,0.00074093,0.210200
 64,-0.00936896,0.00727266,0.00961792,0.07271136,-0.07084675,-0.0440506
 6,0.00562856,0.00305563,-0.01114827,-0.00040284,-0.00039612,-0.0009908
 6,-0.00008180,0.00046112,-0.00043025,-0.00164311,-0.00207613,0.0001478
 8,-0.00017593,-0.00001196,0.00011650,0.00025743,0.00017408,0.00144772,
 -0.00013240,-0.00002354,-0.00034208,0.00935702,-0.00448875,-0.00024466
 ,0.00416586,0.00766331,0.00140593,-0.08031519,0.05921645,0.01768728,-0
 .01063953,-0.01332391,0.13565632,-0.04450076,-0.16003556,-0.00979251,0
 .00570383,0.00896119,-0.00012164,0.00131443,0.00056901,-0.00024878,-0.
 00031806,-0.00000234,0.00123611,-0.00241614,0.00028357,-0.00006450,0.0
 0001485,-0.00008208,0.00067841,0.00274764,-0.00381531,-0.00022098,-0.0
 0030565,0.00111045,0.00312194,-0.00037682,0.00040103,-0.00246985,0.004
 30536,0.00121151,-0.14546181,0.04447084,0.16472243\\0.00000032,0.00000
 104,-0.00000009,0.00000005,-0.00000006,-0.00000009,0.00000041,0.000001
 00,-0.00000017,0.00000059,-0.00000035,0.00000078,0.00000030,-0.0000000
 9,0.00000013,-0.00000023,-0.00000041,-0.00000114,0.00000028,-0.0000005
 4,0.00000042,-0.00000011,0.00000047,-0.00000006,0.00000019,0.00000075,
 0.00000019,-0.00000213,-0.00000212,0.00000096,0.00000035,0.00000016,-0
 .00000091,-0.00000003,0.00000014,-0.00000003\\\@


 KNOWLEDGE IS EXPERIMENT'S DAUGHTER.
 -- LEONARDO DA VINCI, IN "PENSIERI" CA. 1492
 Job cpu time:       0 days  0 hours  4 minutes 51.1 seconds.
 Elapsed time:       0 days  0 hours  0 minutes 20.4 seconds.
 File lengths (MBytes):  RWF=     27 Int=      0 D2E=      0 Chk=      3 Scr=      1
 Normal termination of Gaussian 16 at Wed Dec 23 22:07:42 2020.
