 Entering Gaussian System, Link 0=g16
 Initial command:
 /apps/cent7/gaussian/g16-B.01/g16-haswell/g16/l1.exe "/scratch/bell/zhao922/YARP/paper-example/KHP-network/pp_0/TS-folder/Gau-21738.inp" -scrdir="/scratch/bell/zhao922/YARP/paper-example/KHP-network/pp_0/TS-folder/"
 Entering Link 1 = /apps/cent7/gaussian/g16-B.01/g16-haswell/g16/l1.exe PID=     21740.
  
 Copyright (c) 1988-2017, Gaussian, Inc.  All Rights Reserved.
  
 This is part of the Gaussian(R) 16 program.  It is based on
 the Gaussian(R) 09 system (copyright 2009, Gaussian, Inc.),
 the Gaussian(R) 03 system (copyright 2003, Gaussian, Inc.),
 the Gaussian(R) 98 system (copyright 1998, Gaussian, Inc.),
 the Gaussian(R) 94 system (copyright 1995, Gaussian, Inc.),
 the Gaussian 92(TM) system (copyright 1992, Gaussian, Inc.),
 the Gaussian 90(TM) system (copyright 1990, Gaussian, Inc.),
 the Gaussian 88(TM) system (copyright 1988, Gaussian, Inc.),
 the Gaussian 86(TM) system (copyright 1986, Carnegie Mellon
 University), and the Gaussian 82(TM) system (copyright 1983,
 Carnegie Mellon University). Gaussian is a federally registered
 trademark of Gaussian, Inc.
  
 This software contains proprietary and confidential information,
 including trade secrets, belonging to Gaussian, Inc.
  
 This software is provided under written license and may be
 used, copied, transmitted, or stored only in accord with that
 written license.
  
 The following legend is applicable only to US Government
 contracts under FAR:
  
                    RESTRICTED RIGHTS LEGEND
  
 Use, reproduction and disclosure by the US Government is
 subject to restrictions as set forth in subparagraphs (a)
 and (c) of the Commercial Computer Software - Restricted
 Rights clause in FAR 52.227-19.
  
 Gaussian, Inc.
 340 Quinnipiac St., Bldg. 40, Wallingford CT 06492
  
  
 ---------------------------------------------------------------
 Warning -- This program may not be used in any manner that
 competes with the business of Gaussian, Inc. or will provide
 assistance to any competitor of Gaussian, Inc.  The licensee
 of this program is prohibited from giving any competitor of
 Gaussian, Inc. access to this program.  By using this program,
 the user acknowledges that Gaussian, Inc. is engaged in the
 business of creating and licensing software in the field of
 computational chemistry and represents and warrants to the
 licensee that it is not a competitor of Gaussian, Inc. and that
 it will not use this program in any manner prohibited above.
 ---------------------------------------------------------------
  

 Cite this work as:
 Gaussian 16, Revision B.01,
 M. J. Frisch, G. W. Trucks, H. B. Schlegel, G. E. Scuseria, 
 M. A. Robb, J. R. Cheeseman, G. Scalmani, V. Barone, 
 G. A. Petersson, H. Nakatsuji, X. Li, M. Caricato, A. V. Marenich, 
 J. Bloino, B. G. Janesko, R. Gomperts, B. Mennucci, H. P. Hratchian, 
 J. V. Ortiz, A. F. Izmaylov, J. L. Sonnenberg, D. Williams-Young, 
 F. Ding, F. Lipparini, F. Egidi, J. Goings, B. Peng, A. Petrone, 
 T. Henderson, D. Ranasinghe, V. G. Zakrzewski, J. Gao, N. Rega, 
 G. Zheng, W. Liang, M. Hada, M. Ehara, K. Toyota, R. Fukuda, 
 J. Hasegawa, M. Ishida, T. Nakajima, Y. Honda, O. Kitao, H. Nakai, 
 T. Vreven, K. Throssell, J. A. Montgomery, Jr., J. E. Peralta, 
 F. Ogliaro, M. J. Bearpark, J. J. Heyd, E. N. Brothers, K. N. Kudin, 
 V. N. Staroverov, T. A. Keith, R. Kobayashi, J. Normand, 
 K. Raghavachari, A. P. Rendell, J. C. Burant, S. S. Iyengar, 
 J. Tomasi, M. Cossi, J. M. Millam, M. Klene, C. Adamo, R. Cammi, 
 J. W. Ochterski, R. L. Martin, K. Morokuma, O. Farkas, 
 J. B. Foresman, and D. J. Fox, Gaussian, Inc., Wallingford CT, 2016.
 
 ******************************************
 Gaussian 16:  ES64L-G16RevB.01 20-Dec-2017
                23-Dec-2020 
 ******************************************
 %NProcShared=16
 Will use up to   16 processors via shared memory.
 %Mem=6GB
 --------------------------------------------------------------
 # B3LYP/6-31+G* OPT=(TS, CALCALL, NOEIGEN, maxcycles=100) Freq
 --------------------------------------------------------------
 1/5=1,6=100,10=4,11=1,18=20,26=3,38=1/1,3;
 2/9=110,12=2,17=6,18=5,40=1/2;
 3/5=1,6=6,7=11,11=2,25=1,30=1,71=2,74=-5,140=1/1,2,3;
 4//1;
 5/5=2,38=5/2;
 8/6=4,10=90,11=11/1;
 11/6=1,8=1,9=11,15=111,16=1/1,2,10;
 10/6=1/2;
 6/7=2,8=2,9=2,10=2,18=1,28=1/1;
 7/10=1,25=1/1,2,3,16;
 1/5=1,6=100,10=4,11=1,18=20,26=3/3(3);
 2/9=110/2;
 7/8=1,9=1,25=1,44=-1/16;
 99//99;
 2/9=110/2;
 3/5=1,6=6,7=11,11=2,25=1,30=1,71=2,74=-5,140=1/1,2,3;
 4/5=5,16=3,69=1/1;
 5/5=2,38=5/2;
 8/6=4,10=90,11=11/1;
 11/6=1,8=1,9=11,15=111,16=1/1,2,10;
 10/6=1/2;
 7/10=1,25=1/1,2,3,16;
 1/5=1,6=100,10=4,11=1,18=20,26=3/3(-8);
 2/9=110/2;
 6/7=2,8=2,9=2,10=2,18=1,19=2,28=1/1;
 7/8=1,9=1,25=1,44=-1/16;
 99//99;
 ---------
 pp_3_0 TS
 ---------
 Symbolic Z-matrix:
 Charge =  0 Multiplicity = 1
 C                     1.50889   1.25547  -2.32472 
 C                     0.76805   0.69171  -0.31487 
 C                     1.11206  -0.51669  -0.77828 
 O                     1.41095   2.60821  -2.21204 
 O                     0.17901   3.14193  -1.68939 
 O                     1.71405  -1.52524  -0.7107 
 H                     0.34592   4.09067  -1.73384 
 H                     2.51472   0.96053  -2.03043 
 H                     1.34758   0.93047  -3.3534 
 H                     0.59905  -0.26348  -2.11586 
 H                     0.68569   0.97462   0.75226 
 H                     0.01085   1.32603  -0.73262 
 
 Add virtual bond connecting atoms H10        and C3         Dist= 2.75D+00.
 Add virtual bond connecting atoms H10        and C1         Dist= 3.37D+00.
 Add virtual bond connecting atoms H10        and H9         Dist= 3.54D+00.

 GradGradGradGradGradGradGradGradGradGradGradGradGradGradGradGradGradGrad
 Berny optimization.
 Initialization pass.
                           ----------------------------
                           !    Initial Parameters    !
                           ! (Angstroms and Degrees)  !
 --------------------------                            --------------------------
 ! Name  Definition              Value          Derivative Info.                !
 --------------------------------------------------------------------------------
 ! R1    R(1,4)                  1.361          calculate D2E/DX2 analytically  !
 ! R2    R(1,8)                  1.0887         calculate D2E/DX2 analytically  !
 ! R3    R(1,9)                  1.0908         calculate D2E/DX2 analytically  !
 ! R4    R(1,10)                 1.7829         calculate D2E/DX2 analytically  !
 ! R5    R(2,3)                  1.3391         calculate D2E/DX2 analytically  !
 ! R6    R(2,11)                 1.1071         calculate D2E/DX2 analytically  !
 ! R7    R(2,12)                 1.0725         calculate D2E/DX2 analytically  !
 ! R8    R(3,6)                  1.1765         calculate D2E/DX2 analytically  !
 ! R9    R(3,10)                 1.4548         calculate D2E/DX2 analytically  !
 ! R10   R(4,5)                  1.4407         calculate D2E/DX2 analytically  !
 ! R11   R(5,7)                  0.9643         calculate D2E/DX2 analytically  !
 ! R12   R(9,10)                 1.8754         calculate D2E/DX2 analytically  !
 ! A1    A(4,1,8)              108.2625         calculate D2E/DX2 analytically  !
 ! A2    A(4,1,9)              111.321          calculate D2E/DX2 analytically  !
 ! A3    A(4,1,10)             143.1684         calculate D2E/DX2 analytically  !
 ! A4    A(8,1,9)              108.1089         calculate D2E/DX2 analytically  !
 ! A5    A(8,1,10)             102.0641         calculate D2E/DX2 analytically  !
 ! A6    A(3,2,11)             125.6814         calculate D2E/DX2 analytically  !
 ! A7    A(3,2,12)             125.47           calculate D2E/DX2 analytically  !
 ! A8    A(11,2,12)             99.892          calculate D2E/DX2 analytically  !
 ! A9    A(2,3,6)              152.2665         calculate D2E/DX2 analytically  !
 ! A10   A(2,3,10)              94.0441         calculate D2E/DX2 analytically  !
 ! A11   A(6,3,10)             112.4855         calculate D2E/DX2 analytically  !
 ! A12   A(1,4,5)              117.3732         calculate D2E/DX2 analytically  !
 ! A13   A(4,5,7)              101.5219         calculate D2E/DX2 analytically  !
 ! A14   A(1,10,3)              94.361          calculate D2E/DX2 analytically  !
 ! A15   A(3,10,9)             125.2229         calculate D2E/DX2 analytically  !
 ! D1    D(8,1,4,5)           -140.233          calculate D2E/DX2 analytically  !
 ! D2    D(9,1,4,5)            101.0714         calculate D2E/DX2 analytically  !
 ! D3    D(10,1,4,5)             3.6438         calculate D2E/DX2 analytically  !
 ! D4    D(4,1,10,3)           -95.8946         calculate D2E/DX2 analytically  !
 ! D5    D(8,1,10,3)            49.1825         calculate D2E/DX2 analytically  !
 ! D6    D(11,2,3,6)           -33.6952         calculate D2E/DX2 analytically  !
 ! D7    D(11,2,3,10)          162.8965         calculate D2E/DX2 analytically  !
 ! D8    D(12,2,3,6)          -174.168          calculate D2E/DX2 analytically  !
 ! D9    D(12,2,3,10)           22.4237         calculate D2E/DX2 analytically  !
 ! D10   D(2,3,10,1)            52.7156         calculate D2E/DX2 analytically  !
 ! D11   D(2,3,10,9)            69.5834         calculate D2E/DX2 analytically  !
 ! D12   D(6,3,10,1)          -119.0156         calculate D2E/DX2 analytically  !
 ! D13   D(6,3,10,9)          -102.1478         calculate D2E/DX2 analytically  !
 ! D14   D(1,4,5,7)           -178.3655         calculate D2E/DX2 analytically  !
 --------------------------------------------------------------------------------
 Trust Radius=3.00D-01 FncErr=1.00D-07 GrdErr=1.00D-06 EigMax=2.50D+02 EigMin=1.00D-04
 Number of steps in this run=    100 maximum allowed number of steps=    100.
 Search for a saddle point of order  1.
 GradGradGradGradGradGradGradGradGradGradGradGradGradGradGradGradGradGrad

                          Input orientation:                          
 ---------------------------------------------------------------------
 Center     Atomic      Atomic             Coordinates (Angstroms)
 Number     Number       Type             X           Y           Z
 ---------------------------------------------------------------------
      1          6           0        1.508885    1.255466   -2.324723
      2          6           0        0.768052    0.691709   -0.314867
      3          6           0        1.112055   -0.516685   -0.778276
      4          8           0        1.410950    2.608211   -2.212036
      5          8           0        0.179008    3.141930   -1.689393
      6          8           0        1.714045   -1.525239   -0.710704
      7          1           0        0.345916    4.090674   -1.733841
      8          1           0        2.514718    0.960528   -2.030433
      9          1           0        1.347581    0.930470   -3.353398
     10          1           0        0.599046   -0.263475   -2.115862
     11          1           0        0.685687    0.974618    0.752259
     12          1           0        0.010848    1.326034   -0.732619
 ---------------------------------------------------------------------
                    Distance matrix (angstroms):
                    1          2          3          4          5
     1  C    0.000000
     2  C    2.214989   0.000000
     3  C    2.385266   1.339142   0.000000
     4  O    1.360959   2.772282   3.451084   0.000000
     5  O    2.393943   2.870519   3.884093   1.440726   0.000000
     6  O    3.221718   2.442631   1.176494   4.408092   5.009654
     7  H    3.120904   3.707378   4.767371   1.886972   0.964339
     8  H    1.088713   2.462980   2.391133   1.991518   3.214088
     9  H    1.090786   3.102504   2.963272   2.030157   3.004169
    10  H    1.782866   2.045611   1.454795   2.985803   3.457613
    11  H    3.197554   1.107059   2.179062   3.461456   3.303881
    12  H    2.187211   1.072494   2.147174   2.406852   2.059411
                    6          7          8          9         10
     6  O    0.000000
     7  H    5.870014   0.000000
     8  H    2.926055   3.819618   0.000000
     9  H    3.626105   3.689605   1.764468   0.000000
    10  H    2.193112   4.378199   2.274924   1.875448   0.000000
    11  H    3.073608   4.000743   3.330004   4.158903   3.125140
    12  H    3.321313   2.959383   2.843814   2.968469   2.187665
                   11         12
    11  H    0.000000
    12  H    1.668461   0.000000
 Stoichiometry    C3H6O3
 Framework group  C1[X(C3H6O3)]
 Deg. of freedom    30
 Full point group                 C1      NOp   1
 Largest Abelian subgroup         C1      NOp   1
 Largest concise Abelian subgroup C1      NOp   1
                         Standard orientation:                         
 ---------------------------------------------------------------------
 Center     Atomic      Atomic             Coordinates (Angstroms)
 Number     Number       Type             X           Y           Z
 ---------------------------------------------------------------------
      1          6           0       -0.405356   -0.963712    0.056344
      2          6           0        0.606570    0.994964   -0.157600
      3          6           0        1.658203    0.228297    0.157980
      4          8           0       -1.657103   -0.596016   -0.331130
      5          8           0       -2.206833    0.600499    0.253542
      6          8           0        2.726073   -0.215181   -0.059093
      7          1           0       -3.082500    0.627064   -0.149511
      8          1           0        0.129197   -1.329052   -0.818913
      9          1           0       -0.438303   -1.767192    0.793330
     10          1           0        0.930304   -0.537813    1.157814
     11          1           0        0.649718    1.957941   -0.702021
     12          1           0       -0.242010    1.177342    0.472394
 ---------------------------------------------------------------------
 Rotational constants (GHZ):           9.4314074           1.6961555           1.4953592
 Standard basis: 6-31+G(d) (6D, 7F)
 There are   126 symmetry adapted cartesian basis functions of A   symmetry.
 There are   126 symmetry adapted basis functions of A   symmetry.
   126 basis functions,   216 primitive gaussians,   126 cartesian basis functions
    24 alpha electrons       24 beta electrons
       nuclear repulsion energy       232.9817938354 Hartrees.
 NAtoms=   12 NActive=   12 NUniq=   12 SFac= 1.00D+00 NAtFMM=   60 NAOKFM=F Big=F
 Integral buffers will be    131072 words long.
 Raffenetti 2 integral format.
 Two-electron integral symmetry is turned on.
 One-electron integrals computed using PRISM.
 NBasis=   126 RedAO= T EigKep=  6.46D-05  NBF=   126
 NBsUse=   126 1.00D-06 EigRej= -1.00D+00 NBFU=   126
 ExpMin= 4.38D-02 ExpMax= 5.48D+03 ExpMxC= 8.25D+02 IAcc=3 IRadAn=         5 AccDes= 0.00D+00
 Harris functional with IExCor=  402 and IRadAn=       5 diagonalized for initial guess.
 HarFok:  IExCor=  402 AccDes= 0.00D+00 IRadAn=         5 IDoV= 1 UseB2=F ITyADJ=14
 ICtDFT=  3500011 ScaDFX=  1.000000  1.000000  1.000000  1.000000
 FoFCou: FMM=F IPFlag=           0 FMFlag=      100000 FMFlg1=           0
         NFxFlg=           0 DoJE=T BraDBF=F KetDBF=T FulRan=T
         wScrn=  0.000000 ICntrl=       500 IOpCl=  0 I1Cent=   200000004 NGrid=           0
         NMat0=    1 NMatS0=      1 NMatT0=    0 NMatD0=    1 NMtDS0=    0 NMtDT0=    0
 Petite list used in FoFCou.
 Keep R1 ints in memory in canonical form, NReq=47237537.
 Requested convergence on RMS density matrix=1.00D-08 within 128 cycles.
 Requested convergence on MAX density matrix=1.00D-06.
 Requested convergence on             energy=1.00D-06.
 No special actions if energy rises.
 SCF Done:  E(RB3LYP) =  -343.298393275     A.U. after   15 cycles
            NFock= 15  Conv=0.27D-08     -V/T= 2.0083
 DoSCS=F DFT=T ScalE2(SS,OS)=  1.000000  1.000000
 Range of M.O.s used for correlation:     1   126
 NBasis=   126 NAE=    24 NBE=    24 NFC=     0 NFV=     0
 NROrb=    126 NOA=    24 NOB=    24 NVA=   102 NVB=   102

 **** Warning!!: The largest alpha MO coefficient is  0.39338685D+02

 Symmetrizing basis deriv contribution to polar:
 IMax=3 JMax=2 DiffMx= 0.00D+00
 G2DrvN: will do    13 centers at a time, making    1 passes.
 Calling FoFCou, ICntrl=  3107 FMM=F I1Cent=   0 AccDes= 0.00D+00.
 End of G2Drv F.D. properties file   721 does not exist.
 End of G2Drv F.D. properties file   722 does not exist.
 End of G2Drv F.D. properties file   788 does not exist.
          IDoAtm=111111111111
          Differentiating once with respect to electric field.
                with respect to dipole field.
          Differentiating once with respect to nuclear coordinates.
 Keep R1 ints in memory in canonical form, NReq=47193559.
          There are    39 degrees of freedom in the 1st order CPHF.  IDoFFX=6 NUNeed=     3.
     36 vectors produced by pass  0 Test12= 6.28D-15 2.56D-09 XBig12= 1.77D+02 9.01D+00.
 AX will form    36 AO Fock derivatives at one time.
     36 vectors produced by pass  1 Test12= 6.28D-15 2.56D-09 XBig12= 6.81D+01 1.41D+00.
     36 vectors produced by pass  2 Test12= 6.28D-15 2.56D-09 XBig12= 7.25D-01 1.18D-01.
     36 vectors produced by pass  3 Test12= 6.28D-15 2.56D-09 XBig12= 2.64D-03 6.35D-03.
     36 vectors produced by pass  4 Test12= 6.28D-15 2.56D-09 XBig12= 4.40D-06 2.74D-04.
     29 vectors produced by pass  5 Test12= 6.28D-15 2.56D-09 XBig12= 4.37D-09 9.12D-06.
      5 vectors produced by pass  6 Test12= 6.28D-15 2.56D-09 XBig12= 3.46D-12 2.30D-07.
      2 vectors produced by pass  7 Test12= 6.28D-15 2.56D-09 XBig12= 3.01D-15 6.91D-09.
 InvSVY:  IOpt=1 It=  1 EMax= 2.66D-15
 Solved reduced A of dimension   216 with    39 vectors.
 Isotropic polarizability for W=    0.000000       65.25 Bohr**3.
 End of Minotr F.D. properties file   721 does not exist.
 End of Minotr F.D. properties file   722 does not exist.
 End of Minotr F.D. properties file   788 does not exist.

 **********************************************************************

            Population analysis using the SCF Density.

 **********************************************************************

 Orbital symmetries:
       Occupied  (A) (A) (A) (A) (A) (A) (A) (A) (A) (A) (A) (A)
                 (A) (A) (A) (A) (A) (A) (A) (A) (A) (A) (A) (A)
       Virtual   (A) (A) (A) (A) (A) (A) (A) (A) (A) (A) (A) (A)
                 (A) (A) (A) (A) (A) (A) (A) (A) (A) (A) (A) (A)
                 (A) (A) (A) (A) (A) (A) (A) (A) (A) (A) (A) (A)
                 (A) (A) (A) (A) (A) (A) (A) (A) (A) (A) (A) (A)
                 (A) (A) (A) (A) (A) (A) (A) (A) (A) (A) (A) (A)
                 (A) (A) (A) (A) (A) (A) (A) (A) (A) (A) (A) (A)
                 (A) (A) (A) (A) (A) (A) (A) (A) (A) (A) (A) (A)
                 (A) (A) (A) (A) (A) (A) (A) (A) (A) (A) (A) (A)
                 (A) (A) (A) (A) (A) (A)
 The electronic state is 1-A.
 Alpha  occ. eigenvalues --  -19.25317 -19.25001 -19.18089 -10.30479 -10.30276
 Alpha  occ. eigenvalues --  -10.21076  -1.16955  -1.08904  -0.97516  -0.79052
 Alpha  occ. eigenvalues --   -0.68908  -0.57462  -0.57022  -0.51968  -0.51124
 Alpha  occ. eigenvalues --   -0.48432  -0.47624  -0.42768  -0.41681  -0.39602
 Alpha  occ. eigenvalues --   -0.37926  -0.29826  -0.26473  -0.24605
 Alpha virt. eigenvalues --   -0.10630  -0.02429  -0.00150   0.01219   0.02486
 Alpha virt. eigenvalues --    0.03448   0.04029   0.05416   0.06757   0.07978
 Alpha virt. eigenvalues --    0.08513   0.09769   0.11081   0.12821   0.13160
 Alpha virt. eigenvalues --    0.14888   0.16233   0.16902   0.19129   0.20066
 Alpha virt. eigenvalues --    0.21315   0.21964   0.23873   0.25378   0.26660
 Alpha virt. eigenvalues --    0.27703   0.28378   0.28956   0.30274   0.30789
 Alpha virt. eigenvalues --    0.31277   0.34136   0.35361   0.37298   0.38836
 Alpha virt. eigenvalues --    0.51678   0.62510   0.66949   0.70436   0.71925
 Alpha virt. eigenvalues --    0.72941   0.75623   0.79267   0.83509   0.85275
 Alpha virt. eigenvalues --    0.91825   0.94558   0.96161   1.00670   1.01605
 Alpha virt. eigenvalues --    1.04063   1.08842   1.11081   1.14276   1.15896
 Alpha virt. eigenvalues --    1.18886   1.21283   1.22804   1.27717   1.28961
 Alpha virt. eigenvalues --    1.30400   1.31093   1.37927   1.41321   1.44763
 Alpha virt. eigenvalues --    1.47910   1.52356   1.56769   1.58681   1.64072
 Alpha virt. eigenvalues --    1.64748   1.74479   1.76376   1.81273   1.82912
 Alpha virt. eigenvalues --    1.87153   1.89990   1.94451   1.97587   1.98986
 Alpha virt. eigenvalues --    2.10106   2.15566   2.15955   2.19745   2.25153
 Alpha virt. eigenvalues --    2.36902   2.43155   2.45000   2.47506   2.55833
 Alpha virt. eigenvalues --    2.78778   2.85430   2.86630   3.02673   3.07244
 Alpha virt. eigenvalues --    3.26615   3.93049   4.20098   4.28301   4.29231
 Alpha virt. eigenvalues --    4.30858   4.59880
          Condensed to atoms (all electrons):
               1          2          3          4          5          6
     1  C    5.385111  -0.031294  -0.053156   0.188690  -0.014998  -0.008167
     2  C   -0.031294   6.143339  -0.033621  -0.034821  -0.025705  -0.118879
     3  C   -0.053156  -0.033621   5.180954  -0.021112   0.008737   0.412671
     4  O    0.188690  -0.034821  -0.021112   8.072984   0.036329   0.000031
     5  O   -0.014998  -0.025705   0.008737   0.036329   8.334537  -0.000199
     6  O   -0.008167  -0.118879   0.412671   0.000031  -0.000199   8.160467
     7  H    0.007246   0.002536  -0.001019  -0.026136   0.189722   0.000004
     8  H    0.380124  -0.069547   0.050618  -0.060729   0.008753  -0.000595
     9  H    0.366108   0.061798  -0.061326  -0.069765   0.003569   0.002974
    10  H    0.199505  -0.239312   0.276440   0.010327  -0.001725  -0.049648
    11  H    0.029806   0.309214  -0.020753   0.000594   0.001626   0.005131
    12  H   -0.036958   0.419494  -0.032089  -0.023732   0.002486   0.003038
               7          8          9         10         11         12
     1  C    0.007246   0.380124   0.366108   0.199505   0.029806  -0.036958
     2  C    0.002536  -0.069547   0.061798  -0.239312   0.309214   0.419494
     3  C   -0.001019   0.050618  -0.061326   0.276440  -0.020753  -0.032089
     4  O   -0.026136  -0.060729  -0.069765   0.010327   0.000594  -0.023732
     5  O    0.189722   0.008753   0.003569  -0.001725   0.001626   0.002486
     6  O    0.000004  -0.000595   0.002974  -0.049648   0.005131   0.003038
     7  H    0.321073  -0.000171  -0.000069  -0.000012  -0.000027   0.000351
     8  H   -0.000171   0.492918  -0.049230  -0.008336  -0.000053   0.000832
     9  H   -0.000069  -0.049230   0.563521  -0.046842  -0.000255   0.000845
    10  H   -0.000012  -0.008336  -0.046842   0.801825   0.007532  -0.014791
    11  H   -0.000027  -0.000053  -0.000255   0.007532   0.511457  -0.045606
    12  H    0.000351   0.000832   0.000845  -0.014791  -0.045606   0.458912
 Mulliken charges:
               1
     1  C   -0.412019
     2  C   -0.383201
     3  C    0.293656
     4  O   -0.072659
     5  O   -0.543130
     6  O   -0.406826
     7  H    0.506501
     8  H    0.255416
     9  H    0.228671
    10  H    0.065038
    11  H    0.201334
    12  H    0.267220
 Sum of Mulliken charges =  -0.00000
 Mulliken charges with hydrogens summed into heavy atoms:
               1
     1  C    0.072068
     2  C    0.085352
     3  C    0.358694
     4  O   -0.072659
     5  O   -0.036629
     6  O   -0.406826
 APT charges:
               1
     1  C    0.721470
     2  C   -0.296702
     3  C    0.986631
     4  O   -0.433986
     5  O   -0.313834
     6  O   -0.821909
     7  H    0.319159
     8  H    0.007912
     9  H   -0.095302
    10  H   -0.204268
    11  H    0.045971
    12  H    0.084857
 Sum of APT charges =  -0.00000
 APT charges with hydrogens summed into heavy atoms:
               1
     1  C    0.634081
     2  C   -0.165874
     3  C    0.782364
     4  O   -0.433986
     5  O    0.005324
     6  O   -0.821909
 Electronic spatial extent (au):  <R**2>=            743.5077
 Charge=             -0.0000 electrons
 Dipole moment (field-independent basis, Debye):
    X=             -3.7714    Y=              0.2602    Z=             -0.3183  Tot=              3.7937
 Quadrupole moment (field-independent basis, Debye-Ang):
   XX=            -39.4073   YY=            -34.2320   ZZ=            -38.0121
   XY=             -0.7912   XZ=              1.2981   YZ=             -1.0308
 Traceless Quadrupole moment (field-independent basis, Debye-Ang):
   XX=             -2.1902   YY=              2.9851   ZZ=             -0.7950
   XY=             -0.7912   XZ=              1.2981   YZ=             -1.0308
 Octapole moment (field-independent basis, Debye-Ang**2):
  XXX=            -73.7780  YYY=             -1.8687  ZZZ=             -2.8691  XYY=             -3.5323
  XXY=             13.0413  XXZ=             -4.3166  XZZ=             -2.5008  YZZ=             -1.7445
  YYZ=             -1.1149  XYZ=              1.7068
 Hexadecapole moment (field-independent basis, Debye-Ang**3):
 XXXX=           -632.0318 YYYY=           -165.4683 ZZZZ=            -65.8902 XXXY=            -25.8025
 XXXZ=             19.9535 YYYX=             -6.2824 YYYZ=             -2.3744 ZZZX=             -1.0576
 ZZZY=              1.6061 XXYY=           -138.9814 XXZZ=           -128.0832 YYZZ=            -37.6501
 XXYZ=             -3.9209 YYXZ=             -2.3445 ZZXY=             -1.8471
 N-N= 2.329817938354D+02 E-N=-1.269875442146D+03  KE= 3.404792444201D+02
  Exact polarizability:  93.016   2.726  59.847  -0.871  -5.365  42.875
 Approx polarizability: 168.557   9.548  95.525  -0.804 -12.476  65.495
 Calling FoFJK, ICntrl=    100127 FMM=F ISym2X=0 I1Cent= 0 IOpClX= 0 NMat=1 NMatS=1 NMatT=0.
 ***** Axes restored to original set *****
 -------------------------------------------------------------------
 Center     Atomic                   Forces (Hartrees/Bohr)
 Number     Number              X              Y              Z
 -------------------------------------------------------------------
      1        6           0.021599774   -0.023796750   -0.018195063
      2        6          -0.030976809    0.056545690    0.060358910
      3        6          -0.033465484   -0.001932232   -0.075889234
      4        8           0.024167962    0.024687076    0.004224687
      5        8          -0.025695182   -0.016398809    0.002049507
      6        8           0.026249520   -0.029599950    0.018985489
      7        1           0.008483259    0.007977009   -0.003451295
      8        1           0.002502917    0.005001343   -0.001449464
      9        1          -0.013130540    0.000993643   -0.001359153
     10        1           0.008794145    0.000023247    0.025629253
     11        1           0.020558365   -0.010620011    0.003998204
     12        1          -0.009087928   -0.012880256   -0.014901841
 -------------------------------------------------------------------
 Cartesian Forces:  Max     0.075889234 RMS     0.024849335
 FormGI is forming the generalized inverse of G from B-inverse, IUseBI=4.

 GradGradGradGradGradGradGradGradGradGradGradGradGradGradGradGradGradGrad
 Berny optimization.
 Internal  Forces:  Max     0.051943362 RMS     0.017269518
 Search for a saddle point.
 Step number   1 out of a maximum of  100
 All quantities printed in internal units (Hartrees-Bohrs-Radians)
 Swapping is turned off.
 Second derivative matrix not updated -- analytic derivatives used.
 ITU=  0
     Eigenvalues ---   -0.31781  -0.02244  -0.00594  -0.00521   0.00459
     Eigenvalues ---    0.00654   0.01716   0.02148   0.03632   0.04329
     Eigenvalues ---    0.05866   0.09304   0.11383   0.12414   0.12875
     Eigenvalues ---    0.14402   0.16306   0.17561   0.18507   0.27756
     Eigenvalues ---    0.30210   0.31812   0.32727   0.35392   0.38675
     Eigenvalues ---    0.41697   0.53426   0.56639   0.66537   1.02189
 Eigenvectors required to have negative eigenvalues:
                          R9        R4        A14       A11       A10
   1                   -0.46607   0.39946  -0.31642   0.29126  -0.28954
                          A3        A15       D9        D11       D3
   1                    0.27320  -0.25966   0.18329  -0.14994   0.14897
 RFO step:  Lambda0=1.153330787D-04 Lambda=-5.82953474D-02.
 Linear search not attempted -- option 19 set.
 Maximum step size (   0.300) exceeded in Quadratic search.
    -- Step size scaled by   0.366
 Iteration  1 RMS(Cart)=  0.15685511 RMS(Int)=  0.01202085
 Iteration  2 RMS(Cart)=  0.01307502 RMS(Int)=  0.00118380
 Iteration  3 RMS(Cart)=  0.00017066 RMS(Int)=  0.00118093
 Iteration  4 RMS(Cart)=  0.00000048 RMS(Int)=  0.00118093
 Variable       Old X    -DE/DX   Delta X   Delta X   Delta X     New X
                                 (Linear)    (Quad)   (Total)
    R1        2.57184   0.01590   0.00000  -0.01406  -0.01406   2.55778
    R2        2.05737   0.00057   0.00000  -0.00224  -0.00224   2.05512
    R3        2.06129  -0.00497   0.00000  -0.00377  -0.00400   2.05729
    R4        3.36913   0.01330   0.00000   0.02509   0.02483   3.39396
    R5        2.53061   0.05194   0.00000   0.02871   0.02871   2.55932
    R6        2.09204  -0.00039   0.00000  -0.01005  -0.01005   2.08198
    R7        2.02672   0.00460   0.00000   0.00534   0.00534   2.03206
    R8        2.22325   0.03990   0.00000   0.03039   0.03039   2.25365
    R9        2.74916  -0.01653   0.00000  -0.19028  -0.19028   2.55889
   R10        2.72258   0.01109   0.00000   0.01739   0.01739   2.73997
   R11        1.82234   0.00948   0.00000   0.00695   0.00695   1.82929
   R12        3.54408   0.00143   0.00000   0.01969   0.02007   3.56416
    A1        1.88954  -0.00190   0.00000   0.00132   0.00043   1.88997
    A2        1.94292  -0.00660   0.00000   0.02515   0.02519   1.96810
    A3        2.49876  -0.00290   0.00000  -0.07094  -0.07129   2.42747
    A4        1.88686   0.01394   0.00000   0.02938   0.02938   1.91624
    A5        1.78135   0.00619   0.00000   0.04083   0.03996   1.82132
    A6        2.19355  -0.01136   0.00000  -0.01743  -0.01737   2.17618
    A7        2.18986  -0.01980   0.00000  -0.03817  -0.03811   2.15175
    A8        1.74344   0.02678   0.00000   0.06730   0.06737   1.81082
    A9        2.65755  -0.03049   0.00000  -0.11172  -0.11255   2.54500
   A10        1.64138   0.03355   0.00000   0.10526   0.10565   1.74703
   A11        1.96324  -0.00346   0.00000   0.01228   0.01303   1.97627
   A12        2.04855  -0.02402   0.00000  -0.04956  -0.04956   1.99899
   A13        1.77189  -0.01384   0.00000  -0.01493  -0.01493   1.75696
   A14        1.64691   0.01385   0.00000   0.07270   0.07286   1.71977
   A15        2.18555   0.01809   0.00000   0.05498   0.05456   2.24012
    D1       -2.44753  -0.00394   0.00000  -0.14699  -0.14712  -2.59465
    D2        1.76403  -0.01593   0.00000  -0.19862  -0.19950   1.56453
    D3        0.06360   0.00201   0.00000  -0.19390  -0.19289  -0.12930
    D4       -1.67368   0.00725   0.00000  -0.00820  -0.00778  -1.68146
    D5        0.85840   0.01158   0.00000  -0.05887  -0.05863   0.79977
    D6       -0.58809   0.01118   0.00000   0.08131   0.07944  -0.50866
    D7        2.84308   0.00607   0.00000   0.01048   0.01232   2.85540
    D8       -3.03981   0.01057   0.00000   0.03455   0.03271  -3.00710
    D9        0.39137   0.00546   0.00000  -0.03628  -0.03440   0.35696
   D10        0.92006   0.02052   0.00000   0.00224   0.00483   0.92489
   D11        1.21446   0.00721   0.00000   0.03513   0.03862   1.25308
   D12       -2.07721   0.02625   0.00000  -0.00068  -0.00417  -2.08139
   D13       -1.78282   0.01294   0.00000   0.03220   0.02961  -1.75320
   D14       -3.11306   0.00025   0.00000  -0.02871  -0.02871   3.14141
         Item               Value     Threshold  Converged?
 Maximum Force            0.051943     0.000450     NO 
 RMS     Force            0.017270     0.000300     NO 
 Maximum Displacement     0.405821     0.001800     NO 
 RMS     Displacement     0.157492     0.001200     NO 
 Predicted change in Energy=-2.418222D-02
 GradGradGradGradGradGradGradGradGradGradGradGradGradGradGradGradGradGrad

                          Input orientation:                          
 ---------------------------------------------------------------------
 Center     Atomic      Atomic             Coordinates (Angstroms)
 Number     Number       Type             X           Y           Z
 ---------------------------------------------------------------------
      1          6           0        1.570474    1.301158   -2.331963
      2          6           0        0.804193    0.666966   -0.200129
      3          6           0        1.026724   -0.505157   -0.841088
      4          8           0        1.442742    2.643158   -2.210567
      5          8           0        0.099454    3.094800   -1.904144
      6          8           0        1.557473   -1.571928   -0.790607
      7          1           0        0.237075    4.052147   -1.864078
      8          1           0        2.570075    1.022685   -2.006448
      9          1           0        1.403705    0.952487   -3.349716
     10          1           0        0.591134   -0.183480   -2.082210
     11          1           0        0.775307    0.787266    0.894640
     12          1           0        0.118434    1.414140   -0.557583
 ---------------------------------------------------------------------
                    Distance matrix (angstroms):
                    1          2          3          4          5
     1  C    0.000000
     2  C    2.352467   0.000000
     3  C    2.404402   1.354334   0.000000
     4  O    1.353519   2.890491   3.458385   0.000000
     5  O    2.358830   3.048722   3.866473   1.449930   0.000000
     6  O    3.260456   2.434900   1.192578   4.449314   5.014393
     7  H    3.092702   3.814420   4.736990   1.886515   0.968017
     8  H    1.087525   2.551012   2.464609   1.984560   3.226158
     9  H    1.088672   3.218825   2.925757   2.039008   2.894868
    10  H    1.796005   2.076266   1.354104   2.954927   3.319726
    11  H    3.362640   1.101738   2.178606   3.678602   3.689809
    12  H    2.295564   1.075318   2.142211   2.448802   2.153650
                    6          7          8          9         10
     6  O    0.000000
     7  H    5.875883   0.000000
     8  H    3.039021   3.826330   0.000000
     9  H    3.597965   3.629881   1.780370   0.000000
    10  H    2.128341   4.255993   2.318789   1.886071   0.000000
    11  H    3.002938   4.308094   3.419492   4.293803   3.136544
    12  H    3.322910   2.946199   2.874542   3.108224   2.258390
                   11         12
    11  H    0.000000
    12  H    1.712719   0.000000
 Stoichiometry    C3H6O3
 Framework group  C1[X(C3H6O3)]
 Deg. of freedom    30
 Full point group                 C1      NOp   1
 Largest Abelian subgroup         C1      NOp   1
 Largest concise Abelian subgroup C1      NOp   1
                         Standard orientation:                         
 ---------------------------------------------------------------------
 Center     Atomic      Atomic             Coordinates (Angstroms)
 Number     Number       Type             X           Y           Z
 ---------------------------------------------------------------------
      1          6           0       -0.464529   -0.964088   -0.037297
      2          6           0        0.718917    1.052925   -0.292667
      3          6           0        1.634769    0.184253    0.198092
      4          8           0       -1.696126   -0.531968   -0.395703
      5          8           0       -2.207546    0.561903    0.406915
      6          8           0        2.722781   -0.284372    0.060750
      7          1           0       -3.069023    0.703467   -0.011264
      8          1           0        0.043894   -1.323443   -0.928970
      9          1           0       -0.496507   -1.753152    0.712077
     10          1           0        0.865359   -0.500442    1.077182
     11          1           0        0.961758    1.969692   -0.853375
     12          1           0       -0.193297    1.300840    0.219887
 ---------------------------------------------------------------------
 Rotational constants (GHZ):           8.8628834           1.6581292           1.4781683
 Standard basis: 6-31+G(d) (6D, 7F)
 There are   126 symmetry adapted cartesian basis functions of A   symmetry.
 There are   126 symmetry adapted basis functions of A   symmetry.
   126 basis functions,   216 primitive gaussians,   126 cartesian basis functions
    24 alpha electrons       24 beta electrons
       nuclear repulsion energy       230.7390302553 Hartrees.
 NAtoms=   12 NActive=   12 NUniq=   12 SFac= 1.00D+00 NAtFMM=   60 NAOKFM=F Big=F
 Integral buffers will be    131072 words long.
 Raffenetti 2 integral format.
 Two-electron integral symmetry is turned on.
 One-electron integrals computed using PRISM.
 NBasis=   126 RedAO= T EigKep=  8.10D-05  NBF=   126
 NBsUse=   126 1.00D-06 EigRej= -1.00D+00 NBFU=   126
 Initial guess from the checkpoint file:  "/scratch/bell/zhao922/YARP/paper-example/KHP-network/pp_0/TS-folder/Gau-21740.chk"
 B after Tr=     0.000000   -0.000000    0.000000
         Rot=    0.999881   -0.009844    0.002150    0.011689 Ang=  -1.77 deg.
 ExpMin= 4.38D-02 ExpMax= 5.48D+03 ExpMxC= 8.25D+02 IAcc=3 IRadAn=         5 AccDes= 0.00D+00
 Harris functional with IExCor=  402 and IRadAn=       5 diagonalized for initial guess.
 HarFok:  IExCor=  402 AccDes= 0.00D+00 IRadAn=         5 IDoV= 1 UseB2=F ITyADJ=14
 ICtDFT=  3500011 ScaDFX=  1.000000  1.000000  1.000000  1.000000
 FoFCou: FMM=F IPFlag=           0 FMFlag=      100000 FMFlg1=           0
         NFxFlg=           0 DoJE=T BraDBF=F KetDBF=T FulRan=T
         wScrn=  0.000000 ICntrl=       500 IOpCl=  0 I1Cent=   200000004 NGrid=           0
         NMat0=    1 NMatS0=      1 NMatT0=    0 NMatD0=    1 NMtDS0=    0 NMtDT0=    0
 Petite list used in FoFCou.
 Keep R1 ints in memory in canonical form, NReq=47237537.
 Requested convergence on RMS density matrix=1.00D-08 within 128 cycles.
 Requested convergence on MAX density matrix=1.00D-06.
 Requested convergence on             energy=1.00D-06.
 No special actions if energy rises.
 SCF Done:  E(RB3LYP) =  -343.322023009     A.U. after   14 cycles
            NFock= 14  Conv=0.44D-08     -V/T= 2.0086
 DoSCS=F DFT=T ScalE2(SS,OS)=  1.000000  1.000000
 Range of M.O.s used for correlation:     1   126
 NBasis=   126 NAE=    24 NBE=    24 NFC=     0 NFV=     0
 NROrb=    126 NOA=    24 NOB=    24 NVA=   102 NVB=   102

 **** Warning!!: The largest alpha MO coefficient is  0.30913173D+02

 Symmetrizing basis deriv contribution to polar:
 IMax=3 JMax=2 DiffMx= 0.00D+00
 G2DrvN: will do    13 centers at a time, making    1 passes.
 Calling FoFCou, ICntrl=  3107 FMM=F I1Cent=   0 AccDes= 0.00D+00.
 End of G2Drv F.D. properties file   721 does not exist.
 End of G2Drv F.D. properties file   722 does not exist.
 End of G2Drv F.D. properties file   788 does not exist.
          IDoAtm=111111111111
          Differentiating once with respect to electric field.
                with respect to dipole field.
          Differentiating once with respect to nuclear coordinates.
 Keep R1 ints in memory in canonical form, NReq=47193566.
          There are    39 degrees of freedom in the 1st order CPHF.  IDoFFX=6 NUNeed=     3.
     36 vectors produced by pass  0 Test12= 6.28D-15 2.56D-09 XBig12= 2.27D+02 1.24D+01.
 AX will form    36 AO Fock derivatives at one time.
     36 vectors produced by pass  1 Test12= 6.28D-15 2.56D-09 XBig12= 9.05D+01 1.69D+00.
     36 vectors produced by pass  2 Test12= 6.28D-15 2.56D-09 XBig12= 1.10D+00 1.45D-01.
     36 vectors produced by pass  3 Test12= 6.28D-15 2.56D-09 XBig12= 4.11D-03 9.81D-03.
     36 vectors produced by pass  4 Test12= 6.28D-15 2.56D-09 XBig12= 7.39D-06 3.66D-04.
     27 vectors produced by pass  5 Test12= 6.28D-15 2.56D-09 XBig12= 7.96D-09 1.16D-05.
      4 vectors produced by pass  6 Test12= 6.28D-15 2.56D-09 XBig12= 6.19D-12 3.04D-07.
      2 vectors produced by pass  7 Test12= 6.28D-15 2.56D-09 XBig12= 5.64D-15 1.01D-08.
 InvSVY:  IOpt=1 It=  1 EMax= 1.78D-15
 Solved reduced A of dimension   213 with    39 vectors.
 Isotropic polarizability for W=    0.000000       67.62 Bohr**3.
 End of Minotr F.D. properties file   721 does not exist.
 End of Minotr F.D. properties file   722 does not exist.
 End of Minotr F.D. properties file   788 does not exist.
 Calling FoFJK, ICntrl=    100127 FMM=F ISym2X=0 I1Cent= 0 IOpClX= 0 NMat=1 NMatS=1 NMatT=0.
 ***** Axes restored to original set *****
 -------------------------------------------------------------------
 Center     Atomic                   Forces (Hartrees/Bohr)
 Number     Number              X              Y              Z
 -------------------------------------------------------------------
      1        6           0.020823016   -0.015158073   -0.019887399
      2        6          -0.022207893    0.035210221    0.051464160
      3        6          -0.024132382    0.006844791   -0.066368952
      4        8           0.016126771    0.015424070    0.013730859
      5        8          -0.018863697   -0.012530935   -0.005641400
      6        8           0.016783681   -0.022905774    0.013360300
      7        1           0.006062511    0.005708506   -0.001126569
      8        1           0.001824412    0.004339419   -0.000474296
      9        1          -0.011857341   -0.000695340   -0.002043061
     10        1           0.005602354    0.000200984    0.030380241
     11        1           0.016359790   -0.009852122    0.000721022
     12        1          -0.006521222   -0.006585747   -0.014114904
 -------------------------------------------------------------------
 Cartesian Forces:  Max     0.066368952 RMS     0.020092494
 FormGI is forming the generalized inverse of G from B-inverse, IUseBI=4.

 GradGradGradGradGradGradGradGradGradGradGradGradGradGradGradGradGradGrad
 Berny optimization.
 Internal  Forces:  Max     0.036297199 RMS     0.012903081
 Search for a saddle point.
 Step number   2 out of a maximum of  100
 All quantities printed in internal units (Hartrees-Bohrs-Radians)
 Swapping is turned off.
 Second derivative matrix not updated -- analytic derivatives used.
 ITU=  0  0
     Eigenvalues ---   -0.21984  -0.01040  -0.00197   0.00090   0.00583
     Eigenvalues ---    0.01447   0.02077   0.02854   0.03903   0.04236
     Eigenvalues ---    0.05416   0.09365   0.11154   0.11902   0.12796
     Eigenvalues ---    0.13423   0.15904   0.16919   0.18146   0.25165
     Eigenvalues ---    0.29324   0.32277   0.33101   0.35824   0.37712
     Eigenvalues ---    0.40518   0.50333   0.52116   0.58418   0.93752
 Eigenvectors required to have negative eigenvalues:
                          R4        R9        A14       A3        A11
   1                    0.46219  -0.45046  -0.29606   0.29346   0.27523
                          A15       A10       D9        D3        D5
   1                   -0.24279  -0.22872   0.17678   0.16989   0.15336
 RFO step:  Lambda0=4.239392175D-04 Lambda=-4.31891543D-02.
 Linear search not attempted -- option 19 set.
 Maximum step size (   0.300) exceeded in Quadratic search.
    -- Step size scaled by   0.347
 Iteration  1 RMS(Cart)=  0.19143406 RMS(Int)=  0.01292944
 Iteration  2 RMS(Cart)=  0.01957840 RMS(Int)=  0.00109578
 Iteration  3 RMS(Cart)=  0.00025610 RMS(Int)=  0.00108990
 Iteration  4 RMS(Cart)=  0.00000016 RMS(Int)=  0.00108990
 Variable       Old X    -DE/DX   Delta X   Delta X   Delta X     New X
                                 (Linear)    (Quad)   (Total)
    R1        2.55778   0.00884   0.00000  -0.02114  -0.02114   2.53664
    R2        2.05512   0.00042   0.00000  -0.00199  -0.00199   2.05314
    R3        2.05729  -0.00248   0.00000  -0.00271  -0.00183   2.05547
    R4        3.39396   0.00972   0.00000   0.05907   0.05820   3.45216
    R5        2.55932   0.03630   0.00000   0.02230   0.02230   2.58162
    R6        2.08198  -0.00079   0.00000  -0.00821  -0.00821   2.07377
    R7        2.03206   0.00427   0.00000   0.00517   0.00517   2.03723
    R8        2.25365   0.02852   0.00000   0.02655   0.02655   2.28019
    R9        2.55889  -0.02068   0.00000  -0.16770  -0.16770   2.39118
   R10        2.73997   0.00830   0.00000   0.02160   0.02160   2.76157
   R11        1.82929   0.00646   0.00000   0.00549   0.00549   1.83478
   R12        3.56416   0.00154   0.00000   0.05977   0.06010   3.62426
    A1        1.88997   0.00011   0.00000   0.01586   0.01441   1.90438
    A2        1.96810  -0.00365   0.00000   0.03600   0.03665   2.00476
    A3        2.42747  -0.00736   0.00000  -0.14031  -0.14067   2.28680
    A4        1.91624   0.01102   0.00000   0.02763   0.02608   1.94232
    A5        1.82132   0.00639   0.00000   0.07883   0.07752   1.89883
    A6        2.17618  -0.00824   0.00000  -0.01616  -0.01617   2.16002
    A7        2.15175  -0.01493   0.00000  -0.02688  -0.02689   2.12486
    A8        1.81082   0.02120   0.00000   0.05839   0.05838   1.86920
    A9        2.54500  -0.02293   0.00000  -0.08331  -0.08374   2.46126
   A10        1.74703   0.02346   0.00000   0.08145   0.08146   1.82849
   A11        1.97627  -0.00037   0.00000   0.00698   0.00714   1.98342
   A12        1.99899  -0.01914   0.00000  -0.04487  -0.04487   1.95412
   A13        1.75696  -0.00981   0.00000  -0.00837  -0.00837   1.74860
   A14        1.71977   0.00943   0.00000   0.05581   0.05840   1.77817
   A15        2.24012   0.01273   0.00000   0.00384   0.00202   2.24213
    D1       -2.59465  -0.00387   0.00000  -0.06149  -0.06193  -2.65658
    D2        1.56453  -0.01551   0.00000  -0.13075  -0.13244   1.43209
    D3       -0.12930  -0.00217   0.00000  -0.10531  -0.10318  -0.23247
    D4       -1.68146   0.00561   0.00000  -0.08820  -0.08787  -1.76933
    D5        0.79977   0.00601   0.00000  -0.14221  -0.14333   0.65644
    D6       -0.50866   0.00997   0.00000   0.06227   0.06128  -0.44738
    D7        2.85540   0.00548   0.00000   0.01154   0.01253   2.86794
    D8       -3.00710   0.00693   0.00000   0.01188   0.01088  -2.99621
    D9        0.35696   0.00245   0.00000  -0.03886  -0.03787   0.31910
   D10        0.92489   0.01555   0.00000   0.01210   0.01502   0.93992
   D11        1.25308   0.00738   0.00000   0.09171   0.09170   1.34478
   D12       -2.08139   0.01742   0.00000  -0.00133  -0.00132  -2.08271
   D13       -1.75320   0.00925   0.00000   0.07829   0.07536  -1.67784
   D14        3.14141   0.00052   0.00000   0.17738   0.17738  -2.96440
         Item               Value     Threshold  Converged?
 Maximum Force            0.036297     0.000450     NO 
 RMS     Force            0.012903     0.000300     NO 
 Maximum Displacement     0.503092     0.001800     NO 
 RMS     Displacement     0.198445     0.001200     NO 
 Predicted change in Energy=-1.752913D-02
 GradGradGradGradGradGradGradGradGradGradGradGradGradGradGradGradGradGrad

                          Input orientation:                          
 ---------------------------------------------------------------------
 Center     Atomic      Atomic             Coordinates (Angstroms)
 Number     Number       Type             X           Y           Z
 ---------------------------------------------------------------------
      1          6           0        1.650839    1.360411   -2.319759
      2          6           0        0.869461    0.626114   -0.091786
      3          6           0        0.922527   -0.471215   -0.903807
      4          8           0        1.451659    2.681240   -2.187133
      5          8           0        0.034756    3.008527   -2.042765
      6          8           0        1.328635   -1.607331   -0.920029
      7          1           0        0.071918    3.974779   -2.130303
      8          1           0        2.637489    1.109557   -1.940261
      9          1           0        1.505094    0.974708   -3.326285
     10          1           0        0.532633   -0.055540   -2.033555
     11          1           0        0.902017    0.576048    1.003979
     12          1           0        0.289762    1.496944   -0.352189
 ---------------------------------------------------------------------
                    Distance matrix (angstroms):
                    1          2          3          4          5
     1  C    0.000000
     2  C    2.472570   0.000000
     3  C    2.426976   1.366135   0.000000
     4  O    1.342331   2.992152   3.444544   0.000000
     5  O    2.324809   3.190445   3.767488   1.461360   0.000000
     6  O    3.297052   2.425924   1.206626   4.473537   4.923495
     7  H    3.060034   4.000648   4.689851   1.892131   0.970921
     8  H    1.086473   2.603171   2.552288   1.984269   3.223478
     9  H    1.087705   3.314744   2.880707   2.052505   2.818818
    10  H    1.826805   2.085322   1.265359   2.891048   3.104266
    11  H    3.496168   1.097392   2.176426   3.862270   3.993964
    12  H    2.396352   1.078056   2.139703   2.473778   2.282095
                    6          7          8          9         10
     6  O    0.000000
     7  H    5.848424   0.000000
     8  H    3.183623   3.850684   0.000000
     9  H    3.533855   3.533383   1.794872   0.000000
    10  H    2.069207   4.057720   2.407608   1.917874   0.000000
    11  H    2.941251   4.697251   3.459052   4.390195   3.124413
    12  H    3.322383   3.057583   2.860745   3.254997   2.301344
                   11         12
    11  H    0.000000
    12  H    1.749885   0.000000
 Stoichiometry    C3H6O3
 Framework group  C1[X(C3H6O3)]
 Deg. of freedom    30
 Full point group                 C1      NOp   1
 Largest Abelian subgroup         C1      NOp   1
 Largest concise Abelian subgroup C1      NOp   1
                         Standard orientation:                         
 ---------------------------------------------------------------------
 Center     Atomic      Atomic             Coordinates (Angstroms)
 Number     Number       Type             X           Y           Z
 ---------------------------------------------------------------------
      1          6           0       -0.532602   -0.963946   -0.177829
      2          6           0        0.838271    1.077633   -0.435247
      3          6           0        1.587514    0.146120    0.225997
      4          8           0       -1.739887   -0.440919   -0.443833
      5          8           0       -2.144326    0.539540    0.561504
      6          8           0        2.684373   -0.356549    0.212931
      7          1           0       -3.071918    0.673109    0.307695
      8          1           0       -0.064088   -1.269247   -1.109339
      9          1           0       -0.535111   -1.774755    0.547213
     10          1           0        0.769340   -0.441071    0.992112
     11          1           0        1.266134    1.921609   -0.991042
     12          1           0       -0.124733    1.394930   -0.068980
 ---------------------------------------------------------------------
 Rotational constants (GHZ):           8.1425210           1.6461546           1.4965995
 Standard basis: 6-31+G(d) (6D, 7F)
 There are   126 symmetry adapted cartesian basis functions of A   symmetry.
 There are   126 symmetry adapted basis functions of A   symmetry.
   126 basis functions,   216 primitive gaussians,   126 cartesian basis functions
    24 alpha electrons       24 beta electrons
       nuclear repulsion energy       229.4082973264 Hartrees.
 NAtoms=   12 NActive=   12 NUniq=   12 SFac= 1.00D+00 NAtFMM=   60 NAOKFM=F Big=F
 Integral buffers will be    131072 words long.
 Raffenetti 2 integral format.
 Two-electron integral symmetry is turned on.
 One-electron integrals computed using PRISM.
 NBasis=   126 RedAO= T EigKep=  1.01D-04  NBF=   126
 NBsUse=   126 1.00D-06 EigRej= -1.00D+00 NBFU=   126
 Initial guess from the checkpoint file:  "/scratch/bell/zhao922/YARP/paper-example/KHP-network/pp_0/TS-folder/Gau-21740.chk"
 B after Tr=     0.000000    0.000000   -0.000000
         Rot=    0.999790   -0.014626    0.001363    0.014322 Ang=  -2.35 deg.
 ExpMin= 4.38D-02 ExpMax= 5.48D+03 ExpMxC= 8.25D+02 IAcc=3 IRadAn=         5 AccDes= 0.00D+00
 Harris functional with IExCor=  402 and IRadAn=       5 diagonalized for initial guess.
 HarFok:  IExCor=  402 AccDes= 0.00D+00 IRadAn=         5 IDoV= 1 UseB2=F ITyADJ=14
 ICtDFT=  3500011 ScaDFX=  1.000000  1.000000  1.000000  1.000000
 FoFCou: FMM=F IPFlag=           0 FMFlag=      100000 FMFlg1=           0
         NFxFlg=           0 DoJE=T BraDBF=F KetDBF=T FulRan=T
         wScrn=  0.000000 ICntrl=       500 IOpCl=  0 I1Cent=   200000004 NGrid=           0
         NMat0=    1 NMatS0=      1 NMatT0=    0 NMatD0=    1 NMtDS0=    0 NMtDT0=    0
 Petite list used in FoFCou.
 Keep R1 ints in memory in canonical form, NReq=47237537.
 Requested convergence on RMS density matrix=1.00D-08 within 128 cycles.
 Requested convergence on MAX density matrix=1.00D-06.
 Requested convergence on             energy=1.00D-06.
 No special actions if energy rises.
 SCF Done:  E(RB3LYP) =  -343.339028199     A.U. after   15 cycles
            NFock= 15  Conv=0.28D-08     -V/T= 2.0088
 DoSCS=F DFT=T ScalE2(SS,OS)=  1.000000  1.000000
 Range of M.O.s used for correlation:     1   126
 NBasis=   126 NAE=    24 NBE=    24 NFC=     0 NFV=     0
 NROrb=    126 NOA=    24 NOB=    24 NVA=   102 NVB=   102

 **** Warning!!: The largest alpha MO coefficient is  0.27431111D+02

 Symmetrizing basis deriv contribution to polar:
 IMax=3 JMax=2 DiffMx= 0.00D+00
 G2DrvN: will do    13 centers at a time, making    1 passes.
 Calling FoFCou, ICntrl=  3107 FMM=F I1Cent=   0 AccDes= 0.00D+00.
 End of G2Drv F.D. properties file   721 does not exist.
 End of G2Drv F.D. properties file   722 does not exist.
 End of G2Drv F.D. properties file   788 does not exist.
          IDoAtm=111111111111
          Differentiating once with respect to electric field.
                with respect to dipole field.
          Differentiating once with respect to nuclear coordinates.
 Keep R1 ints in memory in canonical form, NReq=47193566.
          There are    39 degrees of freedom in the 1st order CPHF.  IDoFFX=6 NUNeed=     3.
     36 vectors produced by pass  0 Test12= 6.28D-15 2.56D-09 XBig12= 2.90D+02 1.35D+01.
 AX will form    36 AO Fock derivatives at one time.
     36 vectors produced by pass  1 Test12= 6.28D-15 2.56D-09 XBig12= 1.14D+02 1.60D+00.
     36 vectors produced by pass  2 Test12= 6.28D-15 2.56D-09 XBig12= 1.47D+00 1.89D-01.
     36 vectors produced by pass  3 Test12= 6.28D-15 2.56D-09 XBig12= 5.46D-03 1.03D-02.
     36 vectors produced by pass  4 Test12= 6.28D-15 2.56D-09 XBig12= 8.87D-06 4.26D-04.
     26 vectors produced by pass  5 Test12= 6.28D-15 2.56D-09 XBig12= 9.41D-09 1.16D-05.
      5 vectors produced by pass  6 Test12= 6.28D-15 2.56D-09 XBig12= 8.64D-12 3.55D-07.
      2 vectors produced by pass  7 Test12= 6.28D-15 2.56D-09 XBig12= 8.29D-15 1.10D-08.
 InvSVY:  IOpt=1 It=  1 EMax= 7.11D-15
 Solved reduced A of dimension   213 with    39 vectors.
 Isotropic polarizability for W=    0.000000       70.00 Bohr**3.
 End of Minotr F.D. properties file   721 does not exist.
 End of Minotr F.D. properties file   722 does not exist.
 End of Minotr F.D. properties file   788 does not exist.
 Calling FoFJK, ICntrl=    100127 FMM=F ISym2X=0 I1Cent= 0 IOpClX= 0 NMat=1 NMatS=1 NMatT=0.
 ***** Axes restored to original set *****
 -------------------------------------------------------------------
 Center     Atomic                   Forces (Hartrees/Bohr)
 Number     Number              X              Y              Z
 -------------------------------------------------------------------
      1        6           0.021064638   -0.011310402   -0.017740077
      2        6          -0.014762075    0.021798757    0.041640006
      3        6          -0.015931973    0.010672131   -0.050864055
      4        8           0.007727981    0.010067312    0.015531662
      5        8          -0.011942418   -0.008888101   -0.006623022
      6        8           0.010380519   -0.018092697    0.008413792
      7        1           0.003617288    0.004228138   -0.001472531
      8        1           0.001265434    0.003869139    0.000609858
      9        1          -0.010843669   -0.001475978   -0.002277816
     10        1           0.001908895    0.000398277    0.025912730
     11        1           0.012099297   -0.008805891   -0.001514200
     12        1          -0.004583918   -0.002460685   -0.011616347
 -------------------------------------------------------------------
 Cartesian Forces:  Max     0.050864055 RMS     0.015528146
 FormGI is forming the generalized inverse of G from B-inverse, IUseBI=4.

 GradGradGradGradGradGradGradGradGradGradGradGradGradGradGradGradGradGrad
 Berny optimization.
 Internal  Forces:  Max     0.025689542 RMS     0.009460107
 Search for a saddle point.
 Step number   3 out of a maximum of  100
 All quantities printed in internal units (Hartrees-Bohrs-Radians)
 Swapping is turned off.
 Second derivative matrix not updated -- analytic derivatives used.
 ITU=  0  0  0
     Eigenvalues ---   -0.14917  -0.00778   0.00059   0.00381   0.00590
     Eigenvalues ---    0.01460   0.02469   0.03506   0.04084   0.04309
     Eigenvalues ---    0.06917   0.09694   0.10978   0.11182   0.12356
     Eigenvalues ---    0.12572   0.14977   0.16970   0.17700   0.22986
     Eigenvalues ---    0.28048   0.31501   0.33967   0.35783   0.36805
     Eigenvalues ---    0.39179   0.48315   0.51067   0.53831   0.87269
 Eigenvectors required to have negative eigenvalues:
                          R4        R9        A14       A3        A11
   1                    0.53187  -0.38377  -0.30142   0.27620   0.25617
                          A15       D3        A10       D9        D5
   1                   -0.24543   0.20086  -0.17907   0.17818   0.16622
 RFO step:  Lambda0=4.916342544D-04 Lambda=-2.85552435D-02.
 Linear search not attempted -- option 19 set.
 Maximum step size (   0.300) exceeded in Quadratic search.
    -- Step size scaled by   0.472
 Iteration  1 RMS(Cart)=  0.19125792 RMS(Int)=  0.01349655
 Iteration  2 RMS(Cart)=  0.02149524 RMS(Int)=  0.00178008
 Iteration  3 RMS(Cart)=  0.00031346 RMS(Int)=  0.00177473
 Iteration  4 RMS(Cart)=  0.00000016 RMS(Int)=  0.00177473
 Variable       Old X    -DE/DX   Delta X   Delta X   Delta X     New X
                                 (Linear)    (Quad)   (Total)
    R1        2.53664   0.00614   0.00000  -0.01744  -0.01744   2.51920
    R2        2.05314   0.00047   0.00000  -0.00204  -0.00204   2.05110
    R3        2.05547  -0.00111   0.00000  -0.00136   0.00104   2.05650
    R4        3.45216   0.00732   0.00000   0.05607   0.05520   3.50736
    R5        2.58162   0.02569   0.00000   0.02315   0.02315   2.60477
    R6        2.07377  -0.00075   0.00000  -0.00726  -0.00726   2.06651
    R7        2.03723   0.00328   0.00000   0.00525   0.00525   2.04248
    R8        2.28019   0.02042   0.00000   0.02355   0.02355   2.30374
    R9        2.39118  -0.01741   0.00000  -0.11639  -0.11639   2.27479
   R10        2.76157   0.00623   0.00000   0.02019   0.02019   2.78176
   R11        1.83478   0.00448   0.00000   0.00509   0.00509   1.83986
   R12        3.62426   0.00151   0.00000   0.07019   0.06968   3.69394
    A1        1.90438   0.00086   0.00000   0.01660   0.01522   1.91960
    A2        2.00476  -0.00248   0.00000   0.03489   0.03520   2.03996
    A3        2.28680  -0.00862   0.00000  -0.18382  -0.18418   2.10262
    A4        1.94232   0.00892   0.00000   0.03754   0.03437   1.97668
    A5        1.89883   0.00545   0.00000   0.10485   0.10302   2.00185
    A6        2.16002  -0.00593   0.00000  -0.02112  -0.02118   2.13884
    A7        2.12486  -0.01080   0.00000  -0.02457  -0.02464   2.10023
    A8        1.86920   0.01623   0.00000   0.06499   0.06492   1.93412
    A9        2.46126  -0.01646   0.00000  -0.06692  -0.06709   2.39417
   A10        1.82849   0.01529   0.00000   0.05926   0.05924   1.88773
   A11        1.98342   0.00135   0.00000   0.01058   0.01062   1.99403
   A12        1.95412  -0.01292   0.00000  -0.03545  -0.03545   1.91867
   A13        1.74860  -0.00652   0.00000  -0.01011  -0.01011   1.73849
   A14        1.77817   0.00506   0.00000   0.03678   0.04089   1.81906
   A15        2.24213   0.00777   0.00000  -0.03819  -0.03990   2.20223
    D1       -2.65658  -0.00356   0.00000  -0.06686  -0.06819  -2.72477
    D2        1.43209  -0.01432   0.00000  -0.15727  -0.15916   1.27293
    D3       -0.23247  -0.00420   0.00000  -0.10668  -0.10345  -0.33592
    D4       -1.76933   0.00364   0.00000  -0.13106  -0.13017  -1.89949
    D5        0.65644   0.00165   0.00000  -0.19678  -0.19982   0.45662
    D6       -0.44738   0.00810   0.00000   0.06264   0.06216  -0.38522
    D7        2.86794   0.00504   0.00000   0.03106   0.03157   2.89951
    D8       -2.99621   0.00412   0.00000   0.00167   0.00116  -2.99505
    D9        0.31910   0.00105   0.00000  -0.02991  -0.02943   0.28967
   D10        0.93992   0.01110   0.00000   0.01935   0.02384   0.96376
   D11        1.34478   0.00682   0.00000   0.10470   0.10155   1.44634
   D12       -2.08271   0.01151   0.00000   0.00827   0.01142  -2.07129
   D13       -1.67784   0.00723   0.00000   0.09362   0.08913  -1.58871
   D14       -2.96440   0.00120   0.00000   0.04000   0.04000  -2.92441
         Item               Value     Threshold  Converged?
 Maximum Force            0.025690     0.000450     NO 
 RMS     Force            0.009460     0.000300     NO 
 Maximum Displacement     0.478081     0.001800     NO 
 RMS     Displacement     0.200880     0.001200     NO 
 Predicted change in Energy=-1.328125D-02
 GradGradGradGradGradGradGradGradGradGradGradGradGradGradGradGradGradGrad

                          Input orientation:                          
 ---------------------------------------------------------------------
 Center     Atomic      Atomic             Coordinates (Angstroms)
 Number     Number       Type             X           Y           Z
 ---------------------------------------------------------------------
      1          6           0        1.737560    1.415081   -2.303433
      2          6           0        0.938297    0.586790   -0.000257
      3          6           0        0.814011   -0.403878   -0.950561
      4          8           0        1.431386    2.705884   -2.172086
      5          8           0       -0.029125    2.882813   -2.222203
      6          8           0        1.075646   -1.590864   -1.044278
      7          1           0       -0.072253    3.850211   -2.323227
      8          1           0        2.709754    1.217754   -1.863002
      9          1           0        1.617871    0.979260   -3.293398
     10          1           0        0.460466    0.107360   -1.981435
     11          1           0        1.030257    0.369520    1.067539
     12          1           0        0.482920    1.554311   -0.157552
 ---------------------------------------------------------------------
                    Distance matrix (angstroms):
                    1          2          3          4          5
     1  C    0.000000
     2  C    2.574782   0.000000
     3  C    2.447818   1.378385   0.000000
     4  O    1.333105   3.074173   3.397631   0.000000
     5  O    2.298263   3.338363   3.623574   1.472042   0.000000
     6  O    3.325554   2.418889   1.219087   4.456518   4.756240
     7  H    3.034086   4.131261   4.557077   1.895589   0.973614
     8  H    1.085393   2.646883   2.656328   1.986024   3.225354
     9  H    1.088254   3.385355   2.836926   2.067208   2.735612
    10  H    1.856013   2.093619   1.203769   2.780533   2.828570
    11  H    3.599573   1.093550   2.172011   4.014308   4.273328
    12  H    2.489640   1.080836   2.138455   2.506802   2.507965
                    6          7          8          9         10
     6  O    0.000000
     7  H    5.706022   0.000000
     8  H    3.350963   3.857616   0.000000
     9  H    3.458047   3.469887   1.815247   0.000000
    10  H    2.034865   3.795991   2.511234   1.954749   0.000000
    11  H    2.881829   4.982773   3.482568   4.442392   3.112817
    12  H    3.321104   3.204609   2.824999   3.384129   2.328244
                   11         12
    11  H    0.000000
    12  H    1.790015   0.000000
 Stoichiometry    C3H6O3
 Framework group  C1[X(C3H6O3)]
 Deg. of freedom    30
 Full point group                 C1      NOp   1
 Largest Abelian subgroup         C1      NOp   1
 Largest concise Abelian subgroup C1      NOp   1
                         Standard orientation:                         
 ---------------------------------------------------------------------
 Center     Atomic      Atomic             Coordinates (Angstroms)
 Number     Number       Type             X           Y           Z
 ---------------------------------------------------------------------
      1          6           0       -0.604432   -0.936406   -0.371019
      2          6           0        0.967789    1.095901   -0.536408
      3          6           0        1.521593    0.106981    0.247993
      4          8           0       -1.770410   -0.300658   -0.487153
      5          8           0       -2.050790    0.461638    0.740528
      6          8           0        2.602557   -0.445531    0.359441
      7          1           0       -2.986563    0.681137    0.585372
      8          1           0       -0.192294   -1.138078   -1.354660
      9          1           0       -0.578549   -1.799772    0.290968
     10          1           0        0.640163   -0.396038    0.895382
     11          1           0        1.573427    1.848118   -1.049461
     12          1           0       -0.016744    1.482194   -0.313518
 ---------------------------------------------------------------------
 Rotational constants (GHZ):           7.3595480           1.6511518           1.5527868
 Standard basis: 6-31+G(d) (6D, 7F)
 There are   126 symmetry adapted cartesian basis functions of A   symmetry.
 There are   126 symmetry adapted basis functions of A   symmetry.
   126 basis functions,   216 primitive gaussians,   126 cartesian basis functions
    24 alpha electrons       24 beta electrons
       nuclear repulsion energy       228.6797746366 Hartrees.
 NAtoms=   12 NActive=   12 NUniq=   12 SFac= 1.00D+00 NAtFMM=   60 NAOKFM=F Big=F
 Integral buffers will be    131072 words long.
 Raffenetti 2 integral format.
 Two-electron integral symmetry is turned on.
 One-electron integrals computed using PRISM.
 NBasis=   126 RedAO= T EigKep=  1.17D-04  NBF=   126
 NBsUse=   126 1.00D-06 EigRej= -1.00D+00 NBFU=   126
 Initial guess from the checkpoint file:  "/scratch/bell/zhao922/YARP/paper-example/KHP-network/pp_0/TS-folder/Gau-21740.chk"
 B after Tr=    -0.000000   -0.000000   -0.000000
         Rot=    0.999267   -0.034261    0.001368    0.017012 Ang=  -4.39 deg.
 ExpMin= 4.38D-02 ExpMax= 5.48D+03 ExpMxC= 8.25D+02 IAcc=3 IRadAn=         5 AccDes= 0.00D+00
 Harris functional with IExCor=  402 and IRadAn=       5 diagonalized for initial guess.
 HarFok:  IExCor=  402 AccDes= 0.00D+00 IRadAn=         5 IDoV= 1 UseB2=F ITyADJ=14
 ICtDFT=  3500011 ScaDFX=  1.000000  1.000000  1.000000  1.000000
 FoFCou: FMM=F IPFlag=           0 FMFlag=      100000 FMFlg1=           0
         NFxFlg=           0 DoJE=T BraDBF=F KetDBF=T FulRan=T
         wScrn=  0.000000 ICntrl=       500 IOpCl=  0 I1Cent=   200000004 NGrid=           0
         NMat0=    1 NMatS0=      1 NMatT0=    0 NMatD0=    1 NMtDS0=    0 NMtDT0=    0
 Petite list used in FoFCou.
 Keep R1 ints in memory in canonical form, NReq=47237537.
 Requested convergence on RMS density matrix=1.00D-08 within 128 cycles.
 Requested convergence on MAX density matrix=1.00D-06.
 Requested convergence on             energy=1.00D-06.
 No special actions if energy rises.
 SCF Done:  E(RB3LYP) =  -343.351949726     A.U. after   15 cycles
            NFock= 15  Conv=0.36D-08     -V/T= 2.0089
 DoSCS=F DFT=T ScalE2(SS,OS)=  1.000000  1.000000
 Range of M.O.s used for correlation:     1   126
 NBasis=   126 NAE=    24 NBE=    24 NFC=     0 NFV=     0
 NROrb=    126 NOA=    24 NOB=    24 NVA=   102 NVB=   102

 **** Warning!!: The largest alpha MO coefficient is  0.28558558D+02

 Symmetrizing basis deriv contribution to polar:
 IMax=3 JMax=2 DiffMx= 0.00D+00
 G2DrvN: will do    13 centers at a time, making    1 passes.
 Calling FoFCou, ICntrl=  3107 FMM=F I1Cent=   0 AccDes= 0.00D+00.
 End of G2Drv F.D. properties file   721 does not exist.
 End of G2Drv F.D. properties file   722 does not exist.
 End of G2Drv F.D. properties file   788 does not exist.
          IDoAtm=111111111111
          Differentiating once with respect to electric field.
                with respect to dipole field.
          Differentiating once with respect to nuclear coordinates.
 Keep R1 ints in memory in canonical form, NReq=47193566.
          There are    39 degrees of freedom in the 1st order CPHF.  IDoFFX=6 NUNeed=     3.
     36 vectors produced by pass  0 Test12= 6.28D-15 2.56D-09 XBig12= 3.53D+02 1.41D+01.
 AX will form    36 AO Fock derivatives at one time.
     36 vectors produced by pass  1 Test12= 6.28D-15 2.56D-09 XBig12= 1.28D+02 2.12D+00.
     36 vectors produced by pass  2 Test12= 6.28D-15 2.56D-09 XBig12= 1.59D+00 2.07D-01.
     36 vectors produced by pass  3 Test12= 6.28D-15 2.56D-09 XBig12= 6.60D-03 1.22D-02.
     36 vectors produced by pass  4 Test12= 6.28D-15 2.56D-09 XBig12= 9.89D-06 5.23D-04.
     27 vectors produced by pass  5 Test12= 6.28D-15 2.56D-09 XBig12= 8.66D-09 1.13D-05.
      4 vectors produced by pass  6 Test12= 6.28D-15 2.56D-09 XBig12= 8.10D-12 3.45D-07.
      3 vectors produced by pass  7 Test12= 6.28D-15 2.56D-09 XBig12= 6.25D-15 1.39D-08.
 InvSVY:  IOpt=1 It=  1 EMax= 3.55D-15
 Solved reduced A of dimension   214 with    39 vectors.
 Isotropic polarizability for W=    0.000000       72.03 Bohr**3.
 End of Minotr F.D. properties file   721 does not exist.
 End of Minotr F.D. properties file   722 does not exist.
 End of Minotr F.D. properties file   788 does not exist.
 Calling FoFJK, ICntrl=    100127 FMM=F ISym2X=0 I1Cent= 0 IOpClX= 0 NMat=1 NMatS=1 NMatT=0.
 ***** Axes restored to original set *****
 -------------------------------------------------------------------
 Center     Atomic                   Forces (Hartrees/Bohr)
 Number     Number              X              Y              Z
 -------------------------------------------------------------------
      1        6           0.019030593   -0.008134318   -0.013172034
      2        6          -0.008972300    0.011565040    0.027388827
      3        6          -0.006989652    0.007914303   -0.031964045
      4        8           0.000132482    0.005035772    0.013835891
      5        8          -0.005493127   -0.004628460   -0.007317302
      6        8           0.005210975   -0.011389739    0.004543176
      7        1           0.001848445    0.002540735   -0.000938375
      8        1           0.000715713    0.003363679    0.001214311
      9        1          -0.008798144   -0.001537131   -0.001326190
     10        1          -0.001903579    0.001695949    0.017653297
     11        1           0.007642511   -0.006257463   -0.002383740
     12        1          -0.002423917   -0.000168369   -0.007533816
 -------------------------------------------------------------------
 Cartesian Forces:  Max     0.031964045 RMS     0.010258497
 FormGI is forming the generalized inverse of G from B-inverse, IUseBI=4.

 GradGradGradGradGradGradGradGradGradGradGradGradGradGradGradGradGradGrad
 Berny optimization.
 Internal  Forces:  Max     0.015400044 RMS     0.005887469
 Search for a saddle point.
 Step number   4 out of a maximum of  100
 All quantities printed in internal units (Hartrees-Bohrs-Radians)
 Swapping is turned off.
 Second derivative matrix not updated -- analytic derivatives used.
 ITU=  0  0  0  0
     Eigenvalues ---   -0.10128  -0.00512   0.00210   0.00366   0.00852
     Eigenvalues ---    0.01373   0.02620   0.03511   0.03580   0.04052
     Eigenvalues ---    0.08812   0.09934   0.10528   0.11371   0.11847
     Eigenvalues ---    0.12888   0.13760   0.16747   0.17400   0.22113
     Eigenvalues ---    0.26202   0.31352   0.34287   0.35252   0.36946
     Eigenvalues ---    0.38096   0.48768   0.49819   0.50181   0.81793
 Eigenvectors required to have negative eigenvalues:
                          R4        A14       R9        A15       D3
   1                   -0.59019   0.31905   0.29717   0.27374  -0.24062
                          A11       A3        D7        D9        D5
   1                   -0.22776  -0.20556  -0.18872  -0.18661  -0.15935
 RFO step:  Lambda0=3.542529977D-04 Lambda=-1.73093891D-02.
 Linear search not attempted -- option 19 set.
 Maximum step size (   0.300) exceeded in Quadratic search.
    -- Step size scaled by   0.502
 Iteration  1 RMS(Cart)=  0.19680562 RMS(Int)=  0.01772885
 Iteration  2 RMS(Cart)=  0.03419411 RMS(Int)=  0.00298573
 Iteration  3 RMS(Cart)=  0.00093720 RMS(Int)=  0.00295523
 Iteration  4 RMS(Cart)=  0.00000506 RMS(Int)=  0.00295523
 Iteration  5 RMS(Cart)=  0.00000003 RMS(Int)=  0.00295523
 Variable       Old X    -DE/DX   Delta X   Delta X   Delta X     New X
                                 (Linear)    (Quad)   (Total)
    R1        2.51920   0.00421   0.00000  -0.01474  -0.01474   2.50447
    R2        2.05110   0.00052   0.00000  -0.00253  -0.00253   2.04856
    R3        2.05650  -0.00042   0.00000  -0.00153   0.00301   2.05951
    R4        3.50736   0.00475   0.00000   0.03343   0.03248   3.53984
    R5        2.60477   0.01540   0.00000   0.01571   0.01571   2.62048
    R6        2.06651  -0.00044   0.00000  -0.00435  -0.00435   2.06216
    R7        2.04248   0.00197   0.00000   0.00343   0.00343   2.04591
    R8        2.30374   0.01186   0.00000   0.01452   0.01452   2.31826
    R9        2.27479  -0.01085   0.00000  -0.05397  -0.05397   2.22083
   R10        2.78176   0.00365   0.00000   0.00731   0.00731   2.78907
   R11        1.83986   0.00254   0.00000   0.00324   0.00324   1.84310
   R12        3.69394   0.00116   0.00000   0.08420   0.08260   3.77654
    A1        1.91960   0.00091   0.00000   0.01159   0.01112   1.93071
    A2        2.03996  -0.00203   0.00000   0.02867   0.02893   2.06888
    A3        2.10262  -0.00715   0.00000  -0.21245  -0.21234   1.89027
    A4        1.97668   0.00643   0.00000   0.03793   0.03364   2.01033
    A5        2.00185   0.00341   0.00000   0.11968   0.11673   2.11858
    A6        2.13884  -0.00363   0.00000  -0.01725  -0.01744   2.12139
    A7        2.10023  -0.00624   0.00000  -0.00931  -0.00950   2.09072
    A8        1.93412   0.01035   0.00000   0.04745   0.04723   1.98135
    A9        2.39417  -0.00973   0.00000  -0.04013  -0.04017   2.35399
   A10        1.88773   0.00746   0.00000   0.03129   0.03128   1.91901
   A11        1.99403   0.00236   0.00000   0.01003   0.01004   2.00407
   A12        1.91867  -0.00614   0.00000  -0.01880  -0.01880   1.89987
   A13        1.73849  -0.00358   0.00000  -0.00545  -0.00545   1.73304
   A14        1.81906   0.00086   0.00000   0.01564   0.02045   1.83951
   A15        2.20223   0.00247   0.00000  -0.09145  -0.09173   2.11051
    D1       -2.72477  -0.00364   0.00000  -0.10607  -0.10891  -2.83369
    D2        1.27293  -0.01200   0.00000  -0.19896  -0.20117   1.07176
    D3       -0.33592  -0.00520   0.00000  -0.14169  -0.13663  -0.47255
    D4       -1.89949   0.00100   0.00000  -0.17947  -0.17774  -2.07723
    D5        0.45662  -0.00190   0.00000  -0.26833  -0.27328   0.18334
    D6       -0.38522   0.00574   0.00000   0.04993   0.04983  -0.33539
    D7        2.89951   0.00419   0.00000   0.03554   0.03572   2.93523
    D8       -2.99505   0.00170   0.00000  -0.01071  -0.01089  -3.00594
    D9        0.28967   0.00015   0.00000  -0.02510  -0.02500   0.26467
   D10        0.96376   0.00664   0.00000   0.00721   0.01475   0.97851
   D11        1.44634   0.00469   0.00000   0.08490   0.07771   1.52405
   D12       -2.07129   0.00672   0.00000   0.00165   0.00884  -2.06245
   D13       -1.58871   0.00478   0.00000   0.07934   0.07180  -1.51691
   D14       -2.92441   0.00129   0.00000   0.01118   0.01118  -2.91323
         Item               Value     Threshold  Converged?
 Maximum Force            0.015400     0.000450     NO 
 RMS     Force            0.005887     0.000300     NO 
 Maximum Displacement     0.526915     0.001800     NO 
 RMS     Displacement     0.223191     0.001200     NO 
 Predicted change in Energy=-9.015450D-03
 GradGradGradGradGradGradGradGradGradGradGradGradGradGradGradGradGradGrad

                          Input orientation:                          
 ---------------------------------------------------------------------
 Center     Atomic      Atomic             Coordinates (Angstroms)
 Number     Number       Type             X           Y           Z
 ---------------------------------------------------------------------
      1          6           0        1.807696    1.471330   -2.258652
      2          6           0        1.026799    0.526520    0.072402
      3          6           0        0.706665   -0.319703   -0.978478
      4          8           0        1.368867    2.716653   -2.144480
      5          8           0       -0.075889    2.742695   -2.445004
      6          8           0        0.796814   -1.527140   -1.175788
      7          1           0       -0.200344    3.705665   -2.536994
      8          1           0        2.762260    1.355489   -1.758095
      9          1           0        1.729259    0.978403   -3.227485
     10          1           0        0.378604    0.310127   -1.914860
     11          1           0        1.171739    0.148724    1.085853
     12          1           0        0.724322    1.565478    0.037687
 ---------------------------------------------------------------------
                    Distance matrix (angstroms):
                    1          2          3          4          5
     1  C    0.000000
     2  C    2.633682   0.000000
     3  C    2.461486   1.386696   0.000000
     4  O    1.325306   3.135006   3.319267   0.000000
     5  O    2.280128   3.530536   3.484447   1.475910   0.000000
     6  O    3.344443   2.414206   1.226770   4.390375   4.539164
     7  H    3.016944   4.292062   4.410808   1.895953   0.975327
     8  H    1.084052   2.655134   2.763973   1.985851   3.232843
     9  H    1.089848   3.403954   2.790844   2.079495   2.642643
    10  H    1.873203   2.101474   1.175211   2.612416   2.530811
    11  H    3.652320   1.091247   2.167297   4.131364   4.555459
    12  H    2.540814   1.082651   2.141684   2.550000   2.861805
                    6          7          8          9         10
     6  O    0.000000
     7  H    5.498132   0.000000
     8  H    3.537176   3.860963   0.000000
     9  H    3.369964   3.411467   1.835318   0.000000
    10  H    2.024025   3.500273   2.607523   1.998461   0.000000
    11  H    2.839738   5.259226   3.474778   4.427649   3.107956
    12  H    3.322960   3.473383   2.724357   3.466397   2.346885
                   11         12
    11  H    0.000000
    12  H    1.818247   0.000000
 Stoichiometry    C3H6O3
 Framework group  C1[X(C3H6O3)]
 Deg. of freedom    30
 Full point group                 C1      NOp   1
 Largest Abelian subgroup         C1      NOp   1
 Largest concise Abelian subgroup C1      NOp   1
                         Standard orientation:                         
[...]
   A13        1.73361   0.00000   0.00000   0.00000   0.00000   1.73361
   A14        1.67756   0.00000   0.00000  -0.00000  -0.00000   1.67756
   A15        1.72128   0.00000   0.00000   0.00000   0.00000   1.72129
    D1        3.06562   0.00000   0.00000   0.00000   0.00000   3.06562
    D2        0.57388  -0.00000   0.00000  -0.00000  -0.00000   0.57388
    D3       -0.96316  -0.00000   0.00000  -0.00000  -0.00000  -0.96316
    D4       -2.54158   0.00000   0.00000   0.00001   0.00001  -2.54158
    D5       -0.43461   0.00000   0.00000   0.00001   0.00001  -0.43460
    D6       -0.24531   0.00000   0.00000  -0.00000  -0.00000  -0.24531
    D7        2.85940  -0.00000   0.00000  -0.00000  -0.00000   2.85940
    D8        3.14148   0.00000   0.00000  -0.00000  -0.00000   3.14147
    D9       -0.03701  -0.00000   0.00000  -0.00000  -0.00000  -0.03701
   D10        1.46016  -0.00000   0.00000   0.00000   0.00000   1.46016
   D11        2.01946  -0.00000   0.00000   0.00000   0.00000   2.01946
   D12       -1.71075  -0.00000   0.00000   0.00000   0.00000  -1.71075
   D13       -1.15145  -0.00000   0.00000   0.00000   0.00000  -1.15145
   D14        2.89964   0.00000   0.00000   0.00002   0.00002   2.89966
         Item               Value     Threshold  Converged?
 Maximum Force            0.000000     0.000450     YES
 RMS     Force            0.000000     0.000300     YES
 Maximum Displacement     0.000025     0.001800     YES
 RMS     Displacement     0.000008     0.001200     YES
 Predicted change in Energy=-1.887495D-12
 Optimization completed.
    -- Stationary point found.
                           ----------------------------
                           !   Optimized Parameters   !
                           ! (Angstroms and Degrees)  !
 --------------------------                            --------------------------
 ! Name  Definition              Value          Derivative Info.                !
 --------------------------------------------------------------------------------
 ! R1    R(1,4)                  1.3305         -DE/DX =    0.0                 !
 ! R2    R(1,8)                  1.0822         -DE/DX =    0.0                 !
 ! R3    R(1,9)                  1.0877         -DE/DX =    0.0                 !
 ! R4    R(1,10)                 1.8555         -DE/DX =    0.0                 !
 ! R5    R(2,3)                  1.3918         -DE/DX =    0.0                 !
 ! R6    R(2,11)                 1.0878         -DE/DX =    0.0                 !
 ! R7    R(2,12)                 1.085          -DE/DX =    0.0                 !
 ! R8    R(3,6)                  1.2367         -DE/DX =    0.0                 !
 ! R9    R(3,10)                 1.1595         -DE/DX =    0.0                 !
 ! R10   R(4,5)                  1.456          -DE/DX =    0.0                 !
 ! R11   R(5,7)                  0.9768         -DE/DX =    0.0                 !
 ! R12   R(9,10)                 2.0483         -DE/DX =    0.0                 !
 ! A1    A(4,1,8)              109.9501         -DE/DX =    0.0                 !
 ! A2    A(4,1,9)              118.4296         -DE/DX =    0.0                 !
 ! A3    A(4,1,10)              99.3443         -DE/DX =    0.0                 !
 ! A4    A(8,1,9)              119.7159         -DE/DX =    0.0                 !
 ! A5    A(8,1,10)             122.0334         -DE/DX =    0.0                 !
 ! A6    A(3,2,11)             121.1457         -DE/DX =    0.0                 !
 ! A7    A(3,2,12)             118.9914         -DE/DX =    0.0                 !
 ! A8    A(11,2,12)            118.3943         -DE/DX =    0.0                 !
 ! A9    A(2,3,6)              134.9769         -DE/DX =    0.0                 !
 ! A10   A(2,3,10)             107.8846         -DE/DX =    0.0                 !
 ! A11   A(6,3,10)             117.1091         -DE/DX =    0.0                 !
 ! A12   A(1,4,5)              108.2823         -DE/DX =    0.0                 !
 ! A13   A(4,5,7)               99.3287         -DE/DX =    0.0                 !
 ! A14   A(1,10,3)              96.1173         -DE/DX =    0.0                 !
 ! A15   A(3,10,9)              98.6223         -DE/DX =    0.0                 !
 ! D1    D(8,1,4,5)            175.647          -DE/DX =    0.0                 !
 ! D2    D(9,1,4,5)             32.8811         -DE/DX =    0.0                 !
 ! D3    D(10,1,4,5)           -55.1852         -DE/DX =    0.0                 !
 ! D4    D(4,1,10,3)          -145.6219         -DE/DX =    0.0                 !
 ! D5    D(8,1,10,3)           -24.9013         -DE/DX =    0.0                 !
 ! D6    D(11,2,3,6)           -14.0549         -DE/DX =    0.0                 !
 ! D7    D(11,2,3,10)          163.8315         -DE/DX =    0.0                 !
 ! D8    D(12,2,3,6)           179.9933         -DE/DX =    0.0                 !
 ! D9    D(12,2,3,10)           -2.1203         -DE/DX =    0.0                 !
 ! D10   D(2,3,10,1)            83.6608         -DE/DX =    0.0                 !
 ! D11   D(2,3,10,9)           115.7063         -DE/DX =    0.0                 !
 ! D12   D(6,3,10,1)           -98.0186         -DE/DX =    0.0                 !
 ! D13   D(6,3,10,9)           -65.9732         -DE/DX =    0.0                 !
 ! D14   D(1,4,5,7)            166.137          -DE/DX =    0.0                 !
 --------------------------------------------------------------------------------
 GradGradGradGradGradGradGradGradGradGradGradGradGradGradGradGradGradGrad


 ----------------------------------------------------------------------

 Electric dipole moment (input orientation):
 (Debye = 10**-18 statcoulomb cm , SI units = C m)
                  (au)            (Debye)         (10**-30 SI)
   Tot        0.244049D+01      0.620310D+01      0.206913D+02
   x          0.175675D+00      0.446521D+00      0.148943D+01
   y          0.242168D+01      0.615530D+01      0.205319D+02
   z         -0.246134D+00     -0.625610D+00     -0.208681D+01

 Dipole polarizability, Alpha (input orientation).
 (esu units = cm**3 , SI units = C**2 m**2 J**-1)
 Alpha(0;0):
               (au)            (10**-24 esu)      (10**-40 SI)
   iso        0.726259D+02      0.107620D+02      0.119744D+02
   aniso      0.517264D+02      0.766506D+01      0.852853D+01
   xx         0.479326D+02      0.710288D+01      0.790302D+01
   yx         0.692129D+00      0.102563D+00      0.114117D+00
   yy         0.825154D+02      0.122275D+02      0.136050D+02
   zx        -0.144390D+00     -0.213964D-01     -0.238067D-01
   zy        -0.206886D+02     -0.306573D+01     -0.341109D+01
   zz         0.874297D+02      0.129557D+02      0.144152D+02

 ----------------------------------------------------------------------

 Dipole orientation:
     6          2.78305305          4.05739301          3.42685743
     6          1.98840949         -0.45954321          0.81298235
     6          1.29446048          1.93084427         -0.03652295
     8          1.80030726          3.81300949          5.72823406
     8         -0.58197757          5.18778394          5.79991588
     8          1.62666087          3.14500678         -2.00560262
     1         -1.27450624          4.50477547          7.36873226
     1          4.62672091          3.17525435          3.35815606
     1          2.45262405          5.80854593          2.40261943
     1          0.08375488          2.87528816          1.52667420
     1          2.70067561         -1.88436829         -0.48638025
     1          1.41759073         -1.05113096          2.69134975

 Electric dipole moment (dipole orientation):
 (Debye = 10**-18 statcoulomb cm , SI units = C m)
                  (au)            (Debye)         (10**-30 SI)
   Tot        0.244049D+01      0.620310D+01      0.206913D+02
   x          0.000000D+00      0.000000D+00      0.000000D+00
   y          0.000000D+00      0.000000D+00      0.000000D+00
   z          0.244049D+01      0.620310D+01      0.206913D+02

 Dipole polarizability, Alpha (dipole orientation).
 (esu units = cm**3 , SI units = C**2 m**2 J**-1)
 Alpha(0;0):
               (au)            (10**-24 esu)      (10**-40 SI)
   iso        0.726259D+02      0.107620D+02      0.119744D+02
   aniso      0.517264D+02      0.766506D+01      0.852853D+01
   xx         0.483661D+02      0.716711D+01      0.797448D+01
   yx        -0.369289D+01     -0.547229D+00     -0.608875D+00
   yy         0.828836D+02      0.122821D+02      0.136657D+02
   zx        -0.343242D+01     -0.508632D+00     -0.565929D+00
   zy         0.205315D+02      0.304246D+01      0.338519D+01
   zz         0.866281D+02      0.128370D+02      0.142830D+02

 ----------------------------------------------------------------------
 1\1\GINC-BELL-A064\Freq\RB3LYP\6-31+G(d)\C3H6O3\ZHAO922\23-Dec-2020\0\
 \#N Geom=AllCheck Guess=TCheck SCRF=Check GenChk RB3LYP/6-31+G(d) Freq
 \\pp_3_0 TS\\0,1\C,1.7356451954,1.477234022,-2.2074124015\C,1.06245773
 79,0.3842935308,0.2736596348\C,0.7466802009,-0.1714823264,-0.962626956
 2\O,1.2973193895,2.7330796428,-2.2393455842\O,0.0925365181,2.775721163
 4,-3.0558102769\O,0.8883283804,-1.2846746318,-1.4824391724\H,-0.235901
 0217,3.6614370412,-2.8072702959\H,2.6737742922,1.4271323422,-1.6703064
 544\H,1.5827242931,0.8529325059,-3.0848647621\H,0.2009913962,0.6381643
 691,-1.5880994428\H,1.3391810573,-0.2428652649,1.1183125389\H,0.813053
 5607,1.4232686058,0.4623101726\\Version=ES64L-G16RevB.01\State=1-A\HF=
 -343.3701661\RMSD=1.540e-09\RMSF=4.048e-07\ZeroPoint=0.0865197\Thermal
 =0.0942782\Dipole=0.175675,2.4216822,-0.2461338\DipoleDeriv=0.1734274,
 0.1714544,0.0268651,0.1055803,1.4255895,-1.0417848,-0.1005825,-0.35140
 41,0.7279796,-0.3818721,-0.3148257,0.0678538,-0.1490963,-0.2303904,-0.
 0077874,0.0271378,-0.3234126,-0.1300908,0.0353335,-0.3285867,-0.054418
 8,0.0670971,1.9406104,0.452298,0.2436373,0.6892183,-0.1571137,0.025607
 3,-0.1594306,0.1349684,-0.190295,-1.3963174,0.8789299,0.1017836,0.0485
 923,-0.1863361,-0.3496962,0.3665914,-0.2471148,0.0789145,-0.219252,0.1
 349181,-0.0243518,0.1925895,-0.2606216,-0.3397702,0.2675322,0.1047737,
 -0.0974315,-1.634494,-0.3492834,-0.0870325,-0.5729067,-0.4303749,0.319
 1152,-0.0264572,-0.0180439,-0.0240232,0.3362622,-0.1404491,-0.0480941,
 -0.061236,0.284018,0.085871,-0.0184262,0.0713237,-0.0107014,0.0303461,
 0.0718752,0.0524526,0.0322522,-0.0306623,0.063466,-0.1753843,0.1402298
 ,0.0037661,-0.0190893,0.078288,0.0040892,0.0884623,-0.0335743,0.036844
 2,0.0153932,-0.2166714,0.1135775,-0.2227798,-0.0883834,-0.0656918,0.18
 01409,0.2135524,0.2014675,0.1270336,-0.0628084,0.0466865,0.0375117,0.0
 509688,-0.0640211,0.0328387,-0.0070417,0.1302065,0.0751061,0.0530428,0
 .0559254,-0.047997,-0.0395899,-0.0393267,0.0448653,0.0102653\Polar=47.
 9326226,0.6921287,82.5153956,-0.1443899,-20.6885875,87.4296558\Quadrup
 ole=2.3908642,-3.628959,1.2380948,-3.0562508,0.3944248,-1.1806978\PG=C
 01 [X(C3H6O3)]\NImag=1\\0.46181054,-0.11112936,0.51402336,0.23210429,0
 .17354263,0.45571341,-0.01662283,-0.00579784,0.00289023,0.13917620,-0.
 00422452,0.00784140,-0.00037914,-0.11197740,0.63827755,-0.01274630,0.0
 0259486,-0.00327874,0.13326024,0.04637789,0.64972938,0.02461100,0.0280
 2290,0.00974071,-0.05134939,-0.01000438,-0.06329856,0.18372182,-0.0337
 3958,-0.02668392,0.00153554,0.00724798,-0.13048463,-0.10114368,-0.0800
 5108,0.69261132,0.05781557,-0.01016286,-0.00071880,-0.04990298,-0.0958
 4138,-0.30918858,0.04862739,0.28730245,0.55905950,-0.08935803,0.083427
 65,-0.01825856,0.00010414,0.00181752,0.00164171,0.00107568,-0.00060398
 ,-0.00689277,0.25633378,0.06817485,-0.32313714,-0.05744584,0.00079004,
 -0.00519414,-0.00135265,-0.01062137,0.01501792,0.00354038,-0.10988982,
 0.45346198,-0.03169333,-0.00784994,-0.07447833,-0.00021812,0.00001403,
 -0.00102074,-0.00123081,-0.00496549,0.00645315,0.12768651,0.03251778,0
 .14288791,-0.03595610,0.01400808,-0.01864406,0.00252361,0.00134629,0.0
 0162432,-0.00080612,0.00018029,-0.00762545,-0.13899609,-0.00040855,-0.
 10001385,0.23546630,0.05417738,-0.00185195,0.03646086,-0.00038815,-0.0
 0061026,-0.00031193,0.00134919,0.00134851,0.00150903,0.00601204,-0.081
 96371,-0.02171455,-0.16498970,0.49409485,-0.00941876,0.00806854,-0.001
 15861,-0.00018952,0.00057233,0.00051710,-0.00051198,-0.00011619,-0.002
 79962,-0.08682040,-0.02741004,-0.08555432,0.08210845,0.13611763,0.1394
 9767,-0.00305844,-0.00900414,-0.00095593,0.01515842,-0.01095718,-0.005
 30511,-0.06875025,0.06420700,0.03089486,-0.00057326,0.00211577,0.00001
 290,-0.00047952,-0.00001385,-0.00002172,0.04586213,0.01711647,0.003784
 25,-0.00816686,-0.01222551,-0.03236464,-0.03306909,0.05485056,-0.49859
 750,-0.21819344,-0.00381938,-0.01316061,0.00581168,0.00088695,-0.00002
 648,-0.00037584,-0.07182197,0.59500346,-0.01116628,0.00677270,-0.00091
 721,-0.00341533,-0.05218040,-0.01607508,0.02897024,-0.19981591,-0.1671
 4998,0.00224115,-0.00442455,0.00070705,0.00190900,-0.00057368,0.000773
 63,-0.02106588,0.25005943,0.17198217,-0.00925017,0.00187195,-0.0058441
 3,0.00012818,-0.00017746,0.00008179,-0.00018522,0.00066557,-0.00000593
 ,-0.01825421,0.03819396,0.00729495,-0.07003814,0.10291931,0.00784575,-
 0.00000195,-0.00046171,-0.00007077,0.09768231,0.00091129,-0.00492256,0
 .00073494,0.00020352,0.00034119,0.00014565,0.00042897,-0.00112628,-0.0
 0109102,-0.01055034,0.00649731,-0.00397874,0.15290411,-0.40741352,-0.1
 1349230,-0.00026085,0.00089645,0.00055278,-0.14391526,0.40405891,-0.00
 745659,-0.00000416,-0.00453202,0.00018991,0.00024117,0.00014797,-0.000
 19977,0.00033073,-0.00043196,-0.01546917,0.03086465,0.00238026,0.03273
 543,-0.14958659,-0.05634212,0.00006030,-0.00027260,-0.00002692,-0.0090
 8832,0.11707460,0.05797433,-0.28082041,0.01915253,-0.15178885,0.000450
 10,-0.00095671,-0.00051835,-0.00058594,-0.00334723,0.00464025,-0.01115
 198,0.00054502,-0.00568506,0.00339580,0.00211749,0.00112363,-0.0001004
 7,0.00051024,-0.00057282,0.00005371,0.00019120,-0.00086527,0.28571163,
 -0.00158447,-0.04645388,-0.01785830,-0.00158950,-0.00174312,-0.0000155
 3,-0.00212344,-0.00170121,0.00630939,0.03475152,-0.00608090,0.02152475
 ,0.00244284,-0.00711907,-0.00261834,0.00110388,0.00014676,-0.00107404,
 0.00182750,0.00096986,0.00164628,-0.02206793,0.05440626,-0.14021403,-0
 .01369098,-0.11209228,0.00336709,0.00417169,-0.00044538,0.00194433,0.0
 0368918,-0.01013213,-0.00663250,0.00914354,-0.00233500,0.00547718,-0.0
 0130838,0.00513092,-0.00057310,-0.00054449,0.00197660,-0.00001326,-0.0
 0026131,0.00059521,0.15488407,-0.00082116,0.11816586,-0.04966470,-0.01
 700405,-0.05299915,0.00098658,-0.00181760,0.00047999,-0.01010625,0.008
 01774,0.00506517,0.00179534,0.01066157,0.00576517,0.00400306,-0.001013
 67,0.00416516,0.00211327,-0.00183722,-0.00316640,-0.00025163,-0.000028
 44,0.00018361,0.00276305,-0.01407963,-0.01759813,0.05035699,-0.0185798
 6,-0.13130158,-0.13030143,0.00020781,-0.00186092,-0.00041388,-0.008540
 71,0.00780930,0.00638146,0.00521326,-0.03197645,-0.02712181,-0.0039149
 8,0.00232448,0.00041473,0.00268766,-0.00151834,-0.00356803,-0.00088608
 ,0.00056700,0.00008555,0.00159443,0.00574017,0.00275213,0.02241748,0.1
 5277488,-0.05663129,-0.14843964,-0.24508982,-0.00057495,0.00061190,-0.
 00018557,0.00750422,-0.00524368,-0.00358391,0.00188245,0.00680997,0.01
 171063,-0.00026688,0.00011792,-0.00004430,-0.00267650,0.00173952,0.001
 77824,-0.00001688,0.00048387,-0.00011980,0.00107468,-0.00465729,-0.003
 92072,0.04655416,0.14536998,0.24558258,0.00039493,-0.00342660,0.005008
 34,-0.00432338,0.01005905,-0.00621195,-0.07929666,0.05565186,-0.070115
 22,-0.00115617,-0.00132663,-0.00100703,0.00094079,0.00008039,0.0014391
 9,0.00785080,0.00898623,0.00503256,-0.00002309,0.00013967,-0.00000133,
 0.00099058,0.00168313,-0.00157221,-0.00256839,-0.00081781,0.00384645,0
 .07067358,0.02962717,0.00939539,0.00107869,0.00414922,0.00242119,0.008
 33129,0.02430647,-0.05374826,0.02641024,-0.00633377,-0.01622939,0.0063
 0774,-0.00231997,0.00130583,-0.00136644,0.02284663,-0.05923591,0.00496
 157,-0.00010949,0.00009333,-0.00024441,0.00188755,0.00175547,-0.002936
 83,-0.00563596,-0.00245821,0.00311229,-0.07003755,0.11457057,-0.018565
 56,-0.00810160,-0.01261333,-0.02103685,0.01645936,-0.02947704,-0.03807
 381,0.02633114,-0.05832686,0.00068861,0.00591036,-0.00051210,0.0026583
 6,-0.00079972,-0.00009443,0.00266271,0.00531816,0.00834941,-0.00020591
 ,-0.00023294,0.00044556,-0.00238704,-0.00254935,0.00325437,0.01107570,
 0.00604762,-0.00612780,0.06553409,-0.04576198,0.10067216,-0.00323558,-
 0.00569538,-0.00576907,-0.05024137,0.04531846,-0.05647840,0.00909318,-
 0.00552499,-0.00149447,-0.00084368,0.00284353,0.00108377,0.00006001,-0
 .00034423,0.00021184,-0.00562667,0.00443269,0.00057025,0.00006623,-0.0
 0005876,-0.00003004,-0.00050701,-0.00061717,0.00103245,0.00197570,0.00
 154573,-0.00136316,0.00867996,0.00667959,-0.00299500,0.03998457,-0.000
 85275,-0.00177671,-0.00107602,0.04807379,-0.15373605,0.12782735,-0.000
 41166,0.00709742,-0.00841849,-0.00025017,0.00152817,0.00007152,-0.0000
 2244,-0.00005801,0.00009819,-0.00115260,0.00199913,0.00155194,0.000021
 95,0.00003217,-0.00009322,0.00009103,-0.00010507,0.00013719,0.00054420
 ,0.00033538,-0.00022000,0.00021080,0.00257836,-0.00244789,-0.05144535,
 0.15164346,-0.00198442,-0.00045150,-0.00041893,-0.06423090,0.12418774,
 -0.22866686,-0.00515995,0.02205574,-0.01162909,0.00010601,0.00009766,-
 0.00021932,0.00015759,0.00014725,-0.00004401,0.00168163,-0.00231042,0.
 00222848,0.00003292,-0.00000437,0.00000752,-0.00022571,0.00009661,0.00
 008838,0.00014916,0.00017770,-0.00000843,-0.00266551,-0.00063973,-0.00
 568410,0.06959570,-0.13835456,0.23672650,0.00114979,0.00557426,0.00451
 617,-0.03599025,0.08157395,0.00747062,-0.00742185,-0.01270358,-0.01100
 642,0.00102448,-0.00107838,-0.00199510,-0.00011359,0.00009380,0.000068
 36,0.00760593,0.00338265,0.00073428,0.00007398,0.00003488,-0.00005875,
 -0.00019908,0.00025326,-0.00010189,-0.00140303,-0.00092693,0.00066770,
 -0.00216295,-0.00505989,0.00064469,0.00059466,0.00519321,0.00254348,0.
 03684189,0.00010338,0.00108334,0.00187491,0.07130604,-0.32288757,-0.04
 897026,0.00279455,-0.01154267,0.00225425,0.00022545,0.00123695,-0.0006
 1697,-0.00011293,-0.00003067,0.00010772,0.00024964,0.00307343,-0.00226
 180,0.00004977,0.00000614,-0.00004201,0.00028240,0.00018473,-0.0003305
 9,-0.00022442,-0.00043571,0.00031516,-0.00120253,-0.00044839,-0.000173
 18,0.00286588,-0.00953826,-0.00500212,-0.07633722,0.33929868,-0.000043
 30,-0.00227806,-0.00041532,-0.00013882,-0.04423518,-0.06205646,0.01168
 801,-0.02995984,-0.00155173,-0.00017305,0.00174874,-0.00001921,-0.0001
 2010,-0.00005786,0.00011808,-0.00471416,0.00000394,-0.00362639,-0.0000
 1020,0.00006885,-0.00009803,0.00032048,0.00001698,-0.00028585,0.000325
 56,0.00017597,0.00000888,0.00071262,0.00074755,0.00011416,-0.00436388,
 0.02092400,0.00761986,-0.00348316,0.05284489,0.06019203\\-0.00000055,0
 .00000009,-0.00000025,0.00000070,0.00000028,0.00000013,0.00000023,0.00
 000015,0.00000037,-0.00000032,-0.00000019,-0.00000031,-0.00000071,-0.0
 0000053,-0.00000003,0.00000014,-0.00000008,0.00000043,-0.00000053,-0.0
 0000036,0.00000013,-0.00000014,0.00000009,-0.00000076,-0.00000058,-0.0
 0000029,-0.00000019,0.00000001,0.00000004,0.00000031,0.00000104,0.0000
 0047,0.00000012,0.00000070,0.00000033,0.00000004\\\@


 IF YOU WISH TO UNDERSTAND THE FRAGRANCE OF THE ROSE, 
 OR THE TENACITY OF THE OAK; 
 IF YOU ARE NOT SATISFIED UNTIL YOU KNOW THE SECRET PATHS 
 BY WHICH THE SUNSHINE AND THE AIR ACHIEVE THESE WONDERS; 
 IF YOU WISH TO SEE THE PATTERN WHICH UNDERLIES ONE LARGE FIELD OF 
 HUMAN EXPERIENCE AND HUMAN MEASUREMENT, THEN TAKE UP CHEMISTRY.

                                         -- C. A. COULSON, 1973.
 Job cpu time:       0 days  0 hours  4 minutes  6.9 seconds.
 Elapsed time:       0 days  0 hours  0 minutes 16.4 seconds.
 File lengths (MBytes):  RWF=     27 Int=      0 D2E=      0 Chk=      3 Scr=      1
 Normal termination of Gaussian 16 at Wed Dec 23 23:10:58 2020.
