 Entering Gaussian System, Link 0=g16
 Initial command:
 /apps/cent7/gaussian/g16-B.01/g16-haswell/g16/l1.exe "/scratch/bell/zhao922/YARP/paper-example/KHP-network/pp_0/TS-folder/Gau-2480.inp" -scrdir="/scratch/bell/zhao922/YARP/paper-example/KHP-network/pp_0/TS-folder/"
 Entering Link 1 = /apps/cent7/gaussian/g16-B.01/g16-haswell/g16/l1.exe PID=      2483.
  
 Copyright (c) 1988-2017, Gaussian, Inc.  All Rights Reserved.
  
 This is part of the Gaussian(R) 16 program.  It is based on
 the Gaussian(R) 09 system (copyright 2009, Gaussian, Inc.),
 the Gaussian(R) 03 system (copyright 2003, Gaussian, Inc.),
 the Gaussian(R) 98 system (copyright 1998, Gaussian, Inc.),
 the Gaussian(R) 94 system (copyright 1995, Gaussian, Inc.),
 the Gaussian 92(TM) system (copyright 1992, Gaussian, Inc.),
 the Gaussian 90(TM) system (copyright 1990, Gaussian, Inc.),
 the Gaussian 88(TM) system (copyright 1988, Gaussian, Inc.),
 the Gaussian 86(TM) system (copyright 1986, Carnegie Mellon
 University), and the Gaussian 82(TM) system (copyright 1983,
 Carnegie Mellon University). Gaussian is a federally registered
 trademark of Gaussian, Inc.
  
 This software contains proprietary and confidential information,
 including trade secrets, belonging to Gaussian, Inc.
  
 This software is provided under written license and may be
 used, copied, transmitted, or stored only in accord with that
 written license.
  
 The following legend is applicable only to US Government
 contracts under FAR:
  
                    RESTRICTED RIGHTS LEGEND
  
 Use, reproduction and disclosure by the US Government is
 subject to restrictions as set forth in subparagraphs (a)
 and (c) of the Commercial Computer Software - Restricted
 Rights clause in FAR 52.227-19.
  
 Gaussian, Inc.
 340 Quinnipiac St., Bldg. 40, Wallingford CT 06492
  
  
 ---------------------------------------------------------------
 Warning -- This program may not be used in any manner that
 competes with the business of Gaussian, Inc. or will provide
 assistance to any competitor of Gaussian, Inc.  The licensee
 of this program is prohibited from giving any competitor of
 Gaussian, Inc. access to this program.  By using this program,
 the user acknowledges that Gaussian, Inc. is engaged in the
 business of creating and licensing software in the field of
 computational chemistry and represents and warrants to the
 licensee that it is not a competitor of Gaussian, Inc. and that
 it will not use this program in any manner prohibited above.
 ---------------------------------------------------------------
  

 Cite this work as:
 Gaussian 16, Revision B.01,
 M. J. Frisch, G. W. Trucks, H. B. Schlegel, G. E. Scuseria, 
 M. A. Robb, J. R. Cheeseman, G. Scalmani, V. Barone, 
 G. A. Petersson, H. Nakatsuji, X. Li, M. Caricato, A. V. Marenich, 
 J. Bloino, B. G. Janesko, R. Gomperts, B. Mennucci, H. P. Hratchian, 
 J. V. Ortiz, A. F. Izmaylov, J. L. Sonnenberg, D. Williams-Young, 
 F. Ding, F. Lipparini, F. Egidi, J. Goings, B. Peng, A. Petrone, 
 T. Henderson, D. Ranasinghe, V. G. Zakrzewski, J. Gao, N. Rega, 
 G. Zheng, W. Liang, M. Hada, M. Ehara, K. Toyota, R. Fukuda, 
 J. Hasegawa, M. Ishida, T. Nakajima, Y. Honda, O. Kitao, H. Nakai, 
 T. Vreven, K. Throssell, J. A. Montgomery, Jr., J. E. Peralta, 
 F. Ogliaro, M. J. Bearpark, J. J. Heyd, E. N. Brothers, K. N. Kudin, 
 V. N. Staroverov, T. A. Keith, R. Kobayashi, J. Normand, 
 K. Raghavachari, A. P. Rendell, J. C. Burant, S. S. Iyengar, 
 J. Tomasi, M. Cossi, J. M. Millam, M. Klene, C. Adamo, R. Cammi, 
 J. W. Ochterski, R. L. Martin, K. Morokuma, O. Farkas, 
 J. B. Foresman, and D. J. Fox, Gaussian, Inc., Wallingford CT, 2016.
 
 ******************************************
 Gaussian 16:  ES64L-G16RevB.01 20-Dec-2017
                23-Dec-2020 
 ******************************************
 %NProcShared=16
 Will use up to   16 processors via shared memory.
 %Mem=6GB
 --------------------------------------------------------------
 # B3LYP/6-31+G* OPT=(TS, CALCALL, NOEIGEN, maxcycles=100) Freq
 --------------------------------------------------------------
 1/5=1,6=100,10=4,11=1,18=20,26=3,38=1/1,3;
 2/9=110,12=2,17=6,18=5,40=1/2;
 3/5=1,6=6,7=11,11=2,25=1,30=1,71=2,74=-5,140=1/1,2,3;
 4//1;
 5/5=2,38=5/2;
 8/6=4,10=90,11=11/1;
 11/6=1,8=1,9=11,15=111,16=1/1,2,10;
 10/6=1/2;
 6/7=2,8=2,9=2,10=2,18=1,28=1/1;
 7/10=1,25=1/1,2,3,16;
 1/5=1,6=100,10=4,11=1,18=20,26=3/3(3);
 2/9=110/2;
 7/8=1,9=1,25=1,44=-1/16;
 99//99;
 2/9=110/2;
 3/5=1,6=6,7=11,11=2,25=1,30=1,71=2,74=-5,140=1/1,2,3;
 4/5=5,16=3,69=1/1;
 5/5=2,38=5/2;
 8/6=4,10=90,11=11/1;
 11/6=1,8=1,9=11,15=111,16=1/1,2,10;
 10/6=1/2;
 7/10=1,25=1/1,2,3,16;
 1/5=1,6=100,10=4,11=1,18=20,26=3/3(-8);
 2/9=110/2;
 6/7=2,8=2,9=2,10=2,18=1,19=2,28=1/1;
 7/8=1,9=1,25=1,44=-1/16;
 99//99;
 ---------
 pp_4_0 TS
 ---------
 Symbolic Z-matrix:
 Charge =  0 Multiplicity = 1
 C                     1.61749   1.59257  -2.54779 
 C                     0.45416   0.77069  -0.88716 
 C                     1.28367  -0.45823  -0.92345 
 O                     0.75151   2.44238  -2.80363 
 O                     0.54615   3.03434  -0.91848 
 O                     2.29525  -0.74409  -1.49117 
 H                     0.46032   3.78731  -1.50854 
 H                     2.50076   1.83986  -1.96111 
 H                     1.79243   0.83297  -3.31915 
 H                     0.81611  -1.22102  -0.25008 
 H                    -0.5449    0.58484  -1.258 
 H                     0.43452   1.05778   0.16076 
 
 Add virtual bond connecting atoms O5         and O4         Dist= 3.75D+00.
 Add virtual bond connecting atoms H7         and O4         Dist= 3.57D+00.
 Add virtual bond connecting atoms C2         and C1         Dist= 4.13D+00.
 Add virtual bond connecting atoms C2         and O5         Dist= 4.28D+00.
 Add virtual bond connecting atoms H12        and O5         Dist= 4.26D+00.

 GradGradGradGradGradGradGradGradGradGradGradGradGradGradGradGradGradGrad
 Berny optimization.
 Initialization pass.
                           ----------------------------
                           !    Initial Parameters    !
                           ! (Angstroms and Degrees)  !
 --------------------------                            --------------------------
 ! Name  Definition              Value          Derivative Info.                !
 --------------------------------------------------------------------------------
 ! R1    R(1,2)                  2.1878         calculate D2E/DX2 analytically  !
 ! R2    R(1,4)                  1.24           calculate D2E/DX2 analytically  !
 ! R3    R(1,8)                  1.0888         calculate D2E/DX2 analytically  !
 ! R4    R(1,9)                  1.0966         calculate D2E/DX2 analytically  !
 ! R5    R(2,3)                  1.4831         calculate D2E/DX2 analytically  !
 ! R6    R(2,5)                  2.2657         calculate D2E/DX2 analytically  !
 ! R7    R(2,11)                 1.0817         calculate D2E/DX2 analytically  !
 ! R8    R(2,12)                 1.0867         calculate D2E/DX2 analytically  !
 ! R9    R(3,6)                  1.1947         calculate D2E/DX2 analytically  !
 ! R10   R(3,10)                 1.1198         calculate D2E/DX2 analytically  !
 ! R11   R(4,5)                  1.9866         calculate D2E/DX2 analytically  !
 ! R12   R(4,7)                  1.8897         calculate D2E/DX2 analytically  !
 ! R13   R(5,7)                  0.9605         calculate D2E/DX2 analytically  !
 ! R14   R(5,12)                 2.2548         calculate D2E/DX2 analytically  !
 ! A1    A(2,1,4)               92.448          calculate D2E/DX2 analytically  !
 ! A2    A(2,1,8)               96.1818         calculate D2E/DX2 analytically  !
 ! A3    A(2,1,9)              111.0091         calculate D2E/DX2 analytically  !
 ! A4    A(4,1,8)              121.4707         calculate D2E/DX2 analytically  !
 ! A5    A(4,1,9)              116.1676         calculate D2E/DX2 analytically  !
 ! A6    A(8,1,9)              114.0112         calculate D2E/DX2 analytically  !
 ! A7    A(1,2,3)               89.7306         calculate D2E/DX2 analytically  !
 ! A8    A(1,2,5)               65.9584         calculate D2E/DX2 analytically  !
 ! A9    A(1,2,11)             107.1824         calculate D2E/DX2 analytically  !
 ! A10   A(1,2,12)             129.9641         calculate D2E/DX2 analytically  !
 ! A11   A(3,2,5)              143.59           calculate D2E/DX2 analytically  !
 ! A12   A(3,2,11)             111.4575         calculate D2E/DX2 analytically  !
 ! A13   A(3,2,12)             104.6317         calculate D2E/DX2 analytically  !
 ! A14   A(5,2,11)             101.7944         calculate D2E/DX2 analytically  !
 ! A15   A(11,2,12)            111.0558         calculate D2E/DX2 analytically  !
 ! A16   A(2,3,6)              133.1152         calculate D2E/DX2 analytically  !
 ! A17   A(2,3,10)             108.4323         calculate D2E/DX2 analytically  !
 ! A18   A(6,3,10)             118.4451         calculate D2E/DX2 analytically  !
 ! A19   A(1,4,5)               94.6245         calculate D2E/DX2 analytically  !
 ! A20   A(1,4,7)              116.9998         calculate D2E/DX2 analytically  !
 ! A21   A(2,5,4)               73.7163         calculate D2E/DX2 analytically  !
 ! A22   A(2,5,7)              142.0085         calculate D2E/DX2 analytically  !
 ! A23   A(4,5,12)             101.4269         calculate D2E/DX2 analytically  !
 ! A24   L(7,5,12,1,-1)        175.0884         calculate D2E/DX2 analytically  !
 ! A25   L(7,5,12,1,-2)        191.441          calculate D2E/DX2 analytically  !
 ! D1    D(4,1,2,3)            162.6531         calculate D2E/DX2 analytically  !
 ! D2    D(4,1,2,5)            -45.2984         calculate D2E/DX2 analytically  !
 ! D3    D(4,1,2,11)            50.2295         calculate D2E/DX2 analytically  !
 ! D4    D(4,1,2,12)           -88.3423         calculate D2E/DX2 analytically  !
 ! D5    D(8,1,2,3)            -75.3262         calculate D2E/DX2 analytically  !
 ! D6    D(8,1,2,5)             76.7223         calculate D2E/DX2 analytically  !
 ! D7    D(8,1,2,11)           172.2503         calculate D2E/DX2 analytically  !
 ! D8    D(8,1,2,12)            33.6784         calculate D2E/DX2 analytically  !
 ! D9    D(9,1,2,3)             43.3617         calculate D2E/DX2 analytically  !
 ! D10   D(9,1,2,5)           -164.5898         calculate D2E/DX2 analytically  !
 ! D11   D(9,1,2,11)           -69.0619         calculate D2E/DX2 analytically  !
 ! D12   D(9,1,2,12)           152.3663         calculate D2E/DX2 analytically  !
 ! D13   D(2,1,4,5)             47.9674         calculate D2E/DX2 analytically  !
 ! D14   D(2,1,4,7)             66.5561         calculate D2E/DX2 analytically  !
 ! D15   D(8,1,4,5)            -50.8067         calculate D2E/DX2 analytically  !
 ! D16   D(8,1,4,7)            -32.218          calculate D2E/DX2 analytically  !
 ! D17   D(9,1,4,5)            162.8543         calculate D2E/DX2 analytically  !
 ! D18   D(9,1,4,7)           -178.557          calculate D2E/DX2 analytically  !
 ! D19   D(1,2,3,6)             10.4692         calculate D2E/DX2 analytically  !
 ! D20   D(1,2,3,10)          -170.5669         calculate D2E/DX2 analytically  !
 ! D21   D(5,2,3,6)            -35.6827         calculate D2E/DX2 analytically  !
 ! D22   D(5,2,3,10)           143.2811         calculate D2E/DX2 analytically  !
 ! D23   D(11,2,3,6)           118.8644         calculate D2E/DX2 analytically  !
 ! D24   D(11,2,3,10)          -62.1717         calculate D2E/DX2 analytically  !
 ! D25   D(12,2,3,6)          -121.0305         calculate D2E/DX2 analytically  !
 ! D26   D(12,2,3,10)           57.9334         calculate D2E/DX2 analytically  !
 ! D27   D(1,2,5,4)             27.502          calculate D2E/DX2 analytically  !
 ! D28   D(1,2,5,7)             45.7543         calculate D2E/DX2 analytically  !
 ! D29   D(3,2,5,4)             79.6572         calculate D2E/DX2 analytically  !
 ! D30   D(3,2,5,7)             97.9094         calculate D2E/DX2 analytically  !
 ! D31   D(11,2,5,4)           -76.2255         calculate D2E/DX2 analytically  !
 ! D32   D(11,2,5,7)           -57.9732         calculate D2E/DX2 analytically  !
 ! D33   D(1,4,5,2)            -48.2891         calculate D2E/DX2 analytically  !
 ! D34   D(1,4,5,12)           -45.8156         calculate D2E/DX2 analytically  !
 --------------------------------------------------------------------------------
 Trust Radius=3.00D-01 FncErr=1.00D-07 GrdErr=1.00D-06 EigMax=2.50D+02 EigMin=1.00D-04
 Number of steps in this run=    100 maximum allowed number of steps=    100.
 Search for a saddle point of order  1.
 GradGradGradGradGradGradGradGradGradGradGradGradGradGradGradGradGradGrad

                          Input orientation:                          
 ---------------------------------------------------------------------
 Center     Atomic      Atomic             Coordinates (Angstroms)
 Number     Number       Type             X           Y           Z
 ---------------------------------------------------------------------
      1          6           0        1.617488    1.592570   -2.547791
      2          6           0        0.454155    0.770686   -0.887155
      3          6           0        1.283674   -0.458226   -0.923449
      4          8           0        0.751508    2.442380   -2.803627
      5          8           0        0.546147    3.034338   -0.918475
      6          8           0        2.295252   -0.744086   -1.491165
      7          1           0        0.460320    3.787309   -1.508539
      8          1           0        2.500760    1.839860   -1.961109
      9          1           0        1.792427    0.832971   -3.319151
     10          1           0        0.816106   -1.221015   -0.250077
     11          1           0       -0.544901    0.584843   -1.257995
     12          1           0        0.434518    1.057775    0.160764
 ---------------------------------------------------------------------
                    Distance matrix (angstroms):
                    1          2          3          4          5
     1  C    0.000000
     2  C    2.187818   0.000000
     3  C    2.637363   1.483120   0.000000
     4  O    1.239980   2.560438   3.497397   0.000000
     5  O    2.425106   2.265737   3.569590   1.986551   0.000000
     6  O    2.652505   2.459472   1.194700   3.776145   4.202836
     7  H    2.689974   3.079963   4.364036   1.889677   0.960472
     8  H    1.088815   2.546586   2.799864   2.032916   2.516818
     9  H    1.096627   2.776591   2.768647   1.984811   3.487474
    10  H    3.719941   2.122204   1.119775   4.466011   4.315978
    11  H    2.712013   1.081745   2.131572   2.742280   2.702903
    12  H    3.003613   1.086711   2.048132   3.287131   2.254777
                    6          7          8          9         10
     6  O    0.000000
     7  H    4.888846   0.000000
     8  H    2.634361   2.856707   0.000000
     9  H    2.466065   3.712269   1.832986   0.000000
    10  H    1.988877   5.176255   3.890327   3.819853   0.000000
    11  H    3.144342   3.365862   3.368306   3.126185   2.475755
    12  H    3.072117   3.199624   3.063227   3.742227   2.346760
                   11         12
    11  H    0.000000
    12  H    1.787681   0.000000
 Stoichiometry    C3H6O3
 Framework group  C1[X(C3H6O3)]
 Deg. of freedom    30
 Full point group                 C1      NOp   1
 Largest Abelian subgroup         C1      NOp   1
 Largest concise Abelian subgroup C1      NOp   1
                         Standard orientation:                         
 ---------------------------------------------------------------------
 Center     Atomic      Atomic             Coordinates (Angstroms)
 Number     Number       Type             X           Y           Z
 ---------------------------------------------------------------------
      1          6           0       -0.433995   -1.071885   -0.085171
      2          6           0        0.308707    0.937182    0.360467
      3          6           0        1.695516    0.470709    0.117969
      4          8           0       -1.527791   -0.844555    0.452864
      5          8           0       -1.800182    0.895099   -0.466808
      6          8           0        2.150490   -0.533393   -0.342558
      7          1           0       -2.640524    0.439225   -0.374550
      8          1           0       -0.307097   -1.007040   -1.164619
      9          1           0        0.190194   -1.836695    0.392369
     10          1           0        2.401932    1.277329    0.440830
     11          1           0        0.130176    1.117941    1.411955
     12          1           0        0.223814    1.855997   -0.213563
 ---------------------------------------------------------------------
 Rotational constants (GHZ):           6.2383975           2.2126361           1.7990819
 Standard basis: 6-31+G(d) (6D, 7F)
 There are   126 symmetry adapted cartesian basis functions of A   symmetry.
 There are   126 symmetry adapted basis functions of A   symmetry.
   126 basis functions,   216 primitive gaussians,   126 cartesian basis functions
    24 alpha electrons       24 beta electrons
       nuclear repulsion energy       233.9120309299 Hartrees.
 NAtoms=   12 NActive=   12 NUniq=   12 SFac= 1.00D+00 NAtFMM=   60 NAOKFM=F Big=F
 Integral buffers will be    131072 words long.
 Raffenetti 2 integral format.
 Two-electron integral symmetry is turned on.
 One-electron integrals computed using PRISM.
 NBasis=   126 RedAO= T EigKep=  1.20D-04  NBF=   126
 NBsUse=   126 1.00D-06 EigRej= -1.00D+00 NBFU=   126
 ExpMin= 4.38D-02 ExpMax= 5.48D+03 ExpMxC= 8.25D+02 IAcc=3 IRadAn=         5 AccDes= 0.00D+00
 Harris functional with IExCor=  402 and IRadAn=       5 diagonalized for initial guess.
 HarFok:  IExCor=  402 AccDes= 0.00D+00 IRadAn=         5 IDoV= 1 UseB2=F ITyADJ=14
 ICtDFT=  3500011 ScaDFX=  1.000000  1.000000  1.000000  1.000000
 FoFCou: FMM=F IPFlag=           0 FMFlag=      100000 FMFlg1=           0
         NFxFlg=           0 DoJE=T BraDBF=F KetDBF=T FulRan=T
         wScrn=  0.000000 ICntrl=       500 IOpCl=  0 I1Cent=   200000004 NGrid=           0
         NMat0=    1 NMatS0=      1 NMatT0=    0 NMatD0=    1 NMtDS0=    0 NMtDT0=    0
 Petite list used in FoFCou.
 Keep R1 ints in memory in canonical form, NReq=47237561.
 Requested convergence on RMS density matrix=1.00D-08 within 128 cycles.
 Requested convergence on MAX density matrix=1.00D-06.
 Requested convergence on             energy=1.00D-06.
 No special actions if energy rises.
 EnCoef did     6 forward-backward iterations
 EnCoef did   100 forward-backward iterations
 EnCoef did     2 forward-backward iterations
 EnCoef did     3 forward-backward iterations
 EnCoef did   100 forward-backward iterations
 SCF Done:  E(RB3LYP) =  -343.318843139     A.U. after   23 cycles
            NFock= 23  Conv=0.53D-08     -V/T= 2.0080
 DoSCS=F DFT=T ScalE2(SS,OS)=  1.000000  1.000000
 Range of M.O.s used for correlation:     1   126
 NBasis=   126 NAE=    24 NBE=    24 NFC=     0 NFV=     0
 NROrb=    126 NOA=    24 NOB=    24 NVA=   102 NVB=   102

 **** Warning!!: The largest alpha MO coefficient is  0.33053855D+02


 **** Warning!!: The smallest alpha delta epsilon is  0.49234903D-01

 Symmetrizing basis deriv contribution to polar:
 IMax=3 JMax=2 DiffMx= 0.00D+00
 G2DrvN: will do    13 centers at a time, making    1 passes.
 Calling FoFCou, ICntrl=  3107 FMM=F I1Cent=   0 AccDes= 0.00D+00.
 End of G2Drv F.D. properties file   721 does not exist.
 End of G2Drv F.D. properties file   722 does not exist.
 End of G2Drv F.D. properties file   788 does not exist.
          IDoAtm=111111111111
          Differentiating once with respect to electric field.
                with respect to dipole field.
          Differentiating once with respect to nuclear coordinates.
 Keep R1 ints in memory in canonical form, NReq=47193576.
          There are    39 degrees of freedom in the 1st order CPHF.  IDoFFX=6 NUNeed=     3.
     36 vectors produced by pass  0 Test12= 6.28D-15 2.56D-09 XBig12= 9.55D+02 2.93D+01.
 AX will form    36 AO Fock derivatives at one time.
     36 vectors produced by pass  1 Test12= 6.28D-15 2.56D-09 XBig12= 4.20D+02 3.48D+00.
     36 vectors produced by pass  2 Test12= 6.28D-15 2.56D-09 XBig12= 7.16D+00 4.39D-01.
     36 vectors produced by pass  3 Test12= 6.28D-15 2.56D-09 XBig12= 3.64D-02 3.84D-02.
     36 vectors produced by pass  4 Test12= 6.28D-15 2.56D-09 XBig12= 7.46D-05 1.39D-03.
     31 vectors produced by pass  5 Test12= 6.28D-15 2.56D-09 XBig12= 9.17D-08 3.68D-05.
      5 vectors produced by pass  6 Test12= 6.28D-15 2.56D-09 XBig12= 7.35D-11 1.13D-06.
      3 vectors produced by pass  7 Test12= 6.28D-15 2.56D-09 XBig12= 5.96D-14 4.38D-08.
 InvSVY:  IOpt=1 It=  1 EMax= 7.11D-15
 Solved reduced A of dimension   219 with    39 vectors.
 Isotropic polarizability for W=    0.000000       72.49 Bohr**3.
 End of Minotr F.D. properties file   721 does not exist.
 End of Minotr F.D. properties file   722 does not exist.
 End of Minotr F.D. properties file   788 does not exist.

 **********************************************************************

            Population analysis using the SCF Density.

 **********************************************************************

 Orbital symmetries:
       Occupied  (A) (A) (A) (A) (A) (A) (A) (A) (A) (A) (A) (A)
                 (A) (A) (A) (A) (A) (A) (A) (A) (A) (A) (A) (A)
       Virtual   (A) (A) (A) (A) (A) (A) (A) (A) (A) (A) (A) (A)
                 (A) (A) (A) (A) (A) (A) (A) (A) (A) (A) (A) (A)
                 (A) (A) (A) (A) (A) (A) (A) (A) (A) (A) (A) (A)
                 (A) (A) (A) (A) (A) (A) (A) (A) (A) (A) (A) (A)
                 (A) (A) (A) (A) (A) (A) (A) (A) (A) (A) (A) (A)
                 (A) (A) (A) (A) (A) (A) (A) (A) (A) (A) (A) (A)
                 (A) (A) (A) (A) (A) (A) (A) (A) (A) (A) (A) (A)
                 (A) (A) (A) (A) (A) (A) (A) (A) (A) (A) (A) (A)
                 (A) (A) (A) (A) (A) (A)
 The electronic state is 1-A.
 Alpha  occ. eigenvalues --  -19.19385 -19.19053 -19.15786 -10.31831 -10.30561
 Alpha  occ. eigenvalues --  -10.24431  -1.09875  -1.08003  -0.94019  -0.78296
 Alpha  occ. eigenvalues --   -0.66409  -0.59019  -0.51834  -0.51301  -0.48880
 Alpha  occ. eigenvalues --   -0.48278  -0.46232  -0.43390  -0.41715  -0.38967
 Alpha  occ. eigenvalues --   -0.31479  -0.30276  -0.28257  -0.21835
 Alpha virt. eigenvalues --   -0.16912  -0.05724  -0.03422   0.00172   0.02482
 Alpha virt. eigenvalues --    0.03503   0.03838   0.05585   0.06190   0.06600
 Alpha virt. eigenvalues --    0.08468   0.08885   0.11142   0.12348   0.14568
 Alpha virt. eigenvalues --    0.16057   0.18801   0.19305   0.20366   0.21688
 Alpha virt. eigenvalues --    0.22466   0.24382   0.25221   0.25606   0.26414
 Alpha virt. eigenvalues --    0.27122   0.28325   0.28849   0.30187   0.31349
 Alpha virt. eigenvalues --    0.32753   0.33404   0.34142   0.36938   0.40430
 Alpha virt. eigenvalues --    0.45343   0.60085   0.63495   0.64750   0.70595
 Alpha virt. eigenvalues --    0.71790   0.73777   0.79278   0.82727   0.86987
 Alpha virt. eigenvalues --    0.89439   0.90976   0.94245   0.98016   1.03361
 Alpha virt. eigenvalues --    1.06644   1.07490   1.11254   1.15202   1.16403
 Alpha virt. eigenvalues --    1.19484   1.22166   1.23183   1.24613   1.27007
 Alpha virt. eigenvalues --    1.31071   1.33614   1.41445   1.45134   1.49185
 Alpha virt. eigenvalues --    1.50492   1.53660   1.57963   1.59608   1.61959
 Alpha virt. eigenvalues --    1.66845   1.73451   1.77056   1.79266   1.81570
 Alpha virt. eigenvalues --    1.82899   1.90079   1.94459   1.98191   2.03107
 Alpha virt. eigenvalues --    2.04686   2.08285   2.09533   2.16964   2.31694
 Alpha virt. eigenvalues --    2.34227   2.41450   2.43656   2.54027   2.55925
 Alpha virt. eigenvalues --    2.60175   2.63210   2.67539   2.90433   2.99133
 Alpha virt. eigenvalues --    3.07428   4.06975   4.11341   4.17673   4.24207
 Alpha virt. eigenvalues --    4.34810   4.44276
          Condensed to atoms (all electrons):
               1          2          3          4          5          6
     1  C    5.147770   0.007722  -0.032583   0.284931  -0.034932   0.010145
     2  C    0.007722   6.144773  -0.010038  -0.213813   0.111496  -0.145008
     3  C   -0.032583  -0.010038   5.109307   0.029520  -0.001121   0.428822
     4  O    0.284931  -0.213813   0.029520   8.378881  -0.118533   0.005634
     5  O   -0.034932   0.111496  -0.001121  -0.118533   8.576447   0.000365
     6  O    0.010145  -0.145008   0.428822   0.005634   0.000365   8.111144
     7  H    0.011720   0.011462  -0.002785  -0.043435   0.173004   0.000013
     8  H    0.368971   0.031026  -0.031159  -0.040471  -0.026981   0.001157
     9  H    0.380142  -0.058184   0.024355  -0.059340   0.001604  -0.012281
    10  H    0.009300  -0.107021   0.352058  -0.000759   0.001024  -0.060975
    11  H   -0.007604   0.383560  -0.058063  -0.001283  -0.004435   0.001646
    12  H    0.001550   0.363118  -0.029319   0.008713  -0.036350   0.001756
               7          8          9         10         11         12
     1  C    0.011720   0.368971   0.380142   0.009300  -0.007604   0.001550
     2  C    0.011462   0.031026  -0.058184  -0.107021   0.383560   0.363118
     3  C   -0.002785  -0.031159   0.024355   0.352058  -0.058063  -0.029319
     4  O   -0.043435  -0.040471  -0.059340  -0.000759  -0.001283   0.008713
     5  O    0.173004  -0.026981   0.001604   0.001024  -0.004435  -0.036350
     6  O    0.000013   0.001157  -0.012281  -0.060975   0.001646   0.001756
     7  H    0.373098   0.001619  -0.000544   0.000007   0.000087   0.000626
     8  H    0.001619   0.485777  -0.054930   0.000238   0.000362   0.000144
     9  H   -0.000544  -0.054930   0.566138  -0.000645   0.000094   0.000216
    10  H    0.000007   0.000238  -0.000645   0.622520   0.003367  -0.002065
    11  H    0.000087   0.000362   0.000094   0.003367   0.444645  -0.024272
    12  H    0.000626   0.000144   0.000216  -0.002065  -0.024272   0.454209
 Mulliken charges:
               1
     1  C   -0.147131
     2  C   -0.519093
     3  C    0.221005
     4  O   -0.230045
     5  O   -0.641589
     6  O   -0.342417
     7  H    0.475128
     8  H    0.264246
     9  H    0.213374
    10  H    0.182951
    11  H    0.261896
    12  H    0.261675
 Sum of Mulliken charges =  -0.00000
 Mulliken charges with hydrogens summed into heavy atoms:
               1
     1  C    0.330489
     2  C    0.004478
     3  C    0.403956
     4  O   -0.230045
     5  O   -0.166461
     6  O   -0.342417
 APT charges:
               1
     1  C    0.199949
     2  C   -0.186089
     3  C    0.592843
     4  O   -0.124020
     5  O   -0.279087
     6  O   -0.494599
     7  H    0.323905
     8  H    0.021287
     9  H    0.078182
    10  H   -0.156304
    11  H    0.015497
    12  H    0.008436
 Sum of APT charges =  -0.00000
 APT charges with hydrogens summed into heavy atoms:
               1
     1  C    0.299417
     2  C   -0.162156
     3  C    0.436539
     4  O   -0.124020
     5  O    0.044819
     6  O   -0.494599
 Electronic spatial extent (au):  <R**2>=            659.2561
 Charge=             -0.0000 electrons
 Dipole moment (field-independent basis, Debye):
    X=              1.1659    Y=              0.2729    Z=              0.7002  Tot=              1.3871
 Quadrupole moment (field-independent basis, Debye-Ang):
   XX=            -40.0729   YY=            -35.4993   ZZ=            -35.9616
   XY=              5.5400   XZ=              3.0477   YZ=              2.2807
 Traceless Quadrupole moment (field-independent basis, Debye-Ang):
   XX=             -2.8950   YY=              1.6786   ZZ=              1.2164
   XY=              5.5400   XZ=              3.0477   YZ=              2.2807
 Octapole moment (field-independent basis, Debye-Ang**2):
  XXX=            -25.3655  YYY=             -4.8945  ZZZ=              0.4606  XYY=              5.3791
  XXY=              7.7535  XXZ=              1.0380  XZZ=              1.3003  YZZ=             -1.3154
  YYZ=             -0.7144  XYZ=             -4.4330
 Hexadecapole moment (field-independent basis, Debye-Ang**3):
 XXXX=           -501.5311 YYYY=           -210.0197 ZZZZ=            -72.6844 XXXY=             13.4174
 XXXZ=             17.8743 YYYX=              2.0330 YYYZ=             -1.2866 ZZZX=             -2.8586
 ZZZY=              4.0070 XXYY=           -135.3218 XXZZ=           -105.0566 YYZZ=            -47.5410
 XXYZ=              2.6820 YYXZ=              1.1695 ZZXY=              0.3284
 N-N= 2.339120309299D+02 E-N=-1.272653546550D+03  KE= 3.405777668432D+02
  Exact polarizability: 106.524   1.451  67.050   9.607   1.349  43.897
 Approx polarizability: 280.939  -3.510 117.373  44.105  -4.056  74.851
 Calling FoFJK, ICntrl=    100127 FMM=F ISym2X=0 I1Cent= 0 IOpClX= 0 NMat=1 NMatS=1 NMatT=0.
 ***** Axes restored to original set *****
 -------------------------------------------------------------------
 Center     Atomic                   Forces (Hartrees/Bohr)
 Number     Number              X              Y              Z
 -------------------------------------------------------------------
      1        6          -0.002298151    0.024549102   -0.041878448
      2        6           0.009949439   -0.004430430    0.014802322
      3        6          -0.016700508   -0.010784153    0.009456899
      4        8           0.002613001   -0.021553685   -0.052377882
      5        8          -0.001169894    0.009964292    0.064679148
      6        8           0.023227358   -0.004376690   -0.009741047
      7        1          -0.002318568    0.005819648   -0.006701752
      8        1          -0.006090395   -0.007721785    0.022033585
      9        1           0.002842953   -0.005047158    0.001803917
     10        1          -0.002045495   -0.003034984    0.002414717
     11        1          -0.006432895    0.005579429   -0.006049965
     12        1          -0.001576846    0.011036415    0.001558506
 -------------------------------------------------------------------
 Cartesian Forces:  Max     0.064679148 RMS     0.018480296
 FormGI is forming the generalized inverse of G from B-inverse, IUseBI=4.

 GradGradGradGradGradGradGradGradGradGradGradGradGradGradGradGradGradGrad
 Berny optimization.
 Internal  Forces:  Max     0.037900108 RMS     0.008104918
 Search for a saddle point.
 Step number   1 out of a maximum of  100
 All quantities printed in internal units (Hartrees-Bohrs-Radians)
 Swapping is turned off.
 Second derivative matrix not updated -- analytic derivatives used.
 ITU=  0
     Eigenvalues ---   -0.18202  -0.00761  -0.00226  -0.00059   0.00337
     Eigenvalues ---    0.01008   0.01050   0.01662   0.01787   0.02459
     Eigenvalues ---    0.02783   0.03319   0.03669   0.04220   0.04318
     Eigenvalues ---    0.04756   0.05615   0.07319   0.12238   0.13582
     Eigenvalues ---    0.19950   0.28762   0.31330   0.33326   0.33481
     Eigenvalues ---    0.35299   0.37439   0.49699   0.57594   0.95776
 Eigenvectors required to have negative eigenvalues:
                          R1        R11       R6        A22       D17
   1                    0.50662   0.42803  -0.32408  -0.20923  -0.18287
                          R2        D18       A1        R14       A10
   1                   -0.18084  -0.17664  -0.16479  -0.16450   0.15989
 RFO step:  Lambda0=4.637078043D-03 Lambda=-3.53544645D-02.
 Linear search not attempted -- option 19 set.
 Maximum step size (   0.300) exceeded in Quadratic search.
    -- Step size scaled by   0.379
 Iteration  1 RMS(Cart)=  0.05114325 RMS(Int)=  0.00192693
 Iteration  2 RMS(Cart)=  0.00161348 RMS(Int)=  0.00103624
 Iteration  3 RMS(Cart)=  0.00000160 RMS(Int)=  0.00103624
 Iteration  4 RMS(Cart)=  0.00000000 RMS(Int)=  0.00103624
 Variable       Old X    -DE/DX   Delta X   Delta X   Delta X     New X
                                 (Linear)    (Quad)   (Total)
    R1        4.13438   0.01746   0.00000  -0.16495  -0.16430   3.97008
    R2        2.34322  -0.00210   0.00000   0.01203   0.01300   2.35623
    R3        2.05756   0.00518   0.00000   0.00505   0.00505   2.06261
    R4        2.07232   0.00268   0.00000   0.00290   0.00290   2.07522
    R5        2.80269   0.01753   0.00000   0.02733   0.02733   2.83002
    R6        4.28162   0.00338   0.00000   0.03146   0.03020   4.31183
    R7        2.04420   0.00706   0.00000   0.00605   0.00605   2.05025
    R8        2.05359   0.00706   0.00000   0.00364   0.00369   2.05728
    R9        2.25766   0.02534   0.00000   0.00529   0.00529   2.26295
   R10        2.11607   0.00437   0.00000   0.00145   0.00145   2.11752
   R11        3.75404   0.03790   0.00000   0.12945   0.12949   3.88353
   R12        3.57097   0.01086   0.00000   0.03327   0.03305   3.60402
   R13        1.81503   0.00984   0.00000   0.00741   0.00709   1.82212
   R14        4.26091  -0.00484   0.00000  -0.04927  -0.04889   4.21202
    A1        1.61352   0.00706   0.00000   0.09516   0.09645   1.70997
    A2        1.67869  -0.02039   0.00000  -0.08971  -0.08999   1.58870
    A3        1.93747   0.00134   0.00000  -0.01554  -0.01810   1.91938
    A4        2.12006   0.00453   0.00000   0.00536   0.00795   2.12801
    A5        2.02751  -0.00183   0.00000  -0.00334  -0.00390   2.02361
    A6        1.98987   0.00428   0.00000   0.00344   0.00127   1.99114
    A7        1.56609   0.00443   0.00000   0.04384   0.04285   1.60895
    A8        1.15119   0.00204   0.00000   0.01794   0.01747   1.16866
    A9        1.87069  -0.00615   0.00000  -0.01388  -0.01447   1.85621
   A10        2.26830   0.00015   0.00000  -0.02468  -0.02445   2.24385
   A11        2.50612   0.00444   0.00000   0.06141   0.06068   2.56680
   A12        1.94530  -0.00079   0.00000  -0.00855  -0.00860   1.93670
   A13        1.82617   0.00192   0.00000   0.00462   0.00638   1.83255
   A14        1.77665  -0.00282   0.00000  -0.03749  -0.03795   1.73870
   A15        1.93829   0.00172   0.00000   0.00809   0.00720   1.94549
   A16        2.32330  -0.00091   0.00000  -0.00986  -0.00989   2.31341
   A17        1.89250   0.00037   0.00000   0.00258   0.00255   1.89505
   A18        2.06726   0.00053   0.00000   0.00705   0.00702   2.07427
   A19        1.65151  -0.00689   0.00000  -0.06441  -0.06322   1.58829
   A20        2.04203  -0.00548   0.00000  -0.04740  -0.04889   1.99314
   A21        1.28659   0.00190   0.00000  -0.01162  -0.01167   1.27492
   A22        2.47852  -0.01190   0.00000  -0.05421  -0.05459   2.42393
   A23        1.77023   0.00363   0.00000  -0.01086  -0.01146   1.75877
   A24        3.05587  -0.00899   0.00000  -0.06194  -0.06329   2.99258
   A25        3.34128   0.00528   0.00000   0.00677   0.00442   3.34570
    D1        2.83883  -0.00406   0.00000  -0.03748  -0.03713   2.80170
    D2       -0.79061  -0.00388   0.00000  -0.00970  -0.00830  -0.79890
    D3        0.87667  -0.00394   0.00000  -0.04135  -0.04027   0.83640
    D4       -1.54186   0.00247   0.00000   0.00049   0.00118  -1.54069
    D5       -1.31469  -0.00079   0.00000  -0.02795  -0.02962  -1.34431
    D6        1.33906  -0.00062   0.00000  -0.00017  -0.00078   1.33828
    D7        3.00633  -0.00068   0.00000  -0.03182  -0.03275   2.97358
    D8        0.58780   0.00573   0.00000   0.01002   0.00869   0.59649
    D9        0.75680  -0.00567   0.00000  -0.07387  -0.07386   0.68295
   D10       -2.87263  -0.00550   0.00000  -0.04609  -0.04502  -2.91766
   D11       -1.20536  -0.00556   0.00000  -0.07774  -0.07700  -1.28235
   D12        2.65929   0.00085   0.00000  -0.03590  -0.03555   2.62374
   D13        0.83719  -0.00567   0.00000  -0.01636  -0.01555   0.82164
   D14        1.16162  -0.01035   0.00000  -0.06394  -0.06214   1.09949
   D15       -0.88674   0.01336   0.00000   0.02925   0.02879  -0.85795
   D16       -0.56231   0.00867   0.00000  -0.01834  -0.01780  -0.58011
   D17        2.84234  -0.00067   0.00000   0.01832   0.01877   2.86111
   D18       -3.11641  -0.00536   0.00000  -0.02926  -0.02782   3.13896
   D19        0.18272   0.00484   0.00000   0.10055   0.10163   0.28436
   D20       -2.97695   0.00363   0.00000   0.08497   0.08606  -2.89089
   D21       -0.62278  -0.00204   0.00000   0.06003   0.05916  -0.56362
   D22        2.50073  -0.00325   0.00000   0.04446   0.04359   2.54432
   D23        2.07458  -0.00009   0.00000   0.10254   0.10247   2.17704
   D24       -1.08510  -0.00130   0.00000   0.08697   0.08689  -0.99821
   D25       -2.11238   0.00272   0.00000   0.11051   0.11036  -2.00202
   D26        1.01113   0.00151   0.00000   0.09493   0.09479   1.10592
   D27        0.48000  -0.00417   0.00000  -0.01063  -0.01309   0.46691
   D28        0.79856  -0.00514   0.00000  -0.03835  -0.03804   0.76053
   D29        1.39028   0.00319   0.00000   0.02943   0.02825   1.41853
   D30        1.70884   0.00222   0.00000   0.00170   0.00331   1.71215
   D31       -1.33039   0.00123   0.00000  -0.01256  -0.01405  -1.34444
   D32       -1.01182   0.00026   0.00000  -0.04028  -0.03900  -1.05082
   D33       -0.84280   0.00284   0.00000   0.07030   0.07015  -0.77265
   D34       -0.79963   0.00325   0.00000   0.08144   0.08267  -0.71696
         Item               Value     Threshold  Converged?
 Maximum Force            0.037900     0.000450     NO 
 RMS     Force            0.008105     0.000300     NO 
 Maximum Displacement     0.158664     0.001800     NO 
 RMS     Displacement     0.051121     0.001200     NO 
 Predicted change in Energy=-1.224314D-02
 GradGradGradGradGradGradGradGradGradGradGradGradGradGradGradGradGradGrad

                          Input orientation:                          
 ---------------------------------------------------------------------
 Center     Atomic      Atomic             Coordinates (Angstroms)
 Number     Number       Type             X           Y           Z
 ---------------------------------------------------------------------
      1          6           0        1.570735    1.589638   -2.526243
      2          6           0        0.505284    0.784306   -0.904538
      3          6           0        1.299314   -0.484970   -0.939187
      4          8           0        0.745044    2.462541   -2.859318
      5          8           0        0.540306    3.065758   -0.905463
      6          8           0        2.339784   -0.775389   -1.455994
      7          1           0        0.435103    3.793599   -1.529091
      8          1           0        2.421109    1.815931   -1.880493
      9          1           0        1.769038    0.806940   -3.270564
     10          1           0        0.770717   -1.253809   -0.318633
     11          1           0       -0.507459    0.618376   -1.256572
     12          1           0        0.518479    1.096483    0.138326
 ---------------------------------------------------------------------
                    Distance matrix (angstroms):
                    1          2          3          4          5
     1  C    0.000000
     2  C    2.100875   0.000000
     3  C    2.626102   1.497580   0.000000
     4  O    1.246861   2.587494   3.561171   0.000000
     5  O    2.422321   2.281720   3.631101   2.055075   0.000000
     6  O    2.707438   2.470251   1.197501   3.872558   4.277337
     7  H    2.672343   3.074221   4.404657   1.907166   0.964227
     8  H    1.091485   2.384769   2.727384   2.045824   2.459709
     9  H    1.098159   2.682474   2.706471   1.989649   3.493671
    10  H    3.687650   2.137207   1.120543   4.501888   4.365331
    11  H    2.621890   1.084947   2.140686   2.745634   2.685288
    12  H    2.906952   1.088665   2.066817   3.302016   2.228904
                    6          7          8          9         10
     6  O    0.000000
     7  H    4.950637   0.000000
     8  H    2.627118   2.824691   0.000000
     9  H    2.474304   3.705704   1.837269   0.000000
    10  H    1.996108   5.201363   3.819227   3.735937   0.000000
    11  H    3.176341   3.323362   3.224892   3.045350   2.453271
    12  H    3.059888   3.172013   2.865874   3.642562   2.407553
                   11         12
    11  H    0.000000
    12  H    1.796351   0.000000
 Stoichiometry    C3H6O3
 Framework group  C1[X(C3H6O3)]
 Deg. of freedom    30
 Full point group                 C1      NOp   1
 Largest Abelian subgroup         C1      NOp   1
 Largest concise Abelian subgroup C1      NOp   1
                         Standard orientation:                         
 ---------------------------------------------------------------------
 Center     Atomic      Atomic             Coordinates (Angstroms)
 Number     Number       Type             X           Y           Z
 ---------------------------------------------------------------------
      1          6           0       -0.437282   -1.022957   -0.093713
      2          6           0        0.301083    0.889994    0.363572
      3          6           0        1.719255    0.453997    0.160000
      4          8           0       -1.560809   -0.905421    0.434053
      5          8           0       -1.827615    0.927058   -0.457110
      6          8           0        2.203909   -0.499874   -0.377819
      7          1           0       -2.655701    0.444715   -0.350564
      8          1           0       -0.279483   -0.850465   -1.159867
      9          1           0        0.218252   -1.791077    0.337820
     10          1           0        2.397962    1.232133    0.595290
     11          1           0        0.092721    1.054428    1.415550
     12          1           0        0.204035    1.809970   -0.210378
 ---------------------------------------------------------------------
 Rotational constants (GHZ):           6.3132835           2.1359623           1.7571982
 Standard basis: 6-31+G(d) (6D, 7F)
 There are   126 symmetry adapted cartesian basis functions of A   symmetry.
 There are   126 symmetry adapted basis functions of A   symmetry.
   126 basis functions,   216 primitive gaussians,   126 cartesian basis functions
    24 alpha electrons       24 beta electrons
       nuclear repulsion energy       232.6245419344 Hartrees.
 NAtoms=   12 NActive=   12 NUniq=   12 SFac= 1.00D+00 NAtFMM=   60 NAOKFM=F Big=F
 Integral buffers will be    131072 words long.
 Raffenetti 2 integral format.
 Two-electron integral symmetry is turned on.
 One-electron integrals computed using PRISM.
 NBasis=   126 RedAO= T EigKep=  1.27D-04  NBF=   126
 NBsUse=   126 1.00D-06 EigRej= -1.00D+00 NBFU=   126
 Initial guess from the checkpoint file:  "/scratch/bell/zhao922/YARP/paper-example/KHP-network/pp_0/TS-folder/Gau-2483.chk"
 B after Tr=    -0.000000   -0.000000    0.000000
         Rot=    0.999838   -0.017803    0.001862   -0.002018 Ang=  -2.06 deg.
 ExpMin= 4.38D-02 ExpMax= 5.48D+03 ExpMxC= 8.25D+02 IAcc=3 IRadAn=         5 AccDes= 0.00D+00
 Harris functional with IExCor=  402 and IRadAn=       5 diagonalized for initial guess.
 HarFok:  IExCor=  402 AccDes= 0.00D+00 IRadAn=         5 IDoV= 1 UseB2=F ITyADJ=14
 ICtDFT=  3500011 ScaDFX=  1.000000  1.000000  1.000000  1.000000
 FoFCou: FMM=F IPFlag=           0 FMFlag=      100000 FMFlg1=           0
         NFxFlg=           0 DoJE=T BraDBF=F KetDBF=T FulRan=T
         wScrn=  0.000000 ICntrl=       500 IOpCl=  0 I1Cent=   200000004 NGrid=           0
         NMat0=    1 NMatS0=      1 NMatT0=    0 NMatD0=    1 NMtDS0=    0 NMtDT0=    0
 Petite list used in FoFCou.
 Keep R1 ints in memory in canonical form, NReq=47237561.
 Requested convergence on RMS density matrix=1.00D-08 within 128 cycles.
 Requested convergence on MAX density matrix=1.00D-06.
 Requested convergence on             energy=1.00D-06.
 No special actions if energy rises.
 SCF Done:  E(RB3LYP) =  -343.330857269     A.U. after   14 cycles
            NFock= 14  Conv=0.88D-08     -V/T= 2.0084
 DoSCS=F DFT=T ScalE2(SS,OS)=  1.000000  1.000000
 Range of M.O.s used for correlation:     1   126
 NBasis=   126 NAE=    24 NBE=    24 NFC=     0 NFV=     0
 NROrb=    126 NOA=    24 NOB=    24 NVA=   102 NVB=   102

 **** Warning!!: The largest alpha MO coefficient is  0.30262419D+02


 **** Warning!!: The smallest alpha delta epsilon is  0.52751692D-01

 Symmetrizing basis deriv contribution to polar:
 IMax=3 JMax=2 DiffMx= 0.00D+00
 G2DrvN: will do    13 centers at a time, making    1 passes.
 Calling FoFCou, ICntrl=  3107 FMM=F I1Cent=   0 AccDes= 0.00D+00.
 End of G2Drv F.D. properties file   721 does not exist.
 End of G2Drv F.D. properties file   722 does not exist.
 End of G2Drv F.D. properties file   788 does not exist.
          IDoAtm=111111111111
          Differentiating once with respect to electric field.
                with respect to dipole field.
          Differentiating once with respect to nuclear coordinates.
 Keep R1 ints in memory in canonical form, NReq=47193576.
          There are    39 degrees of freedom in the 1st order CPHF.  IDoFFX=6 NUNeed=     3.
     36 vectors produced by pass  0 Test12= 6.28D-15 2.56D-09 XBig12= 8.63D+02 2.75D+01.
 AX will form    36 AO Fock derivatives at one time.
     36 vectors produced by pass  1 Test12= 6.28D-15 2.56D-09 XBig12= 3.49D+02 3.46D+00.
     36 vectors produced by pass  2 Test12= 6.28D-15 2.56D-09 XBig12= 6.60D+00 4.10D-01.
     36 vectors produced by pass  3 Test12= 6.28D-15 2.56D-09 XBig12= 3.16D-02 4.13D-02.
     36 vectors produced by pass  4 Test12= 6.28D-15 2.56D-09 XBig12= 6.31D-05 1.15D-03.
     32 vectors produced by pass  5 Test12= 6.28D-15 2.56D-09 XBig12= 7.55D-08 3.38D-05.
      4 vectors produced by pass  6 Test12= 6.28D-15 2.56D-09 XBig12= 5.77D-11 8.68D-07.
      3 vectors produced by pass  7 Test12= 6.28D-15 2.56D-09 XBig12= 4.47D-14 3.57D-08.
 InvSVY:  IOpt=1 It=  1 EMax= 3.55D-15
 Solved reduced A of dimension   219 with    39 vectors.
 Isotropic polarizability for W=    0.000000       73.07 Bohr**3.
 End of Minotr F.D. properties file   721 does not exist.
 End of Minotr F.D. properties file   722 does not exist.
 End of Minotr F.D. properties file   788 does not exist.
 Calling FoFJK, ICntrl=    100127 FMM=F ISym2X=0 I1Cent= 0 IOpClX= 0 NMat=1 NMatS=1 NMatT=0.
 ***** Axes restored to original set *****
 -------------------------------------------------------------------
 Center     Atomic                   Forces (Hartrees/Bohr)
 Number     Number              X              Y              Z
 -------------------------------------------------------------------
      1        6          -0.006426431    0.015706975   -0.030722107
      2        6           0.011502531   -0.006443779    0.006952322
      3        6          -0.013032766   -0.008227436    0.006543669
      4        8           0.003973667   -0.016561200   -0.038863613
      5        8          -0.000981299    0.010027645    0.050312554
      6        8           0.016270174   -0.001891461   -0.004585518
      7        1          -0.002176807    0.003147640   -0.004129553
      8        1          -0.005634829   -0.005325336    0.015494171
      9        1           0.003627535   -0.003375616    0.002067989
     10        1          -0.001877787   -0.002144524    0.000578170
     11        1          -0.004737018    0.005329818   -0.003182447
     12        1          -0.000506970    0.009757273   -0.000465637
 -------------------------------------------------------------------
 Cartesian Forces:  Max     0.050312554 RMS     0.013927234
 FormGI is forming the generalized inverse of G from B-inverse, IUseBI=4.

 GradGradGradGradGradGradGradGradGradGradGradGradGradGradGradGradGradGrad
 Berny optimization.
 Internal  Forces:  Max     0.028756536 RMS     0.005910553
 Search for a saddle point.
 Step number   2 out of a maximum of  100
 All quantities printed in internal units (Hartrees-Bohrs-Radians)
 Swapping is turned off.
 Second derivative matrix not updated -- analytic derivatives used.
 ITU=  0  0
     Eigenvalues ---   -0.16451  -0.00575  -0.00162  -0.00071   0.00318
     Eigenvalues ---    0.00955   0.01108   0.01772   0.02130   0.02313
     Eigenvalues ---    0.02916   0.03266   0.03602   0.04168   0.04278
     Eigenvalues ---    0.04921   0.05934   0.07760   0.11897   0.13241
     Eigenvalues ---    0.18912   0.28634   0.30027   0.33034   0.33137
     Eigenvalues ---    0.34437   0.36748   0.49178   0.55113   0.93673
 Eigenvectors required to have negative eigenvalues:
                          R1        R11       R6        A22       R2
   1                    0.52030   0.44135  -0.32385  -0.20522  -0.18179
                          D18       D17       A10       R14       A24
   1                   -0.18016  -0.17619   0.15945  -0.15358  -0.13949
 RFO step:  Lambda0=3.115928157D-03 Lambda=-2.45507885D-02.
 Linear search not attempted -- option 19 set.
 Maximum step size (   0.300) exceeded in Quadratic search.
    -- Step size scaled by   0.414
 Iteration  1 RMS(Cart)=  0.05201235 RMS(Int)=  0.00215867
 Iteration  2 RMS(Cart)=  0.00199989 RMS(Int)=  0.00076108
 Iteration  3 RMS(Cart)=  0.00000447 RMS(Int)=  0.00076106
 Iteration  4 RMS(Cart)=  0.00000000 RMS(Int)=  0.00076106
 Variable       Old X    -DE/DX   Delta X   Delta X   Delta X     New X
                                 (Linear)    (Quad)   (Total)
    R1        3.97008   0.01066   0.00000  -0.16984  -0.16950   3.80058
    R2        2.35623  -0.00224   0.00000   0.01094   0.01161   2.36784
    R3        2.06261   0.00367   0.00000   0.00635   0.00635   2.06895
    R4        2.07522   0.00166   0.00000   0.00317   0.00317   2.07839
    R5        2.83002   0.01106   0.00000   0.01876   0.01876   2.84878
    R6        4.31183   0.00349   0.00000   0.06184   0.06111   4.37294
    R7        2.05025   0.00464   0.00000   0.00431   0.00431   2.05457
    R8        2.05728   0.00482   0.00000   0.00164   0.00187   2.05915
    R9        2.26295   0.01657   0.00000   0.00477   0.00477   2.26771
   R10        2.11752   0.00268   0.00000  -0.00173  -0.00173   2.11579
   R11        3.88353   0.02876   0.00000   0.13742   0.13757   4.02110
   R12        3.60402   0.00894   0.00000   0.04940   0.04931   3.65334
   R13        1.82212   0.00634   0.00000   0.00604   0.00577   1.82790
   R14        4.21202  -0.00466   0.00000  -0.06901  -0.06900   4.14302
    A1        1.70997   0.00573   0.00000   0.08288   0.08356   1.79353
    A2        1.58870  -0.01508   0.00000  -0.04772  -0.04788   1.54082
    A3        1.91938   0.00053   0.00000  -0.02549  -0.02721   1.89217
    A4        2.12801   0.00352   0.00000   0.00049   0.00143   2.12944
    A5        2.02361  -0.00087   0.00000   0.00125   0.00129   2.02490
    A6        1.99114   0.00227   0.00000  -0.00954  -0.01080   1.98034
    A7        1.60895   0.00291   0.00000   0.03256   0.03245   1.64140
    A8        1.16866   0.00200   0.00000   0.02231   0.02194   1.19060
    A9        1.85621  -0.00479   0.00000  -0.01672  -0.01736   1.83885
   A10        2.24385  -0.00018   0.00000  -0.02219  -0.02211   2.22174
   A11        2.56680   0.00327   0.00000   0.01867   0.01673   2.58352
   A12        1.93670  -0.00004   0.00000   0.00524   0.00502   1.94172
   A13        1.83255   0.00205   0.00000   0.00716   0.00814   1.84069
   A14        1.73870  -0.00257   0.00000  -0.00475  -0.00502   1.73368
   A15        1.94549   0.00105   0.00000   0.00476   0.00386   1.94936
   A16        2.31341  -0.00176   0.00000  -0.02165  -0.02169   2.29172
   A17        1.89505   0.00082   0.00000   0.01281   0.01277   1.90782
   A18        2.07427   0.00092   0.00000   0.00837   0.00832   2.08260
   A19        1.58829  -0.00459   0.00000  -0.04717  -0.04607   1.54222
   A20        1.99314  -0.00419   0.00000  -0.04059  -0.04149   1.95166
   A21        1.27492   0.00036   0.00000  -0.03045  -0.03019   1.24473
   A22        2.42393  -0.00942   0.00000  -0.06729  -0.06737   2.35655
   A23        1.75877   0.00145   0.00000  -0.03094  -0.03158   1.72719
   A24        2.99258  -0.00766   0.00000  -0.07233  -0.07398   2.91860
   A25        3.34570   0.00365   0.00000   0.01970   0.01729   3.36299
    D1        2.80170  -0.00258   0.00000   0.01024   0.00990   2.81160
    D2       -0.79890  -0.00233   0.00000  -0.01086  -0.00993  -0.80883
    D3        0.83640  -0.00272   0.00000  -0.00342  -0.00304   0.83336
    D4       -1.54069   0.00261   0.00000   0.04029   0.04038  -1.50031
    D5       -1.34431  -0.00105   0.00000   0.01142   0.01029  -1.33401
    D6        1.33828  -0.00080   0.00000  -0.00969  -0.00954   1.32874
    D7        2.97358  -0.00119   0.00000  -0.00224  -0.00265   2.97093
    D8        0.59649   0.00414   0.00000   0.04147   0.04078   0.63727
    D9        0.68295  -0.00472   0.00000  -0.02371  -0.02383   0.65911
   D10       -2.91766  -0.00447   0.00000  -0.04481  -0.04366  -2.96132
   D11       -1.28235  -0.00487   0.00000  -0.03736  -0.03677  -1.31913
   D12        2.62374   0.00046   0.00000   0.00634   0.00665   2.63039
   D13        0.82164  -0.00383   0.00000  -0.00194  -0.00200   0.81964
   D14        1.09949  -0.00759   0.00000  -0.04158  -0.04046   1.05902
   D15       -0.85795   0.00980   0.00000   0.00184   0.00126  -0.85669
   D16       -0.58011   0.00603   0.00000  -0.03780  -0.03720  -0.61731
   D17        2.86111  -0.00002   0.00000   0.01948   0.01969   2.88080
   D18        3.13896  -0.00379   0.00000  -0.02015  -0.01877   3.12018
   D19        0.28436   0.00442   0.00000   0.13495   0.13551   0.41987
   D20       -2.89089   0.00347   0.00000   0.11763   0.11820  -2.77270
   D21       -0.56362  -0.00169   0.00000   0.04310   0.04283  -0.52079
   D22        2.54432  -0.00264   0.00000   0.02579   0.02552   2.56983
   D23        2.17704   0.00044   0.00000   0.13126   0.13134   2.30838
   D24       -0.99821  -0.00052   0.00000   0.11395   0.11402  -0.88419
   D25       -2.00202   0.00291   0.00000   0.14410   0.14373  -1.85829
   D26        1.10592   0.00195   0.00000   0.12678   0.12642   1.23233
   D27        0.46691  -0.00353   0.00000  -0.01134  -0.01286   0.45405
   D28        0.76053  -0.00392   0.00000  -0.04004  -0.03938   0.72115
   D29        1.41853   0.00269   0.00000   0.08728   0.08649   1.50503
   D30        1.71215   0.00229   0.00000   0.05858   0.05997   1.77212
   D31       -1.34444   0.00052   0.00000   0.00342   0.00242  -1.34202
   D32       -1.05082   0.00013   0.00000  -0.02527  -0.02410  -1.07492
   D33       -0.77265   0.00253   0.00000   0.05972   0.05979  -0.71286
   D34       -0.71696   0.00310   0.00000   0.05851   0.05915  -0.65782
         Item               Value     Threshold  Converged?
 Maximum Force            0.028757     0.000450     NO 
 RMS     Force            0.005911     0.000300     NO 
 Maximum Displacement     0.174160     0.001800     NO 
 RMS     Displacement     0.052081     0.001200     NO 
 Predicted change in Energy=-9.361804D-03
 GradGradGradGradGradGradGradGradGradGradGradGradGradGradGradGradGradGrad

                          Input orientation:                          
 ---------------------------------------------------------------------
 Center     Atomic      Atomic             Coordinates (Angstroms)
 Number     Number       Type             X           Y           Z
 ---------------------------------------------------------------------
      1          6           0        1.512853    1.570619   -2.507960
      2          6           0        0.535158    0.790583   -0.932999
      3          6           0        1.321325   -0.495633   -0.946200
      4          8           0        0.736655    2.474697   -2.895492
      5          8           0        0.556529    3.103706   -0.870705
      6          8           0        2.413316   -0.752194   -1.372566
      7          1           0        0.444161    3.806868   -1.525357
      8          1           0        2.356121    1.776356   -1.840686
      9          1           0        1.711142    0.763463   -3.228251
     10          1           0        0.741245   -1.289620   -0.410794
     11          1           0       -0.484332    0.632868   -1.276269
     12          1           0        0.563282    1.137692    0.099510
 ---------------------------------------------------------------------
                    Distance matrix (angstroms):
                    1          2          3          4          5
     1  C    0.000000
     2  C    2.011180   0.000000
     3  C    2.597147   1.507510   0.000000
     4  O    1.253006   2.593881   3.600617   0.000000
     5  O    2.438342   2.314060   3.680469   2.127876   0.000000
     6  O    2.737774   2.469991   1.200023   3.942502   4.309000
     7  H    2.666162   3.075247   4.429036   1.933262   0.967281
     8  H    1.094843   2.260874   2.651951   2.054986   2.437468
     9  H    1.099835   2.579119   2.635344   1.997167   3.516800
    10  H    3.629662   2.154626   1.119628   4.510413   4.421193
    11  H    2.526893   1.087229   2.154730   2.739530   2.711625
    12  H    2.808560   1.089656   2.082280   3.284460   2.192390
                    6          7          8          9         10
     6  O    0.000000
     7  H    4.968497   0.000000
     8  H    2.572153   2.806778   0.000000
     9  H    2.496764   3.710445   1.835017   0.000000
    10  H    2.002412   5.225390   3.748683   3.618551   0.000000
    11  H    3.213103   3.316386   3.113567   2.940645   2.438657
    12  H    3.026764   3.127120   2.717816   3.540003   2.486750
                   11         12
    11  H    0.000000
    12  H    1.801419   0.000000
 Stoichiometry    C3H6O3
 Framework group  C1[X(C3H6O3)]
 Deg. of freedom    30
 Full point group                 C1      NOp   1
 Largest Abelian subgroup         C1      NOp   1
 Largest concise Abelian subgroup C1      NOp   1
                         Standard orientation:                         
 ---------------------------------------------------------------------
 Center     Atomic      Atomic             Coordinates (Angstroms)
 Number     Number       Type             X           Y           Z
 ---------------------------------------------------------------------
      1          6           0       -0.429541   -0.981649   -0.078080
      2          6           0        0.295477    0.830944    0.405347
      3          6           0        1.734164    0.426004    0.208395
      4          8           0       -1.584827   -0.955862    0.406350
      5          8           0       -1.842882    0.966534   -0.468670
      6          8           0        2.228587   -0.444279   -0.453578
      7          1           0       -2.657196    0.454417   -0.367369
      8          1           0       -0.235370   -0.742695   -1.128737
      9          1           0        0.247514   -1.746611    0.329434
     10          1           0        2.397469    1.130126    0.772139
     11          1           0        0.063726    0.962009    1.459473
     12          1           0        0.176232    1.759815   -0.151726
 ---------------------------------------------------------------------
 Rotational constants (GHZ):           6.3076099           2.0834332           1.7404295
 Standard basis: 6-31+G(d) (6D, 7F)
 There are   126 symmetry adapted cartesian basis functions of A   symmetry.
 There are   126 symmetry adapted basis functions of A   symmetry.
   126 basis functions,   216 primitive gaussians,   126 cartesian basis functions
    24 alpha electrons       24 beta electrons
       nuclear repulsion energy       231.8082338190 Hartrees.
 NAtoms=   12 NActive=   12 NUniq=   12 SFac= 1.00D+00 NAtFMM=   60 NAOKFM=F Big=F
 Integral buffers will be    131072 words long.
 Raffenetti 2 integral format.
 Two-electron integral symmetry is turned on.
 One-electron integrals computed using PRISM.
 NBasis=   126 RedAO= T EigKep=  1.32D-04  NBF=   126
 NBsUse=   126 1.00D-06 EigRej= -1.00D+00 NBFU=   126
 Initial guess from the checkpoint file:  "/scratch/bell/zhao922/YARP/paper-example/KHP-network/pp_0/TS-folder/Gau-2483.chk"
 B after Tr=     0.000000   -0.000000   -0.000000
         Rot=    0.999772   -0.021248    0.001435   -0.001498 Ang=  -2.45 deg.
 ExpMin= 4.38D-02 ExpMax= 5.48D+03 ExpMxC= 8.25D+02 IAcc=3 IRadAn=         5 AccDes= 0.00D+00
 Harris functional with IExCor=  402 and IRadAn=       5 diagonalized for initial guess.
 HarFok:  IExCor=  402 AccDes= 0.00D+00 IRadAn=         5 IDoV= 1 UseB2=F ITyADJ=14
 ICtDFT=  3500011 ScaDFX=  1.000000  1.000000  1.000000  1.000000
 FoFCou: FMM=F IPFlag=           0 FMFlag=      100000 FMFlg1=           0
         NFxFlg=           0 DoJE=T BraDBF=F KetDBF=T FulRan=T
         wScrn=  0.000000 ICntrl=       500 IOpCl=  0 I1Cent=   200000004 NGrid=           0
         NMat0=    1 NMatS0=      1 NMatT0=    0 NMatD0=    1 NMtDS0=    0 NMtDT0=    0
 Petite list used in FoFCou.
 Keep R1 ints in memory in canonical form, NReq=47237561.
 Requested convergence on RMS density matrix=1.00D-08 within 128 cycles.
 Requested convergence on MAX density matrix=1.00D-06.
 Requested convergence on             energy=1.00D-06.
 No special actions if energy rises.
 SCF Done:  E(RB3LYP) =  -343.340104186     A.U. after   15 cycles
            NFock= 15  Conv=0.43D-08     -V/T= 2.0087
 DoSCS=F DFT=T ScalE2(SS,OS)=  1.000000  1.000000
 Range of M.O.s used for correlation:     1   126
 NBasis=   126 NAE=    24 NBE=    24 NFC=     0 NFV=     0
 NROrb=    126 NOA=    24 NOB=    24 NVA=   102 NVB=   102

 **** Warning!!: The largest alpha MO coefficient is  0.27565696D+02


 **** Warning!!: The smallest alpha delta epsilon is  0.54828542D-01

 Symmetrizing basis deriv contribution to polar:
 IMax=3 JMax=2 DiffMx= 0.00D+00
 G2DrvN: will do    13 centers at a time, making    1 passes.
 Calling FoFCou, ICntrl=  3107 FMM=F I1Cent=   0 AccDes= 0.00D+00.
 End of G2Drv F.D. properties file   721 does not exist.
 End of G2Drv F.D. properties file   722 does not exist.
 End of G2Drv F.D. properties file   788 does not exist.
          IDoAtm=111111111111
          Differentiating once with respect to electric field.
                with respect to dipole field.
          Differentiating once with respect to nuclear coordinates.
 Keep R1 ints in memory in canonical form, NReq=47193576.
          There are    39 degrees of freedom in the 1st order CPHF.  IDoFFX=6 NUNeed=     3.
     36 vectors produced by pass  0 Test12= 6.28D-15 2.56D-09 XBig12= 8.18D+02 2.63D+01.
 AX will form    36 AO Fock derivatives at one time.
     36 vectors produced by pass  1 Test12= 6.28D-15 2.56D-09 XBig12= 3.04D+02 3.46D+00.
     36 vectors produced by pass  2 Test12= 6.28D-15 2.56D-09 XBig12= 6.72D+00 4.31D-01.
     36 vectors produced by pass  3 Test12= 6.28D-15 2.56D-09 XBig12= 3.37D-02 3.78D-02.
     36 vectors produced by pass  4 Test12= 6.28D-15 2.56D-09 XBig12= 6.50D-05 9.85D-04.
     29 vectors produced by pass  5 Test12= 6.28D-15 2.56D-09 XBig12= 7.50D-08 4.31D-05.
      4 vectors produced by pass  6 Test12= 6.28D-15 2.56D-09 XBig12= 6.26D-11 1.23D-06.
      3 vectors produced by pass  7 Test12= 6.28D-15 2.56D-09 XBig12= 6.06D-14 5.32D-08.
 InvSVY:  IOpt=1 It=  1 EMax= 7.99D-15
 Solved reduced A of dimension   216 with    39 vectors.
 Isotropic polarizability for W=    0.000000       73.85 Bohr**3.
 End of Minotr F.D. properties file   721 does not exist.
 End of Minotr F.D. properties file   722 does not exist.
 End of Minotr F.D. properties file   788 does not exist.
 Calling FoFJK, ICntrl=    100127 FMM=F ISym2X=0 I1Cent= 0 IOpClX= 0 NMat=1 NMatS=1 NMatT=0.
 ***** Axes restored to original set *****
 -------------------------------------------------------------------
 Center     Atomic                   Forces (Hartrees/Bohr)
 Number     Number              X              Y              Z
 -------------------------------------------------------------------
      1        6          -0.008468665    0.007763317   -0.020118026
      2        6           0.010980060   -0.007132062    0.000728736
      3        6          -0.009896408   -0.006137081    0.004738296
      4        8           0.003502217   -0.011952766   -0.027606729
      5        8          -0.000499739    0.009265137    0.037380840
      6        8           0.010880103    0.000036009   -0.001007482
      7        1          -0.001877282    0.001680747   -0.002238368
      8        1          -0.003716142   -0.002943236    0.009978020
      9        1           0.003819357   -0.001781938    0.001578445
     10        1          -0.001484202   -0.001608930   -0.000794195
     11        1          -0.003509433    0.004443783   -0.000781546
     12        1           0.000270133    0.008367020   -0.001857991
 -------------------------------------------------------------------
 Cartesian Forces:  Max     0.037380840 RMS     0.010072086
 FormGI is forming the generalized inverse of G from B-inverse, IUseBI=4.

 GradGradGradGradGradGradGradGradGradGradGradGradGradGradGradGradGradGrad
 Berny optimization.
 Internal  Forces:  Max     0.020648489 RMS     0.004112095
 Search for a saddle point.
 Step number   3 out of a maximum of  100
 All quantities printed in internal units (Hartrees-Bohrs-Radians)
 Swapping is turned off.
 Second derivative matrix not updated -- analytic derivatives used.
 ITU=  0  0  0
     Eigenvalues ---   -0.14672  -0.00467  -0.00104  -0.00012   0.00311
     Eigenvalues ---    0.00864   0.01166   0.01819   0.02035   0.02360
     Eigenvalues ---    0.03150   0.03189   0.03537   0.04141   0.04270
     Eigenvalues ---    0.05000   0.06715   0.08079   0.11544   0.13050
     Eigenvalues ---    0.18431   0.28738   0.29137   0.32549   0.33055
     Eigenvalues ---    0.33426   0.36238   0.48668   0.53155   0.91960
 Eigenvectors required to have negative eigenvalues:
                          R1        R11       R6        A22       D18
   1                    0.52964   0.44416  -0.31782  -0.19900  -0.18830
                          R2        D17       A10       R14       A24
   1                   -0.17996  -0.17911   0.15860  -0.14202  -0.13637
 RFO step:  Lambda0=1.584301453D-03 Lambda=-1.73359995D-02.
 Linear search not attempted -- option 19 set.
 Maximum step size (   0.300) exceeded in Quadratic search.
    -- Step size scaled by   0.371
 Iteration  1 RMS(Cart)=  0.03841462 RMS(Int)=  0.00184571
 Iteration  2 RMS(Cart)=  0.00150170 RMS(Int)=  0.00082432
 Iteration  3 RMS(Cart)=  0.00000332 RMS(Int)=  0.00082432
 Iteration  4 RMS(Cart)=  0.00000000 RMS(Int)=  0.00082432
 Variable       Old X    -DE/DX   Delta X   Delta X   Delta X     New X
                                 (Linear)    (Quad)   (Total)
    R1        3.80058   0.00572   0.00000  -0.17486  -0.17447   3.62611
    R2        2.36784  -0.00148   0.00000   0.01381   0.01363   2.38146
    R3        2.06895   0.00267   0.00000   0.00773   0.00773   2.07669
    R4        2.07839   0.00096   0.00000   0.00135   0.00135   2.07974
    R5        2.84878   0.00629   0.00000   0.01555   0.01555   2.86433
    R6        4.37294   0.00367   0.00000   0.01760   0.01693   4.38987
    R7        2.05457   0.00289   0.00000   0.00209   0.00209   2.05666
    R8        2.05915   0.00303   0.00000   0.00074   0.00069   2.05985
    R9        2.26771   0.01025   0.00000   0.00168   0.00168   2.26939
   R10        2.11579   0.00153   0.00000  -0.00280  -0.00280   2.11299
   R11        4.02110   0.02065   0.00000   0.14015   0.14005   4.16116
   R12        3.65334   0.00716   0.00000   0.02780   0.02743   3.68077
   R13        1.82790   0.00390   0.00000   0.00410   0.00417   1.83207
   R14        4.14302  -0.00422   0.00000  -0.08443  -0.08352   4.05949
    A1        1.79353   0.00406   0.00000   0.06297   0.06339   1.85692
    A2        1.54082  -0.00995   0.00000   0.00173   0.00195   1.54278
    A3        1.89217   0.00048   0.00000  -0.01361  -0.01441   1.87775
    A4        2.12944   0.00241   0.00000  -0.00939  -0.01060   2.11884
    A5        2.02490  -0.00035   0.00000  -0.00390  -0.00427   2.02063
    A6        1.98034   0.00090   0.00000  -0.01874  -0.01905   1.96129
    A7        1.64140   0.00174   0.00000   0.02255   0.02066   1.66205
    A8        1.19060   0.00189   0.00000   0.03563   0.03565   1.22625
    A9        1.83885  -0.00324   0.00000   0.00418   0.00441   1.84326
   A10        2.22174  -0.00061   0.00000  -0.02039  -0.01997   2.20177
   A11        2.58352   0.00217   0.00000   0.03268   0.03084   2.61436
   A12        1.94172   0.00038   0.00000   0.00511   0.00462   1.94634
   A13        1.84069   0.00195   0.00000  -0.00199   0.00001   1.84069
   A14        1.73368  -0.00208   0.00000  -0.02076  -0.02165   1.71203
   A15        1.94936   0.00046   0.00000  -0.00305  -0.00383   1.94553
   A16        2.29172  -0.00233   0.00000  -0.01790  -0.01792   2.27379
   A17        1.90782   0.00126   0.00000   0.00903   0.00901   1.91682
   A18        2.08260   0.00104   0.00000   0.00831   0.00828   2.09088
   A19        1.54222  -0.00271   0.00000  -0.03824  -0.03808   1.50414
   A20        1.95166  -0.00285   0.00000  -0.03783  -0.03958   1.91207
   A21        1.24473  -0.00059   0.00000  -0.03485  -0.03457   1.21016
   A22        2.35655  -0.00707   0.00000  -0.08522  -0.08532   2.27123
   A23        1.72719  -0.00008   0.00000  -0.03477  -0.03529   1.69190
   A24        2.91860  -0.00625   0.00000  -0.09331  -0.09475   2.82385
   A25        3.36299   0.00236   0.00000   0.00934   0.00580   3.36879
    D1        2.81160  -0.00148   0.00000  -0.01229  -0.01301   2.79859
    D2       -0.80883  -0.00123   0.00000  -0.01019  -0.00945  -0.81828
    D3        0.83336  -0.00183   0.00000  -0.02593  -0.02581   0.80755
    D4       -1.50031   0.00234   0.00000  -0.00373  -0.00366  -1.50396
    D5       -1.33401  -0.00104   0.00000  -0.01470  -0.01520  -1.34921
    D6        1.32874  -0.00079   0.00000  -0.01261  -0.01165   1.31710
    D7        2.97093  -0.00139   0.00000  -0.02834  -0.02800   2.94293
    D8        0.63727   0.00279   0.00000  -0.00614  -0.00585   0.63142
    D9        0.65911  -0.00353   0.00000  -0.03556  -0.03626   0.62285
   D10       -2.96132  -0.00328   0.00000  -0.03346  -0.03271  -2.99402
   D11       -1.31913  -0.00387   0.00000  -0.04920  -0.04906  -1.36819
   D12        2.63039   0.00030   0.00000  -0.02700  -0.02691   2.60348
   D13        0.81964  -0.00245   0.00000  -0.00618  -0.00650   0.81314
   D14        1.05902  -0.00517   0.00000  -0.04015  -0.03936   1.01967
   D15       -0.85669   0.00629   0.00000  -0.04661  -0.04685  -0.90354
   D16       -0.61731   0.00357   0.00000  -0.08058  -0.07971  -0.69701
   D17        2.88080   0.00069   0.00000   0.01755   0.01730   2.89811
   D18        3.12018  -0.00203   0.00000  -0.01641  -0.01556   3.10463
   D19        0.41987   0.00364   0.00000   0.08490   0.08537   0.50524
   D20       -2.77270   0.00301   0.00000   0.07194   0.07241  -2.70028
   D21       -0.52079  -0.00150   0.00000  -0.00087  -0.00150  -0.52229
   D22        2.56983  -0.00213   0.00000  -0.01382  -0.01445   2.55538
   D23        2.30838   0.00093   0.00000   0.10025   0.10031   2.40869
   D24       -0.88419   0.00030   0.00000   0.08729   0.08736  -0.79683
   D25       -1.85829   0.00291   0.00000   0.09818   0.09827  -1.76002
   D26        1.23233   0.00228   0.00000   0.08522   0.08532   1.31765
   D27        0.45405  -0.00259   0.00000  -0.01063  -0.01140   0.44265
   D28        0.72115  -0.00269   0.00000  -0.03844  -0.03723   0.68391
   D29        1.50503   0.00242   0.00000   0.07099   0.07062   1.57565
   D30        1.77212   0.00232   0.00000   0.04318   0.04479   1.81691
   D31       -1.34202  -0.00001   0.00000  -0.02561  -0.02619  -1.36821
   D32       -1.07492  -0.00012   0.00000  -0.05343  -0.05203  -1.12695
   D33       -0.71286   0.00202   0.00000   0.05039   0.05017  -0.66269
   D34       -0.65782   0.00256   0.00000   0.06298   0.06354  -0.59428
         Item               Value     Threshold  Converged?
 Maximum Force            0.020648     0.000450     NO 
 RMS     Force            0.004112     0.000300     NO 
 Maximum Displacement     0.134307     0.001800     NO 
 RMS     Displacement     0.038566     0.001200     NO 
 Predicted change in Energy=-6.243368D-03
 GradGradGradGradGradGradGradGradGradGradGradGradGradGradGradGradGradGrad

                          Input orientation:                          
 ---------------------------------------------------------------------
 Center     Atomic      Atomic             Coordinates (Angstroms)
 Number     Number       Type             X           Y           Z
 ---------------------------------------------------------------------
      1          6           0        1.474819    1.547661   -2.478238
      2          6           0        0.562669    0.806751   -0.961318
      3          6           0        1.330330   -0.500213   -0.963342
      4          8           0        0.736798    2.467392   -2.922720
      5          8           0        0.547704    3.126012   -0.830061
      6          8           0        2.447164   -0.744076   -1.331306
      7          1           0        0.431600    3.790567   -1.526332
      8          1           0        2.327560    1.765431   -1.820160
      9          1           0        1.684093    0.722700   -3.175988
     10          1           0        0.716551   -1.301279   -0.481867
     11          1           0       -0.468195    0.664695   -1.280092
     12          1           0        0.616360    1.173763    0.063656
 ---------------------------------------------------------------------
                    Distance matrix (angstroms):
                    1          2          3          4          5
     1  C    0.000000
     2  C    1.918857   0.000000
     3  C    2.551388   1.515739   0.000000
     4  O    1.260216   2.575878   3.605291   0.000000
     5  O    2.463173   2.323021   3.712113   2.201990   0.000000
     6  O    2.740979   2.468456   1.200910   3.971332   4.340135
     7  H    2.650482   3.039668   4.419895   1.947778   0.969488
     8  H    1.098936   2.184380   2.619494   2.058862   2.449360
     9  H    1.100551   2.483832   2.552738   2.001365   3.545513
    10  H    3.560468   2.167336   1.118146   4.490107   4.444171
    11  H    2.447547   1.088337   2.166111   2.720285   2.700493
    12  H    2.708870   1.090024   2.089659   3.256750   2.148190
                    6          7          8          9         10
     6  O    0.000000
     7  H    4.966238   0.000000
     8  H    2.559474   2.789655   0.000000
     9  H    2.477208   3.701609   1.827460   0.000000
    10  H    2.006750   5.205670   3.713636   3.505841   0.000000
    11  H    3.238299   3.262107   3.052793   2.868820   2.430194
    12  H    2.995975   3.067550   2.612860   3.440756   2.536428
                   11         12
    11  H    0.000000
    12  H    1.800297   0.000000
 Stoichiometry    C3H6O3
 Framework group  C1[X(C3H6O3)]
 Deg. of freedom    30
 Full point group                 C1      NOp   1
 Largest Abelian subgroup         C1      NOp   1
 Largest concise Abelian subgroup C1      NOp   1
                         Standard orientation:                         
 ---------------------------------------------------------------------
 Center     Atomic      Atomic             Coordinates (Angstroms)
 Number     Number       Type             X           Y           Z
 ---------------------------------------------------------------------
      1          6           0       -0.404521   -0.945278   -0.080781
      2          6           0        0.272243    0.777720    0.424473
      3          6           0        1.731863    0.411229    0.243766
      4          8           0       -1.576490   -1.015349    0.377173
      5          8           0       -1.865329    1.001964   -0.456961
      6          8           0        2.246905   -0.385493   -0.492543
      7          1           0       -2.648074    0.440311   -0.348499
      8          1           0       -0.214685   -0.677976   -1.129672
      9          1           0        0.301341   -1.702455    0.292921
     10          1           0        2.369659    1.064798    0.888990
     11          1           0        0.017501    0.895605    1.475990
     12          1           0        0.136063    1.708722   -0.125837
 ---------------------------------------------------------------------
 Rotational constants (GHZ):           6.2972416           2.0650265           1.7342135
 Standard basis: 6-31+G(d) (6D, 7F)
 There are   126 symmetry adapted cartesian basis functions of A   symmetry.
 There are   126 symmetry adapted basis functions of A   symmetry.
   126 basis functions,   216 primitive gaussians,   126 cartesian basis functions
    24 alpha electrons       24 beta electrons
       nuclear repulsion energy       231.6929689951 Hartrees.
 NAtoms=   12 NActive=   12 NUniq=   12 SFac= 1.00D+00 NAtFMM=   60 NAOKFM=F Big=F
 Integral buffers will be    131072 words long.
 Raffenetti 2 integral format.
 Two-electron integral symmetry is turned on.
 One-electron integrals computed using PRISM.
 NBasis=   126 RedAO= T EigKep=  1.34D-04  NBF=   126
 NBsUse=   126 1.00D-06 EigRej= -1.00D+00 NBFU=   126
 Initial guess from the checkpoint file:  "/scratch/bell/zhao922/YARP/paper-example/KHP-network/pp_0/TS-folder/Gau-2483.chk"
 B after Tr=     0.000000    0.000000    0.000000
         Rot=    0.999796   -0.019497    0.000984   -0.005204 Ang=  -2.32 deg.
 ExpMin= 4.38D-02 ExpMax= 5.48D+03 ExpMxC= 8.25D+02 IAcc=3 IRadAn=         5 AccDes= 0.00D+00
 Harris functional with IExCor=  402 and IRadAn=       5 diagonalized for initial guess.
 HarFok:  IExCor=  402 AccDes= 0.00D+00 IRadAn=         5 IDoV= 1 UseB2=F ITyADJ=14
 ICtDFT=  3500011 ScaDFX=  1.000000  1.000000  1.000000  1.000000
 FoFCou: FMM=F IPFlag=           0 FMFlag=      100000 FMFlg1=           0
         NFxFlg=           0 DoJE=T BraDBF=F KetDBF=T FulRan=T
         wScrn=  0.000000 ICntrl=       500 IOpCl=  0 I1Cent=   200000004 NGrid=           0
         NMat0=    1 NMatS0=      1 NMatT0=    0 NMatD0=    1 NMtDS0=    0 NMtDT0=    0
 Petite list used in FoFCou.
 Keep R1 ints in memory in canonical form, NReq=47237561.
 Requested convergence on RMS density matrix=1.00D-08 within 128 cycles.
 Requested convergence on MAX density matrix=1.00D-06.
 Requested convergence on             energy=1.00D-06.
 No special actions if energy rises.
 SCF Done:  E(RB3LYP) =  -343.346319846     A.U. after   15 cycles
            NFock= 15  Conv=0.63D-08     -V/T= 2.0088
 DoSCS=F DFT=T ScalE2(SS,OS)=  1.000000  1.000000
 Range of M.O.s used for correlation:     1   126
 NBasis=   126 NAE=    24 NBE=    24 NFC=     0 NFV=     0
 NROrb=    126 NOA=    24 NOB=    24 NVA=   102 NVB=   102

 **** Warning!!: The largest alpha MO coefficient is  0.25557901D+02


 **** Warning!!: The smallest alpha delta epsilon is  0.56158062D-01

 Symmetrizing basis deriv contribution to polar:
 IMax=3 JMax=2 DiffMx= 0.00D+00
 G2DrvN: will do    13 centers at a time, making    1 passes.
 Calling FoFCou, ICntrl=  3107 FMM=F I1Cent=   0 AccDes= 0.00D+00.
 End of G2Drv F.D. properties file   721 does not exist.
 End of G2Drv F.D. properties file   722 does not exist.
 End of G2Drv F.D. properties file   788 does not exist.
          IDoAtm=111111111111
          Differentiating once with respect to electric field.
                with respect to dipole field.
          Differentiating once with respect to nuclear coordinates.
 Keep R1 ints in memory in canonical form, NReq=47193576.
          There are    39 degrees of freedom in the 1st order CPHF.  IDoFFX=6 NUNeed=     3.
     36 vectors produced by pass  0 Test12= 6.28D-15 2.56D-09 XBig12= 7.72D+02 2.49D+01.
 AX will form    36 AO Fock derivatives at one time.
     36 vectors produced by pass  1 Test12= 6.28D-15 2.56D-09 XBig12= 2.62D+02 3.04D+00.
     36 vectors produced by pass  2 Test12= 6.28D-15 2.56D-09 XBig12= 6.47D+00 4.23D-01.
[...]
 ! R12   R(4,7)                  1.8053         -DE/DX =    0.0                 !
 ! R13   R(5,7)                  0.9943         -DE/DX =    0.0                 !
 ! R14   R(5,12)                 1.1165         -DE/DX =    0.0                 !
 ! A1    A(2,1,4)               67.8254         -DE/DX =    0.0                 !
 ! A2    A(2,1,8)               58.8712         -DE/DX =    0.0                 !
 ! A3    A(2,1,9)              155.9766         -DE/DX =    0.0                 !
 ! A4    A(4,1,8)              121.5864         -DE/DX =    0.0                 !
 ! A5    A(4,1,9)              120.4113         -DE/DX =    0.0                 !
 ! A6    A(8,1,9)              118.002          -DE/DX =    0.0                 !
 ! A7    A(1,2,3)               88.1116         -DE/DX =    0.0                 !
 ! A8    A(1,2,5)               52.1594         -DE/DX =    0.0                 !
 ! A9    A(1,2,11)              82.179          -DE/DX =    0.0                 !
 ! A10   A(1,2,12)              93.4004         -DE/DX =    0.0                 !
 ! A11   A(3,2,5)              111.1691         -DE/DX =    0.0                 !
 ! A12   A(3,2,11)             119.1191         -DE/DX =    0.0                 !
 ! A13   A(3,2,12)             132.0683         -DE/DX =    0.0                 !
 ! A14   A(5,2,11)             108.8956         -DE/DX =    0.0                 !
 ! A15   A(11,2,12)            108.507          -DE/DX =    0.0                 !
 ! A16   A(2,3,6)              127.8013         -DE/DX =    0.0                 !
 ! A17   A(2,3,10)             111.588          -DE/DX =    0.0                 !
 ! A18   A(6,3,10)             120.5855         -DE/DX =    0.0                 !
 ! A19   A(1,4,5)               95.9378         -DE/DX =    0.0                 !
 ! A20   A(1,4,7)              108.167          -DE/DX =    0.0                 !
 ! A21   A(2,5,4)              106.5307         -DE/DX =    0.0                 !
 ! A22   A(2,5,7)              108.587          -DE/DX =    0.0                 !
 ! A23   A(4,5,12)             137.8833         -DE/DX =    0.0                 !
 ! A24   L(7,5,12,1,-1)        200.3788         -DE/DX =    0.0                 !
 ! A25   L(7,5,12,1,-2)        297.7527         -DE/DX =    0.0                 !
 ! D1    D(4,1,2,3)            173.4623         -DE/DX =    0.0                 !
 ! D2    D(4,1,2,5)            -67.647          -DE/DX =    0.0                 !
 ! D3    D(4,1,2,11)            53.7272         -DE/DX =    0.0                 !
 ! D4    D(4,1,2,12)           -54.5012         -DE/DX =    0.0                 !
 ! D5    D(8,1,2,3)            -31.4564         -DE/DX =    0.0                 !
 ! D6    D(8,1,2,5)             87.4343         -DE/DX =    0.0                 !
 ! D7    D(8,1,2,11)          -151.1915         -DE/DX =    0.0                 !
 ! D8    D(8,1,2,12)           100.5801         -DE/DX =    0.0                 !
 ! D9    D(9,1,2,3)             58.1028         -DE/DX =    0.0                 !
 ! D10   D(9,1,2,5)            176.9934         -DE/DX =    0.0                 !
 ! D11   D(9,1,2,11)           -61.6324         -DE/DX =    0.0                 !
 ! D12   D(9,1,2,12)          -169.8607         -DE/DX =    0.0                 !
 ! D13   D(2,1,4,5)             26.0838         -DE/DX =    0.0                 !
 ! D14   D(2,1,4,7)             27.0162         -DE/DX =    0.0                 !
 ! D15   D(8,1,4,5)              1.0351         -DE/DX =    0.0                 !
 ! D16   D(8,1,4,7)              1.9675         -DE/DX =    0.0                 !
 ! D17   D(9,1,4,5)           -179.1663         -DE/DX =    0.0                 !
 ! D18   D(9,1,4,7)           -178.2339         -DE/DX =    0.0                 !
 ! D19   D(1,2,3,6)             51.8493         -DE/DX =    0.0                 !
 ! D20   D(1,2,3,10)          -129.9882         -DE/DX =    0.0                 !
 ! D21   D(5,2,3,6)              3.9925         -DE/DX =    0.0                 !
 ! D22   D(5,2,3,10)          -177.845          -DE/DX =    0.0                 !
 ! D23   D(11,2,3,6)           131.8162         -DE/DX =    0.0                 !
 ! D24   D(11,2,3,10)          -50.0213         -DE/DX =    0.0                 !
 ! D25   D(12,2,3,6)           -41.0273         -DE/DX =    0.0                 !
 ! D26   D(12,2,3,10)          137.1353         -DE/DX =    0.0                 !
 ! D27   D(1,2,5,4)             23.9758         -DE/DX =    0.0                 !
 ! D28   D(1,2,5,7)             47.6887         -DE/DX =    0.0                 !
 ! D29   D(3,2,5,4)             93.7591         -DE/DX =    0.0                 !
 ! D30   D(3,2,5,7)            117.472          -DE/DX =    0.0                 !
 ! D31   D(11,2,5,4)           -39.4072         -DE/DX =    0.0                 !
 ! D32   D(11,2,5,7)           -15.6943         -DE/DX =    0.0                 !
 ! D33   D(1,4,5,2)            -85.4273         -DE/DX =    0.0                 !
 ! D34   D(1,4,5,12)          -146.0215         -DE/DX =    0.0                 !
 --------------------------------------------------------------------------------
 GradGradGradGradGradGradGradGradGradGradGradGradGradGradGradGradGradGrad


 ----------------------------------------------------------------------

 Electric dipole moment (input orientation):
 (Debye = 10**-18 statcoulomb cm , SI units = C m)
                  (au)            (Debye)         (10**-30 SI)
   Tot        0.146437D+01      0.372206D+01      0.124155D+02
   x         -0.710866D+00     -0.180684D+01     -0.602697D+01
   y          0.558459D+00      0.141946D+01      0.473481D+01
   z         -0.115203D+01     -0.292817D+01     -0.976734D+01

 Dipole polarizability, Alpha (input orientation).
 (esu units = cm**3 , SI units = C**2 m**2 J**-1)
 Alpha(0;0):
               (au)            (10**-24 esu)      (10**-40 SI)
   iso        0.555252D+02      0.822799D+01      0.915488D+01
   aniso      0.202273D+02      0.299737D+01      0.333502D+01
   xx         0.578745D+02      0.857612D+01      0.954222D+01
   yx        -0.757807D+01     -0.112295D+01     -0.124946D+01
   yy         0.586522D+02      0.869137D+01      0.967045D+01
   zx        -0.678644D+01     -0.100565D+01     -0.111893D+01
   zy        -0.320222D+01     -0.474520D+00     -0.527975D+00
   zz         0.500490D+02      0.741649D+01      0.825196D+01

 ----------------------------------------------------------------------

 Dipole orientation:
     6          6.42120036         -1.09324913          5.02087664
     6          0.76295808         -1.07363462          0.69726263
     6          2.12260009          0.60678706         -0.92768437
     8          4.62747594         -2.21913026          5.93041503
     8          2.47836332         -3.44158587          1.50724650
     8          4.26625372          0.33445877         -1.78813257
     1          2.70765606         -3.40507902          3.37173572
     1          6.64093342         -0.87283608          2.95802724
     1          7.87782340         -0.25498878          6.25586759
     1          0.96844250          2.29289308         -1.43951260
     1         -0.16170037         -0.31710765          2.37181727
     1          0.53362142         -3.69279510          0.72864782

 Electric dipole moment (dipole orientation):
 (Debye = 10**-18 statcoulomb cm , SI units = C m)
                  (au)            (Debye)         (10**-30 SI)
   Tot        0.146437D+01      0.372206D+01      0.124155D+02
   x          0.000000D+00      0.000000D+00      0.000000D+00
   y          0.000000D+00      0.000000D+00      0.000000D+00
   z          0.146437D+01      0.372206D+01      0.124155D+02

 Dipole polarizability, Alpha (dipole orientation).
 (esu units = cm**3 , SI units = C**2 m**2 J**-1)
 Alpha(0;0):
               (au)            (10**-24 esu)      (10**-40 SI)
   iso        0.555252D+02      0.822799D+01      0.915488D+01
   aniso      0.202273D+02      0.299737D+01      0.333502D+01
   xx         0.607174D+02      0.899740D+01      0.100110D+02
   yx         0.520567D+01      0.771400D+00      0.858298D+00
   yy         0.531701D+02      0.787900D+01      0.876657D+01
   zx        -0.119612D+01     -0.177247D+00     -0.197214D+00
   zy        -0.935808D+01     -0.138672D+01     -0.154294D+01
   zz         0.526882D+02      0.780758D+01      0.868711D+01

 ----------------------------------------------------------------------
 1\1\GINC-BELL-A096\Freq\RB3LYP\6-31+G(d)\C3H6O3\ZHAO922\23-Dec-2020\0\
 \#N Geom=AllCheck Guess=TCheck SCRF=Check GenChk RB3LYP/6-31+G(d) Freq
 \\pp_4_0 TS\\0,1\C,1.7199497944,1.896768084,-3.5191066113\C,0.23024229
 88,0.7044434405,-0.2695983723\C,1.1801230748,-0.3657920426,-0.28151526
 62\O,0.7240302691,2.5292632623,-3.2097620457\O,0.9400344926,2.11302832
 34,-0.5695871056\O,2.4008483534,-0.2895210718,-0.4190162762\H,0.564408
 2763,2.4841255059,-1.4120574836\H,2.3387192891,1.3853711002,-2.7612537
 398\H,2.0258855909,1.8183880859,-4.5765948438\H,0.6889530353,-1.351986
 4535,-0.1122240462\H,-0.6661773777,0.6239349403,-0.8818724113\H,0.2604
 369031,1.9713818254,0.304819202\\Version=ES64L-G16RevB.01\State=1-A\HF
 =-343.4442867\RMSD=6.264e-09\RMSF=8.728e-07\ZeroPoint=0.0837652\Therma
 l=0.0921759\Dipole=-0.7108657,0.5584588,-1.1520326\DipoleDeriv=0.67521
 ,-0.2583249,-0.2323219,-0.3113962,0.3668955,0.0881501,-0.1304732,-0.01
 25868,0.769439,-0.3760976,0.6146889,0.0993508,0.6402571,-0.3622235,-0.
 1692997,0.2959696,-0.6701289,-0.1406127,1.498594,-0.4507148,-0.2642613
 ,-0.2658268,0.9504869,-0.0099466,-0.1514893,-0.1662307,0.1506953,-0.68
 41568,0.1867408,0.2490663,0.2328642,-0.4432538,-0.1179645,0.1697896,0.
 0986836,-0.7809787,-0.2658604,-0.6290281,0.1425255,-0.1177674,-1.19151
 25,0.2740565,0.0896701,1.0396849,-0.8329133,-1.3663557,0.3703529,0.160
 521,-0.004107,-0.5195831,0.0563952,0.0857171,0.0810113,-0.4296868,0.24
 41239,-0.1486715,0.0078358,-0.0205522,0.2985266,-0.0765715,-0.1690335,
 -0.1754221,0.9066843,0.0311453,0.0612141,-0.0232489,0.0638731,0.070162
 ,0.0043816,-0.0613289,0.0132493,0.0277283,0.0384947,0.0206011,0.056677
 7,0.0243888,0.072306,-0.0087916,0.0869711,0.0000929,-0.1885594,-0.0535
 244,-0.1383588,0.0262908,-0.1567547,-0.2162823,0.0592787,0.0190999,0.0
 472254,0.0746457,0.0884148,-0.0854258,-0.0855239,-0.0588277,0.0104041,
 0.0329783,-0.2575475,0.12796,0.0913275,0.1700122,0.4569261,-0.1369119,
 -0.0261513,0.964074,-0.1326666,0.022655,-0.3835389,0.3522309\Polar=57.
 8745304,-7.5780711,58.6522423,-6.7864446,-3.2022197,50.0489722\Quadrup
 ole=-1.4850693,-0.7655439,2.2506132,3.3291736,-5.0491002,2.1730526\PG=
 C01 [X(C3H6O3)]\NImag=1\\0.72025503,-0.35605250,0.41364229,-0.09657492
 ,0.00731272,0.64840452,-0.00194601,0.00136514,0.00054038,0.49660790,0.
 00210605,-0.00128398,0.00062366,-0.09531655,0.28321388,0.00193242,-0.0
 0175622,-0.00008509,0.18052286,-0.01969493,0.19916551,0.00729933,-0.00
 401468,0.00015208,-0.15165952,0.08178098,-0.04543562,0.89616676,-0.001
 95936,0.00101593,0.00080585,0.09512816,-0.17652767,0.02523343,0.013757
 08,0.56106504,-0.00071351,0.00070884,-0.00055558,-0.00374016,-0.017594
 74,-0.06359627,-0.05845981,-0.04935024,0.19615914,-0.52781236,0.300377
 62,0.13550703,0.00186515,-0.00086119,-0.00183586,-0.00540759,0.0017414
 3,0.00060637,0.56864040,0.30007873,-0.24906201,-0.08001796,-0.00148567
 ,0.00128430,0.00083547,0.00287934,-0.00058865,-0.00046154,-0.34666248,
 0.24650128,0.13839158,-0.08179549,-0.15247507,-0.00310616,0.00188144,0
 .00332437,0.00523333,-0.00228931,0.00015237,-0.15768100,0.09105850,0.1
 4988195,0.00118021,-0.00067290,-0.00190092,-0.04046818,-0.08699774,-0.
 03927690,-0.00459137,0.02040363,-0.01600683,0.00240486,0.00082541,0.00
 554593,0.20385261,0.00402381,-0.00318666,-0.00012480,-0.01167557,-0.07
 847212,-0.02382529,-0.04216092,-0.03709036,0.01197509,-0.00334429,0.00
 568361,0.00760577,-0.04040782,0.18258424,-0.01030628,0.00734850,-0.000
 65075,-0.01804749,0.14926194,-0.00733200,0.03434817,-0.01893931,0.0076
 0456,0.00865397,-0.00222778,-0.03368993,0.11462799,-0.12790097,0.38175
 653,-0.00510453,0.00297357,-0.00027976,-0.07598060,0.04425434,0.027933
 28,-0.64669284,-0.05310864,0.06354249,0.00406130,-0.00207641,-0.003670
 98,0.01521097,0.01037108,-0.02398946,0.75157137,-0.00079197,0.00035085
 ,-0.00038724,0.03187110,0.00574830,0.00033678,-0.04214858,-0.09918111,
 0.00631574,0.00024632,-0.00024207,0.00026926,0.00078305,0.01045065,-0.
 00096172,0.03945228,0.07787168,0.00273085,-0.00132710,0.00053770,0.008
 74458,0.00147139,0.02087519,0.06246729,0.00945172,-0.07255802,-0.00200
 477,0.00098862,0.00046495,0.00032696,-0.00361787,-0.00216281,-0.080492
 36,-0.00887551,0.03596154,-0.00022799,0.00013332,0.00656859,0.00087598
 ,-0.01941953,0.00834276,-0.00724343,0.00193811,0.00007901,-0.00771598,
 -0.00057666,-0.00392739,-0.10389318,0.06810323,-0.14198220,0.00356830,
 0.00133450,0.00074108,0.10005656,0.00000294,0.00148696,-0.00405495,0.0
 1073698,-0.00804476,0.02233969,-0.00126339,-0.00300459,0.00303332,-0.0
 0044102,-0.00916153,0.00285426,0.05205999,-0.07895607,0.10079183,-0.00
 120769,0.00083198,0.00046635,-0.05103974,0.10088995,0.01363106,-0.0088
 4197,-0.00249101,0.01227914,0.00713835,-0.00280185,-0.00832072,-0.0004
 3992,0.00067301,-0.00997229,0.00565046,0.00695989,-0.12641975,0.110042
 55,-0.28303143,0.00490552,0.00008130,-0.00142507,0.12628073,-0.1197377
 8,0.28599488,-0.12167909,0.05149689,-0.08674792,-0.00051713,-0.0001268
 8,0.00021396,-0.00015033,-0.00031855,0.00038543,-0.02375864,0.03169340
 ,-0.01524836,0.00119307,-0.00027974,-0.00026008,-0.00019057,0.00029374
 ,-0.00038861,-0.00150409,0.00049450,-0.00155322,0.13414649,0.05272115,
 -0.10566991,0.07597837,0.00055945,-0.00039598,-0.00058264,-0.00129848,
 0.00028397,0.00025157,0.02863413,-0.00010021,0.00985492,-0.00105304,-0
 .00013931,0.00086264,0.00078101,-0.00011253,-0.00061459,0.00021742,-0.
 00125642,0.00097985,-0.08667626,0.09144361,-0.09112085,0.07848660,-0.2
 0103043,0.00014634,-0.00005443,-0.00010860,0.00068849,0.00034424,-0.00
 044718,0.00601182,-0.00442963,0.02325736,-0.00046922,0.00023779,0.0008
 7734,-0.00024251,-0.00063278,0.00028185,0.00060010,-0.00077159,0.00033
 334,0.09650474,-0.08562198,0.19015837,-0.06851659,0.00226162,0.0420608
 3,0.00038495,-0.00024029,-0.00030050,-0.00103604,0.00013923,0.00016725
 ,-0.01474825,0.01597219,0.04108189,0.00006311,-0.00134480,0.00210587,0
 .00063081,0.00023712,-0.00043876,-0.00008553,0.00167821,-0.00312979,0.
 01267186,0.00578776,-0.01222708,0.07015401,0.00233253,-0.05930824,-0.0
 0014904,-0.00001029,0.00003941,0.00010743,0.00048639,-0.00009186,-0.00
 008995,0.01819114,0.00707546,-0.02541406,-0.00059260,0.00012801,-0.001
 02037,-0.00034322,-0.00017472,0.00023950,0.00150314,0.00099417,0.00175
 621,0.00361446,0.01530476,0.01229245,-0.02487808,0.03613297,0.04104464
 ,0.00055749,-0.29102375,-0.00032651,-0.00018382,0.00015431,-0.00027498
 ,-0.00025094,0.00019244,0.02167223,-0.01256205,-0.00094663,0.00038865,
 0.00046509,-0.00158216,0.00013696,0.00038094,-0.00048304,-0.00013508,0
 .00029597,0.00199278,0.00682735,-0.00081501,-0.01314172,-0.06912428,0.
 01230808,0.30436609,-0.00043968,0.00024566,-0.00010985,0.01206646,0.00
 358662,-0.00157430,-0.07971259,-0.05908193,0.00868294,0.00035008,-0.00
 019968,-0.00008693,-0.00191928,0.00668777,0.00183448,-0.03671963,-0.03
 795488,0.01110483,-0.00017305,0.00056097,0.00082060,-0.00003119,0.0000
 4961,-0.00017207,0.00007364,-0.00005884,0.00008981,0.10421778,-0.00006
 402,0.00003862,-0.00030377,-0.00976790,-0.02136431,0.00510861,-0.05681
 522,-0.23619033,0.02588745,0.00001239,0.00001083,0.00045367,0.00248251
 ,-0.00326383,0.00057104,-0.02217680,0.00977660,0.00390060,-0.00008744,
 -0.00042922,-0.00146385,0.00005801,0.00001562,-0.00016613,-0.00000685,
 -0.00003523,0.00014446,0.08525515,0.25244446,-0.00015132,0.00005709,-0
 .00003450,0.00297209,0.00348279,0.01092144,0.00590047,0.03198007,-0.05
 956228,0.00017347,-0.00001391,0.00007204,0.00300758,-0.00076123,0.0036
 0327,0.00823362,0.00437528,0.01514330,-0.00072570,-0.00149447,-0.00014
 509,0.00001286,0.00008056,0.00000962,-0.00000551,-0.00001279,0.0000345
 3,-0.01871005,-0.03579876,0.02930298,-0.00021121,-0.00012613,0.0002587
 4,-0.23181662,-0.01403769,-0.14390140,-0.01609832,-0.00387149,-0.00887
 881,0.00021552,0.00042714,0.00039248,-0.00967762,-0.00399911,-0.003998
 09,0.00145841,0.00350907,-0.00101598,0.00078773,-0.00011168,-0.0019183
 0,-0.00005038,-0.00006403,-0.00006453,-0.00007606,-0.00006626,-0.00001
 733,0.00025606,0.00149030,0.00206403,0.25263948,-0.00004564,0.00007445
 ,-0.00026018,-0.01438562,-0.04243780,0.00352803,0.02325264,0.00993716,
 0.01218304,0.00025016,0.00010414,0.00021796,-0.01557741,-0.01422514,-0
 .01663935,0.00068135,-0.00477896,-0.00225408,-0.00156196,0.00255707,-0
 .00236199,0.00011489,-0.00005096,-0.00002126,-0.00000653,-0.00005871,0
 .00002632,-0.00149126,-0.00004834,-0.00086001,0.01733377,0.05419053,-0
 .00021282,0.00036580,-0.00012848,-0.17435329,-0.00201938,-0.12252505,0
 .01415376,-0.01112808,-0.00461368,0.00016548,-0.00038581,-0.00014601,0
 .01841445,0.00734828,0.00574532,-0.00437354,0.00037221,0.00360112,-0.0
 0064920,-0.00041671,0.00331506,0.00000935,0.00014784,-0.00002621,0.000
 08247,0.00002614,0.00003527,0.00010654,0.00064285,-0.00050943,0.153917
 82,0.00447669,0.12358338,-0.00279712,0.00201238,0.00052573,-0.00941239
 ,0.08527187,0.01337928,0.00912594,-0.01476768,0.01433564,0.00190550,-0
 .00087530,-0.00692438,-0.06335522,0.01402635,0.03701309,-0.01181300,0.
 00316827,-0.00177509,0.01555466,-0.01147005,-0.00660300,-0.00012999,0.
 00034126,0.00034476,0.00048408,-0.00017837,-0.00028146,0.00203140,-0.0
 0038013,-0.00277153,0.00257299,-0.00856440,-0.00726102,0.05583314,-0.0
 0235173,0.00190171,0.00057734,-0.00701923,0.03824072,-0.01163036,0.025
 54483,-0.01962752,0.00714143,0.00185579,-0.00150515,-0.00469691,0.0687
 4693,0.01648696,-0.09114646,-0.01960086,-0.00054067,0.00017098,-0.0005
 4439,-0.00590756,0.00719678,-0.00036446,0.00067736,0.00033672,0.000400
 42,-0.00000600,-0.00036653,0.00240081,-0.00095488,-0.00103461,-0.00048
 389,-0.00526343,0.00057017,-0.06858421,-0.02350154,0.00134915,-0.00111
 626,-0.00046757,-0.00563179,-0.12431226,-0.03799194,-0.01045247,0.0145
 8250,-0.00344852,-0.00129646,0.00156563,0.00314472,0.04176206,0.018555
 58,-0.07113795,0.00829675,-0.00127425,-0.00023670,0.00480730,-0.003305
 91,-0.00937451,0.00024449,-0.00052154,-0.00016374,-0.00027239,-0.00004
 359,0.00040188,-0.00198599,0.00102384,0.00116413,0.00316137,0.00196482
 ,-0.00833130,-0.03998200,0.09288144,0.12644150\\-0.00000001,0.00000026
 ,-0.00000030,0.00000044,-0.00000106,0.00000055,0.00000201,-0.00000015,
 -0.00000054,-0.00000199,0.00000096,0.00000084,0.00000006,-0.00000081,-
 0.00000054,0.00000056,0.00000070,-0.00000052,-0.00000123,-0.00000001,-
 0.00000002,-0.00000048,0.00000123,0.00000022,-0.00000050,0.00000144,0.
 00000029,0.00000176,-0.00000069,-0.00000070,0.00000041,-0.00000076,-0.
 00000020,-0.00000103,-0.00000112,0.00000091\\\@


 THE ENLIGHTENED ONE, BECAUSE HE SAW MANKIND DROWNING  
 IN THE GREAT SEA OF BIRTH, DEATH, AND SORROW, LONGED TO SAVE 
 THEM, FOR THIS HE WAS MOVED TO PITY.                         
 BECAUSE HE SAW MEN OF THE WORLD STRAYING IN FALSE PATHS, AND 
 NONE TO GUIDE THEM, FOR THIS HE WAS MOVED TO PITY.           
                     ..................                       
 BECAUSE HE SAW THE MEN OF THE WORLD PLOUGHING THEIR FIELDS,  
 SOWING THE SEED, TRAFFICKING, HUCKSTERING, BUYING, SELLING,  
 AND AT THE END WINNOWING NOTHING BUT BITTERNESS,             
 FOR THIS HE WAS MOVED TO PITY......                   
                   BUDAH'S PITY - UPSAKA SILA SUTRA           
 Job cpu time:       0 days  0 hours  3 minutes 48.6 seconds.
 Elapsed time:       0 days  0 hours  0 minutes 14.6 seconds.
 File lengths (MBytes):  RWF=     28 Int=      0 D2E=      0 Chk=      3 Scr=      1
 Normal termination of Gaussian 16 at Wed Dec 23 22:13:04 2020.
