 Entering Gaussian System, Link 0=g16
 Initial command:
 /apps/cent7/gaussian/g16-B.01/g16-haswell/g16/l1.exe "/scratch/bell/zhao922/YARP/paper-example/KHP-network/pp_0/TS-folder/Gau-3112.inp" -scrdir="/scratch/bell/zhao922/YARP/paper-example/KHP-network/pp_0/TS-folder/"
 Entering Link 1 = /apps/cent7/gaussian/g16-B.01/g16-haswell/g16/l1.exe PID=      3113.
  
 Copyright (c) 1988-2017, Gaussian, Inc.  All Rights Reserved.
  
 This is part of the Gaussian(R) 16 program.  It is based on
 the Gaussian(R) 09 system (copyright 2009, Gaussian, Inc.),
 the Gaussian(R) 03 system (copyright 2003, Gaussian, Inc.),
 the Gaussian(R) 98 system (copyright 1998, Gaussian, Inc.),
 the Gaussian(R) 94 system (copyright 1995, Gaussian, Inc.),
 the Gaussian 92(TM) system (copyright 1992, Gaussian, Inc.),
 the Gaussian 90(TM) system (copyright 1990, Gaussian, Inc.),
 the Gaussian 88(TM) system (copyright 1988, Gaussian, Inc.),
 the Gaussian 86(TM) system (copyright 1986, Carnegie Mellon
 University), and the Gaussian 82(TM) system (copyright 1983,
 Carnegie Mellon University). Gaussian is a federally registered
 trademark of Gaussian, Inc.
  
 This software contains proprietary and confidential information,
 including trade secrets, belonging to Gaussian, Inc.
  
 This software is provided under written license and may be
 used, copied, transmitted, or stored only in accord with that
 written license.
  
 The following legend is applicable only to US Government
 contracts under FAR:
  
                    RESTRICTED RIGHTS LEGEND
  
 Use, reproduction and disclosure by the US Government is
 subject to restrictions as set forth in subparagraphs (a)
 and (c) of the Commercial Computer Software - Restricted
 Rights clause in FAR 52.227-19.
  
 Gaussian, Inc.
 340 Quinnipiac St., Bldg. 40, Wallingford CT 06492
  
  
 ---------------------------------------------------------------
 Warning -- This program may not be used in any manner that
 competes with the business of Gaussian, Inc. or will provide
 assistance to any competitor of Gaussian, Inc.  The licensee
 of this program is prohibited from giving any competitor of
 Gaussian, Inc. access to this program.  By using this program,
 the user acknowledges that Gaussian, Inc. is engaged in the
 business of creating and licensing software in the field of
 computational chemistry and represents and warrants to the
 licensee that it is not a competitor of Gaussian, Inc. and that
 it will not use this program in any manner prohibited above.
 ---------------------------------------------------------------
  

 Cite this work as:
 Gaussian 16, Revision B.01,
 M. J. Frisch, G. W. Trucks, H. B. Schlegel, G. E. Scuseria, 
 M. A. Robb, J. R. Cheeseman, G. Scalmani, V. Barone, 
 G. A. Petersson, H. Nakatsuji, X. Li, M. Caricato, A. V. Marenich, 
 J. Bloino, B. G. Janesko, R. Gomperts, B. Mennucci, H. P. Hratchian, 
 J. V. Ortiz, A. F. Izmaylov, J. L. Sonnenberg, D. Williams-Young, 
 F. Ding, F. Lipparini, F. Egidi, J. Goings, B. Peng, A. Petrone, 
 T. Henderson, D. Ranasinghe, V. G. Zakrzewski, J. Gao, N. Rega, 
 G. Zheng, W. Liang, M. Hada, M. Ehara, K. Toyota, R. Fukuda, 
 J. Hasegawa, M. Ishida, T. Nakajima, Y. Honda, O. Kitao, H. Nakai, 
 T. Vreven, K. Throssell, J. A. Montgomery, Jr., J. E. Peralta, 
 F. Ogliaro, M. J. Bearpark, J. J. Heyd, E. N. Brothers, K. N. Kudin, 
 V. N. Staroverov, T. A. Keith, R. Kobayashi, J. Normand, 
 K. Raghavachari, A. P. Rendell, J. C. Burant, S. S. Iyengar, 
 J. Tomasi, M. Cossi, J. M. Millam, M. Klene, C. Adamo, R. Cammi, 
 J. W. Ochterski, R. L. Martin, K. Morokuma, O. Farkas, 
 J. B. Foresman, and D. J. Fox, Gaussian, Inc., Wallingford CT, 2016.
 
 ******************************************
 Gaussian 16:  ES64L-G16RevB.01 20-Dec-2017
                23-Dec-2020 
 ******************************************
 %NProcShared=16
 Will use up to   16 processors via shared memory.
 %Mem=6GB
 --------------------------------------------------------------
 # B3LYP/6-31+G* OPT=(TS, CALCALL, NOEIGEN, maxcycles=100) Freq
 --------------------------------------------------------------
 1/5=1,6=100,10=4,11=1,18=20,26=3,38=1/1,3;
 2/9=110,12=2,17=6,18=5,40=1/2;
 3/5=1,6=6,7=11,11=2,25=1,30=1,71=2,74=-5,140=1/1,2,3;
 4//1;
 5/5=2,38=5/2;
 8/6=4,10=90,11=11/1;
 11/6=1,8=1,9=11,15=111,16=1/1,2,10;
 10/6=1/2;
 6/7=2,8=2,9=2,10=2,18=1,28=1/1;
 7/10=1,25=1/1,2,3,16;
 1/5=1,6=100,10=4,11=1,18=20,26=3/3(3);
 2/9=110/2;
 7/8=1,9=1,25=1,44=-1/16;
 99//99;
 2/9=110/2;
 3/5=1,6=6,7=11,11=2,25=1,30=1,71=2,74=-5,140=1/1,2,3;
 4/5=5,16=3,69=1/1;
 5/5=2,38=5/2;
 8/6=4,10=90,11=11/1;
 11/6=1,8=1,9=11,15=111,16=1/1,2,10;
 10/6=1/2;
 7/10=1,25=1/1,2,3,16;
 1/5=1,6=100,10=4,11=1,18=20,26=3/3(-8);
 2/9=110/2;
 6/7=2,8=2,9=2,10=2,18=1,19=2,28=1/1;
 7/8=1,9=1,25=1,44=-1/16;
 99//99;
 ---------
 pp_5_0 TS
 ---------
 Symbolic Z-matrix:
 Charge =  0 Multiplicity = 1
 C                     1.77345   1.54926  -2.34126 
 C                     0.50304   0.62475  -1.26742 
 C                     1.27833  -0.58658  -0.90365 
 O                     0.50523   1.88576  -2.52275 
 O                     0.90074   3.29926  -1.07565 
 O                     2.25902  -1.05041  -1.39721 
 H                     0.55522   4.09511  -1.46214 
 H                     2.50778   1.5153   -1.56476 
 H                     2.11242   1.37262  -3.37126 
 H                     0.79331  -1.05953  -0.02684 
 H                    -0.52918   0.36737  -1.52237 
 H                     0.47759   1.36421  -0.43908 
 
 Add virtual bond connecting atoms C1         and C2         Dist= 3.60D+00.
 Add virtual bond connecting atoms O4         and C2         Dist= 3.36D+00.
 Add virtual bond connecting atoms O5         and O4         Dist= 3.90D+00.
 Add virtual bond connecting atoms O5         and H12        Dist= 3.93D+00.

 GradGradGradGradGradGradGradGradGradGradGradGradGradGradGradGradGradGrad
 Berny optimization.
 Initialization pass.
                           ----------------------------
                           !    Initial Parameters    !
                           ! (Angstroms and Degrees)  !
 --------------------------                            --------------------------
 ! Name  Definition              Value          Derivative Info.                !
 --------------------------------------------------------------------------------
 ! R1    R(1,2)                  1.9031         calculate D2E/DX2 analytically  !
 ! R2    R(1,4)                  1.3246         calculate D2E/DX2 analytically  !
 ! R3    R(1,8)                  1.0693         calculate D2E/DX2 analytically  !
 ! R4    R(1,9)                  1.0986         calculate D2E/DX2 analytically  !
 ! R5    R(2,3)                  1.4835         calculate D2E/DX2 analytically  !
 ! R6    R(2,4)                  1.7793         calculate D2E/DX2 analytically  !
 ! R7    R(2,11)                 1.0939         calculate D2E/DX2 analytically  !
 ! R8    R(2,12)                 1.1107         calculate D2E/DX2 analytically  !
 ! R9    R(3,6)                  1.1918         calculate D2E/DX2 analytically  !
 ! R10   R(3,10)                 1.108          calculate D2E/DX2 analytically  !
 ! R11   R(4,5)                  2.0612         calculate D2E/DX2 analytically  !
 ! R12   R(5,7)                  0.9498         calculate D2E/DX2 analytically  !
 ! R13   R(5,12)                 2.0806         calculate D2E/DX2 analytically  !
 ! A1    A(2,1,8)               91.9058         calculate D2E/DX2 analytically  !
 ! A2    A(2,1,9)              131.0611         calculate D2E/DX2 analytically  !
 ! A3    A(4,1,8)              139.9156         calculate D2E/DX2 analytically  !
 ! A4    A(4,1,9)              101.9932         calculate D2E/DX2 analytically  !
 ! A5    A(8,1,9)              117.6343         calculate D2E/DX2 analytically  !
 ! A6    A(1,2,3)              100.7291         calculate D2E/DX2 analytically  !
 ! A7    A(1,2,11)             127.7828         calculate D2E/DX2 analytically  !
 ! A8    A(1,2,12)              96.4705         calculate D2E/DX2 analytically  !
 ! A9    A(3,2,4)              138.681          calculate D2E/DX2 analytically  !
 ! A10   A(3,2,11)             110.9873         calculate D2E/DX2 analytically  !
 ! A11   A(3,2,12)             111.8838         calculate D2E/DX2 analytically  !
 ! A12   A(4,2,11)              90.1991         calculate D2E/DX2 analytically  !
 ! A13   A(4,2,12)              93.1163         calculate D2E/DX2 analytically  !
 ! A14   A(11,2,12)            107.989          calculate D2E/DX2 analytically  !
 ! A15   A(2,3,6)              130.26           calculate D2E/DX2 analytically  !
 ! A16   A(2,3,10)             108.2897         calculate D2E/DX2 analytically  !
 ! A17   A(6,3,10)             121.4501         calculate D2E/DX2 analytically  !
 ! A18   A(1,4,5)               83.9324         calculate D2E/DX2 analytically  !
 ! A19   A(2,4,5)               89.48           calculate D2E/DX2 analytically  !
 ! A20   A(4,5,7)              102.6578         calculate D2E/DX2 analytically  !
 ! A21   A(4,5,12)              62.482          calculate D2E/DX2 analytically  !
 ! A22   A(7,5,12)             146.0808         calculate D2E/DX2 analytically  !
 ! A23   A(2,12,5)             112.7284         calculate D2E/DX2 analytically  !
 ! D1    D(8,1,2,3)            -54.5809         calculate D2E/DX2 analytically  !
 ! D2    D(8,1,2,11)           177.9653         calculate D2E/DX2 analytically  !
 ! D3    D(8,1,2,12)            59.2024         calculate D2E/DX2 analytically  !
 ! D4    D(9,1,2,3)             75.5454         calculate D2E/DX2 analytically  !
 ! D5    D(9,1,2,11)           -51.9084         calculate D2E/DX2 analytically  !
 ! D6    D(9,1,2,12)          -170.6713         calculate D2E/DX2 analytically  !
 ! D7    D(8,1,4,5)             32.6768         calculate D2E/DX2 analytically  !
 ! D8    D(9,1,4,5)           -138.7426         calculate D2E/DX2 analytically  !
 ! D9    D(1,2,3,6)            -17.7223         calculate D2E/DX2 analytically  !
 ! D10   D(1,2,3,10)           162.085          calculate D2E/DX2 analytically  !
 ! D11   D(4,2,3,6)              3.8257         calculate D2E/DX2 analytically  !
 ! D12   D(4,2,3,10)          -176.3669         calculate D2E/DX2 analytically  !
 ! D13   D(11,2,3,6)           120.0572         calculate D2E/DX2 analytically  !
 ! D14   D(11,2,3,10)          -60.1355         calculate D2E/DX2 analytically  !
 ! D15   D(12,2,3,6)          -119.2424         calculate D2E/DX2 analytically  !
 ! D16   D(12,2,3,10)           60.565          calculate D2E/DX2 analytically  !
 ! D17   D(3,2,4,5)           -116.4753         calculate D2E/DX2 analytically  !
 ! D18   D(11,2,4,5)           120.4031         calculate D2E/DX2 analytically  !
 ! D19   D(12,2,4,5)            12.375          calculate D2E/DX2 analytically  !
 ! D20   D(1,2,12,5)            28.7145         calculate D2E/DX2 analytically  !
 ! D21   D(3,2,12,5)           133.0419         calculate D2E/DX2 analytically  !
 ! D22   D(4,2,12,5)           -13.3076         calculate D2E/DX2 analytically  !
 ! D23   D(11,2,12,5)         -104.5302         calculate D2E/DX2 analytically  !
 ! D24   D(1,4,5,7)            131.2778         calculate D2E/DX2 analytically  !
 ! D25   D(1,4,5,12)           -81.3716         calculate D2E/DX2 analytically  !
 ! D26   D(2,4,5,7)           -154.7515         calculate D2E/DX2 analytically  !
 ! D27   D(2,4,5,12)            -7.4008         calculate D2E/DX2 analytically  !
 ! D28   D(4,5,12,2)            12.9276         calculate D2E/DX2 analytically  !
 ! D29   D(7,5,12,2)            83.5411         calculate D2E/DX2 analytically  !
 --------------------------------------------------------------------------------
 Trust Radius=3.00D-01 FncErr=1.00D-07 GrdErr=1.00D-06 EigMax=2.50D+02 EigMin=1.00D-04
 Number of steps in this run=    100 maximum allowed number of steps=    100.
 Search for a saddle point of order  1.
 GradGradGradGradGradGradGradGradGradGradGradGradGradGradGradGradGradGrad

                          Input orientation:                          
 ---------------------------------------------------------------------
 Center     Atomic      Atomic             Coordinates (Angstroms)
 Number     Number       Type             X           Y           Z
 ---------------------------------------------------------------------
      1          6           0        1.773447    1.549259   -2.341259
      2          6           0        0.503041    0.624750   -1.267422
      3          6           0        1.278327   -0.586575   -0.903652
      4          8           0        0.505225    1.885760   -2.522749
      5          8           0        0.900739    3.299258   -1.075651
      6          8           0        2.259017   -1.050414   -1.397212
      7          1           0        0.555221    4.095112   -1.462140
      8          1           0        2.507783    1.515300   -1.564758
      9          1           0        2.112417    1.372620   -3.371258
     10          1           0        0.793314   -1.059533   -0.026844
     11          1           0       -0.529180    0.367372   -1.522374
     12          1           0        0.477594    1.364210   -0.439075
 ---------------------------------------------------------------------
                    Distance matrix (angstroms):
                    1          2          3          4          5
     1  C    0.000000
     2  C    1.903096   0.000000
     3  C    2.621764   1.483477   0.000000
     4  O    1.324598   1.779325   3.054767   0.000000
     5  O    2.329352   2.710707   3.907922   2.061189   0.000000
     6  O    2.808078   2.430323   1.191848   3.600519   4.568147
     7  H    2.956060   3.476212   4.770009   2.451250   0.949811
     8  H    1.069278   2.213702   2.523193   2.250606   2.450372
     9  H    1.098635   2.752367   3.259330   1.888477   3.232632
    10  H    3.622564   2.111895   1.108025   3.871342   4.484484
    11  H    2.714686   1.093949   2.135395   2.091948   3.292444
    12  H    2.309065   1.110679   2.159298   2.148133   2.080551
                    6          7          8          9         10
     6  O    0.000000
     7  H    5.420662   0.000000
     8  H    2.583185   3.237045   0.000000
     9  H    3.128809   3.671724   1.854754   0.000000
    10  H    2.006558   5.356037   3.454613   4.340565   0.000000
    11  H    3.130467   3.882731   3.246949   3.377415   2.453907
    12  H    3.149905   2.917278   2.326297   3.357144   2.478738
                   11         12
    11  H    0.000000
    12  H    1.783484   0.000000
 Stoichiometry    C3H6O3
 Framework group  C1[X(C3H6O3)]
 Deg. of freedom    30
 Full point group                 C1      NOp   1
 Largest Abelian subgroup         C1      NOp   1
 Largest concise Abelian subgroup C1      NOp   1
                         Standard orientation:                         
 ---------------------------------------------------------------------
 Center     Atomic      Atomic             Coordinates (Angstroms)
 Number     Number       Type             X           Y           Z
 ---------------------------------------------------------------------
      1          6           0        0.437344    0.995247   -0.131243
      2          6           0       -0.282870   -0.668783    0.446747
      3          6           0       -1.680227   -0.547655   -0.036398
      4          8           0        1.087592    0.391198    0.852048
      5          8           0        2.173152   -0.457635   -0.680773
      6          8           0       -2.299933    0.414992   -0.367725
      7          1           0        3.070433   -0.320975   -0.400859
      8          1           0        0.131871    0.817590   -1.140441
      9          1           0        0.314789    2.011879    0.266800
     10          1           0       -2.129048   -1.560436   -0.059892
     11          1           0       -0.251759   -1.099677    1.451777
     12          1           0        0.331743   -1.309678   -0.220419
 ---------------------------------------------------------------------
 Rotational constants (GHZ):           7.5304908           1.9593999           1.8692154
 Standard basis: 6-31+G(d) (6D, 7F)
 There are   126 symmetry adapted cartesian basis functions of A   symmetry.
 There are   126 symmetry adapted basis functions of A   symmetry.
   126 basis functions,   216 primitive gaussians,   126 cartesian basis functions
    24 alpha electrons       24 beta electrons
       nuclear repulsion energy       236.5510579390 Hartrees.
 NAtoms=   12 NActive=   12 NUniq=   12 SFac= 1.00D+00 NAtFMM=   60 NAOKFM=F Big=F
 Integral buffers will be    131072 words long.
 Raffenetti 2 integral format.
 Two-electron integral symmetry is turned on.
 One-electron integrals computed using PRISM.
 NBasis=   126 RedAO= T EigKep=  1.12D-04  NBF=   126
 NBsUse=   126 1.00D-06 EigRej= -1.00D+00 NBFU=   126
 ExpMin= 4.38D-02 ExpMax= 5.48D+03 ExpMxC= 8.25D+02 IAcc=3 IRadAn=         5 AccDes= 0.00D+00
 Harris functional with IExCor=  402 and IRadAn=       5 diagonalized for initial guess.
 HarFok:  IExCor=  402 AccDes= 0.00D+00 IRadAn=         5 IDoV= 1 UseB2=F ITyADJ=14
 ICtDFT=  3500011 ScaDFX=  1.000000  1.000000  1.000000  1.000000
 FoFCou: FMM=F IPFlag=           0 FMFlag=      100000 FMFlg1=           0
         NFxFlg=           0 DoJE=T BraDBF=F KetDBF=T FulRan=T
         wScrn=  0.000000 ICntrl=       500 IOpCl=  0 I1Cent=   200000004 NGrid=           0
         NMat0=    1 NMatS0=      1 NMatT0=    0 NMatD0=    1 NMtDS0=    0 NMtDT0=    0
 Petite list used in FoFCou.
 Keep R1 ints in memory in canonical form, NReq=47237561.
 Requested convergence on RMS density matrix=1.00D-08 within 128 cycles.
 Requested convergence on MAX density matrix=1.00D-06.
 Requested convergence on             energy=1.00D-06.
 No special actions if energy rises.
 EnCoef did     4 forward-backward iterations
 EnCoef did     3 forward-backward iterations
 EnCoef did     5 forward-backward iterations
 Rare condition: small coef for last iteration:  0.000D+00
 EnCoef did     6 forward-backward iterations
 SCF Done:  E(RB3LYP) =  -343.305104926     A.U. after   19 cycles
            NFock= 19  Conv=0.25D-08     -V/T= 2.0083
 DoSCS=F DFT=T ScalE2(SS,OS)=  1.000000  1.000000
 Range of M.O.s used for correlation:     1   126
 NBasis=   126 NAE=    24 NBE=    24 NFC=     0 NFV=     0
 NROrb=    126 NOA=    24 NOB=    24 NVA=   102 NVB=   102

 **** Warning!!: The largest alpha MO coefficient is  0.30145342D+02


 **** Warning!!: The smallest alpha delta epsilon is  0.79502565D-01

 Symmetrizing basis deriv contribution to polar:
 IMax=3 JMax=2 DiffMx= 0.00D+00
 G2DrvN: will do    13 centers at a time, making    1 passes.
 Calling FoFCou, ICntrl=  3107 FMM=F I1Cent=   0 AccDes= 0.00D+00.
 End of G2Drv F.D. properties file   721 does not exist.
 End of G2Drv F.D. properties file   722 does not exist.
 End of G2Drv F.D. properties file   788 does not exist.
          IDoAtm=111111111111
          Differentiating once with respect to electric field.
                with respect to dipole field.
          Differentiating once with respect to nuclear coordinates.
 Keep R1 ints in memory in canonical form, NReq=47193583.
          There are    39 degrees of freedom in the 1st order CPHF.  IDoFFX=6 NUNeed=     3.
     36 vectors produced by pass  0 Test12= 6.28D-15 2.56D-09 XBig12= 3.68D+02 1.71D+01.
 AX will form    36 AO Fock derivatives at one time.
     36 vectors produced by pass  1 Test12= 6.28D-15 2.56D-09 XBig12= 1.50D+02 2.20D+00.
     36 vectors produced by pass  2 Test12= 6.28D-15 2.56D-09 XBig12= 2.38D+00 3.06D-01.
     36 vectors produced by pass  3 Test12= 6.28D-15 2.56D-09 XBig12= 1.76D-02 2.99D-02.
     36 vectors produced by pass  4 Test12= 6.28D-15 2.56D-09 XBig12= 4.11D-05 1.04D-03.
     33 vectors produced by pass  5 Test12= 6.28D-15 2.56D-09 XBig12= 5.65D-08 5.19D-05.
      5 vectors produced by pass  6 Test12= 6.28D-15 2.56D-09 XBig12= 5.39D-11 1.05D-06.
      3 vectors produced by pass  7 Test12= 6.28D-15 2.56D-09 XBig12= 4.25D-14 2.89D-08.
 InvSVY:  IOpt=1 It=  1 EMax= 1.07D-14
 Solved reduced A of dimension   221 with    39 vectors.
 Isotropic polarizability for W=    0.000000       69.76 Bohr**3.
 End of Minotr F.D. properties file   721 does not exist.
 End of Minotr F.D. properties file   722 does not exist.
 End of Minotr F.D. properties file   788 does not exist.

 **********************************************************************

            Population analysis using the SCF Density.

 **********************************************************************

 Orbital symmetries:
       Occupied  (A) (A) (A) (A) (A) (A) (A) (A) (A) (A) (A) (A)
                 (A) (A) (A) (A) (A) (A) (A) (A) (A) (A) (A) (A)
       Virtual   (A) (A) (A) (A) (A) (A) (A) (A) (A) (A) (A) (A)
                 (A) (A) (A) (A) (A) (A) (A) (A) (A) (A) (A) (A)
                 (A) (A) (A) (A) (A) (A) (A) (A) (A) (A) (A) (A)
                 (A) (A) (A) (A) (A) (A) (A) (A) (A) (A) (A) (A)
                 (A) (A) (A) (A) (A) (A) (A) (A) (A) (A) (A) (A)
                 (A) (A) (A) (A) (A) (A) (A) (A) (A) (A) (A) (A)
                 (A) (A) (A) (A) (A) (A) (A) (A) (A) (A) (A) (A)
                 (A) (A) (A) (A) (A) (A) (A) (A) (A) (A) (A) (A)
                 (A) (A) (A) (A) (A) (A)
 The electronic state is 1-A.
 Alpha  occ. eigenvalues --  -19.24472 -19.21247 -19.08113 -10.33744 -10.32002
 Alpha  occ. eigenvalues --  -10.30688  -1.11842  -1.10000  -0.88579  -0.81141
 Alpha  occ. eigenvalues --   -0.69239  -0.63319  -0.54856  -0.53655  -0.50546
 Alpha  occ. eigenvalues --   -0.50089  -0.47473  -0.45679  -0.41699  -0.36888
 Alpha  occ. eigenvalues --   -0.33638  -0.31631  -0.23203  -0.20177
 Alpha virt. eigenvalues --   -0.12227  -0.07474  -0.06430  -0.00549   0.01313
 Alpha virt. eigenvalues --    0.02015   0.03900   0.04694   0.06125   0.07183
 Alpha virt. eigenvalues --    0.07930   0.08463   0.10812   0.11797   0.14474
 Alpha virt. eigenvalues --    0.14717   0.16132   0.17740   0.20435   0.20609
 Alpha virt. eigenvalues --    0.22253   0.22923   0.24829   0.25525   0.26006
 Alpha virt. eigenvalues --    0.27004   0.27757   0.28778   0.30161   0.30838
 Alpha virt. eigenvalues --    0.31256   0.32247   0.35613   0.37940   0.41419
 Alpha virt. eigenvalues --    0.43208   0.58291   0.61478   0.65245   0.67874
 Alpha virt. eigenvalues --    0.69380   0.72620   0.75815   0.80182   0.86627
 Alpha virt. eigenvalues --    0.90606   0.93024   0.93533   0.99807   1.02497
 Alpha virt. eigenvalues --    1.04645   1.11667   1.12838   1.14340   1.17977
 Alpha virt. eigenvalues --    1.22202   1.24025   1.25840   1.26726   1.28677
 Alpha virt. eigenvalues --    1.30336   1.34389   1.38638   1.39170   1.42701
 Alpha virt. eigenvalues --    1.48717   1.49918   1.55722   1.58859   1.67253
 Alpha virt. eigenvalues --    1.72143   1.73619   1.75190   1.76585   1.82430
 Alpha virt. eigenvalues --    1.85179   1.91001   1.93283   1.96363   1.98389
 Alpha virt. eigenvalues --    2.03102   2.10371   2.16300   2.22278   2.27821
 Alpha virt. eigenvalues --    2.32766   2.37982   2.43320   2.48933   2.56078
 Alpha virt. eigenvalues --    2.59934   2.64951   2.74348   2.92499   2.94787
 Alpha virt. eigenvalues --    3.08978   4.09131   4.09987   4.16983   4.21593
 Alpha virt. eigenvalues --    4.40412   4.44585
          Condensed to atoms (all electrons):
               1          2          3          4          5          6
     1  C    5.399443  -0.264167   0.006744   0.092508   0.046537   0.019393
     2  C   -0.264167   6.840205  -0.351710  -0.041783  -0.032315  -0.176314
     3  C    0.006744  -0.351710   5.270152   0.069650  -0.022167   0.478519
     4  O    0.092508  -0.041783   0.069650   8.335055  -0.207558   0.004722
     5  O    0.046537  -0.032315  -0.022167  -0.207558   9.016030   0.000397
     6  O    0.019393  -0.176314   0.478519   0.004722   0.000397   8.052278
     7  H   -0.006238   0.016281  -0.003004   0.010196   0.167482  -0.000013
     8  H    0.366537  -0.057161   0.023336  -0.009514  -0.025609  -0.002785
     9  H    0.391668   0.021730  -0.010643  -0.088421   0.000693  -0.002188
    10  H    0.024914  -0.099397   0.334185  -0.000730   0.000653  -0.048992
    11  H    0.024559   0.321452  -0.015984  -0.051423   0.010253  -0.000181
    12  H   -0.016345   0.380397  -0.052321  -0.027493   0.008611   0.000849
               7          8          9         10         11         12
     1  C   -0.006238   0.366537   0.391668   0.024914   0.024559  -0.016345
     2  C    0.016281  -0.057161   0.021730  -0.099397   0.321452   0.380397
     3  C   -0.003004   0.023336  -0.010643   0.334185  -0.015984  -0.052321
     4  O    0.010196  -0.009514  -0.088421  -0.000730  -0.051423  -0.027493
     5  O    0.167482  -0.025609   0.000693   0.000653   0.010253   0.008611
     6  O   -0.000013  -0.002785  -0.002188  -0.048992  -0.000181   0.000849
     7  H    0.365158   0.000497  -0.000186  -0.000001  -0.000053  -0.000644
     8  H    0.000497   0.481097  -0.048930   0.000155   0.002156   0.000886
     9  H   -0.000186  -0.048930   0.531474  -0.000103  -0.001446  -0.000147
    10  H   -0.000001   0.000155  -0.000103   0.590353   0.001999   0.002866
    11  H   -0.000053   0.002156  -0.001446   0.001999   0.459370  -0.014682
    12  H   -0.000644   0.000886  -0.000147   0.002866  -0.014682   0.359030
 Mulliken charges:
               1
     1  C   -0.085552
     2  C   -0.557218
     3  C    0.273244
     4  O   -0.085209
     5  O   -0.963007
     6  O   -0.325685
     7  H    0.450525
     8  H    0.269335
     9  H    0.206500
    10  H    0.194096
    11  H    0.263979
    12  H    0.358991
 Sum of Mulliken charges =  -0.00000
 Mulliken charges with hydrogens summed into heavy atoms:
               1
     1  C    0.390283
     2  C    0.065752
     3  C    0.467340
     4  O   -0.085209
     5  O   -0.512482
     6  O   -0.325685
 APT charges:
               1
     1  C   -0.048616
     2  C   -0.063164
     3  C    0.747589
     4  O    0.339660
     5  O   -0.818780
     6  O   -0.558969
     7  H    0.225076
     8  H    0.101566
     9  H    0.021883
    10  H   -0.109773
    11  H    0.053551
    12  H    0.109978
 Sum of APT charges =  -0.00000
 APT charges with hydrogens summed into heavy atoms:
               1
     1  C    0.074833
     2  C    0.100365
     3  C    0.637816
     4  O    0.339660
     5  O   -0.593705
     6  O   -0.558969
 Electronic spatial extent (au):  <R**2>=            668.0452
 Charge=             -0.0000 electrons
 Dipole moment (field-independent basis, Debye):
    X=             -2.5825    Y=             -0.5544    Z=              1.8859  Tot=              3.2455
 Quadrupole moment (field-independent basis, Debye-Ang):
   XX=            -44.5478   YY=            -33.7971   ZZ=            -37.9543
   XY=              7.4006   XZ=              1.8464   YZ=             -2.2300
 Traceless Quadrupole moment (field-independent basis, Debye-Ang):
   XX=             -5.7814   YY=              4.9694   ZZ=              0.8121
   XY=              7.4006   XZ=              1.8464   YZ=             -2.2300
 Octapole moment (field-independent basis, Debye-Ang**2):
  XXX=             18.1212  YYY=              3.4413  ZZZ=              3.5359  XYY=             -4.3733
  XXY=             -3.3627  XXZ=             12.3482  XZZ=             -7.0483  YZZ=             -0.2667
  YYZ=              2.5658  XYZ=             -3.4589
 Hexadecapole moment (field-independent basis, Debye-Ang**3):
 XXXX=           -558.0611 YYYY=           -147.2537 ZZZZ=           -106.1053 XXXY=             25.6868
 XXXZ=              9.0918 YYYX=              8.1812 YYYZ=              0.9256 ZZZX=             10.5098
 ZZZY=             -6.1599 XXYY=           -126.3972 XXZZ=           -128.3370 YYZZ=            -42.7637
 XXYZ=             -2.9831 YYXZ=              4.9758 ZZXY=              1.4059
 N-N= 2.365510579390D+02 E-N=-1.277330258064D+03  KE= 3.404956461322D+02
  Exact polarizability:  97.140  -7.488  62.481 -11.637   0.754  49.670
 Approx polarizability: 188.369 -41.743 106.856 -37.804  12.115  90.431
 Calling FoFJK, ICntrl=    100127 FMM=F ISym2X=0 I1Cent= 0 IOpClX= 0 NMat=1 NMatS=1 NMatT=0.
 ***** Axes restored to original set *****
 -------------------------------------------------------------------
 Center     Atomic                   Forces (Hartrees/Bohr)
 Number     Number              X              Y              Z
 -------------------------------------------------------------------
      1        6          -0.020039148   -0.007550027   -0.086850383
      2        6          -0.027440760    0.015720652    0.011469371
      3        6          -0.011799293   -0.004700478    0.004184010
      4        8           0.013724296   -0.026328282    0.038542762
      5        8           0.009230884    0.009858918    0.022279630
      6        8           0.021924495   -0.008246339   -0.009416224
      7        1          -0.005938545    0.023331853   -0.004782301
      8        1          -0.003604349    0.012186220    0.020876793
      9        1           0.025656755   -0.002459458    0.008167940
     10        1          -0.003365473   -0.003075414    0.004603985
     11        1           0.000380978   -0.005699920   -0.002303834
     12        1           0.001270160   -0.003037725   -0.006771749
 -------------------------------------------------------------------
 Cartesian Forces:  Max     0.086850383 RMS     0.020455090
 FormGI is forming the generalized inverse of G from B-inverse, IUseBI=4.

 GradGradGradGradGradGradGradGradGradGradGradGradGradGradGradGradGradGrad
 Berny optimization.
 Internal  Forces:  Max     0.028888776 RMS     0.010244109
 Search for a saddle point.
 Step number   1 out of a maximum of  100
 All quantities printed in internal units (Hartrees-Bohrs-Radians)
 Swapping is turned off.
 Second derivative matrix not updated -- analytic derivatives used.
 ITU=  0
     Eigenvalues ---   -0.18384  -0.01945  -0.00482   0.00022   0.00206
     Eigenvalues ---    0.00248   0.00695   0.01038   0.01979   0.02950
     Eigenvalues ---    0.03224   0.03568   0.04253   0.05254   0.06152
     Eigenvalues ---    0.06940   0.07221   0.09270   0.10542   0.14009
     Eigenvalues ---    0.19198   0.28120   0.30148   0.31275   0.32042
     Eigenvalues ---    0.34481   0.39306   0.41491   0.59190   0.98226
 Eigenvectors required to have negative eigenvalues:
                          R6        R1        D7        D25       R11
   1                   -0.43970   0.39020   0.34421  -0.31601   0.24885
                          D24       A9        A18       A13       R13
   1                   -0.23503  -0.21894  -0.18734   0.18223  -0.17819
 RFO step:  Lambda0=2.174771916D-03 Lambda=-4.51576933D-02.
 Linear search not attempted -- option 19 set.
 Maximum step size (   0.300) exceeded in Quadratic search.
    -- Step size scaled by   0.363
 Iteration  1 RMS(Cart)=  0.07046795 RMS(Int)=  0.00401531
 Iteration  2 RMS(Cart)=  0.00368744 RMS(Int)=  0.00175231
 Iteration  3 RMS(Cart)=  0.00001073 RMS(Int)=  0.00175227
 Iteration  4 RMS(Cart)=  0.00000004 RMS(Int)=  0.00175227
 Variable       Old X    -DE/DX   Delta X   Delta X   Delta X     New X
                                 (Linear)    (Quad)   (Total)
    R1        3.59633   0.01950   0.00000   0.04619   0.04522   3.64155
    R2        2.50313  -0.00687   0.00000  -0.01840  -0.01545   2.48768
    R3        2.02064   0.01230   0.00000   0.00834   0.00834   2.02898
    R4        2.07612   0.00065   0.00000  -0.00634  -0.00634   2.06978
    R5        2.80337   0.01646   0.00000   0.01824   0.01824   2.82161
    R6        3.36244  -0.01577   0.00000  -0.04236  -0.04188   3.32055
    R7        2.06726   0.00152   0.00000   0.00189   0.00189   2.06916
    R8        2.09888   0.00081   0.00000   0.00168   0.00103   2.09991
    R9        2.25227   0.02515   0.00000   0.00763   0.00763   2.25989
   R10        2.09386   0.00643   0.00000   0.00530   0.00530   2.09917
   R11        3.89508   0.02631   0.00000  -0.01773  -0.01701   3.87807
   R12        1.79488   0.02366   0.00000   0.01330   0.01330   1.80818
   R13        3.93167   0.00748   0.00000  -0.06123  -0.06299   3.86868
    A1        1.60406  -0.00602   0.00000  -0.01949  -0.01574   1.58832
    A2        2.28745   0.01365   0.00000   0.05144   0.04832   2.33576
    A3        2.44199  -0.02755   0.00000  -0.12921  -0.12971   2.31228
    A4        1.78012   0.02889   0.00000   0.09999   0.09840   1.87852
    A5        2.05311  -0.00232   0.00000   0.01810   0.01595   2.06905
    A6        1.75805   0.00049   0.00000  -0.02151  -0.01944   1.73862
    A7        2.23023  -0.00488   0.00000  -0.03679  -0.04092   2.18931
    A8        1.68373   0.00494   0.00000   0.06164   0.06244   1.74617
    A9        2.42044   0.00229   0.00000   0.00846   0.00633   2.42677
   A10        1.93709  -0.00448   0.00000  -0.00897  -0.01071   1.92638
   A11        1.95274   0.00208   0.00000   0.01783   0.01776   1.97050
   A12        1.57427   0.00496   0.00000   0.01891   0.02179   1.59606
   A13        1.62519  -0.00700   0.00000  -0.03863  -0.03757   1.58762
   A14        1.88476   0.00347   0.00000   0.00038   0.00132   1.88608
   A15        2.27347  -0.00063   0.00000   0.00019   0.00019   2.27366
   A16        1.89001   0.00016   0.00000  -0.00121  -0.00121   1.88880
   A17        2.11970   0.00046   0.00000   0.00102   0.00102   2.12072
   A18        1.46490   0.01965   0.00000   0.18931   0.19210   1.65700
   A19        1.56172   0.00704   0.00000   0.02395   0.02176   1.58348
   A20        1.79172   0.01118   0.00000   0.00648   0.00772   1.79944
   A21        1.09052  -0.01273   0.00000  -0.01828  -0.01783   1.07268
   A22        2.54959  -0.00193   0.00000  -0.05412  -0.05271   2.49689
   A23        1.96748   0.01353   0.00000   0.05104   0.04981   2.01729
    D1       -0.95262  -0.00981   0.00000  -0.03360  -0.03480  -0.98742
    D2        3.10608   0.00049   0.00000   0.03475   0.03178   3.13786
    D3        1.03328  -0.00628   0.00000  -0.00370  -0.00446   1.02882
    D4        1.31852  -0.00978   0.00000   0.01149   0.01176   1.33028
    D5       -0.90597   0.00052   0.00000   0.07984   0.07835  -0.82763
    D6       -2.97878  -0.00625   0.00000   0.04139   0.04211  -2.93667
    D7        0.57032  -0.00369   0.00000  -0.11199  -0.10716   0.46315
    D8       -2.42152   0.00359   0.00000  -0.01819  -0.01560  -2.43712
    D9       -0.30931   0.00819   0.00000   0.07174   0.07334  -0.23597
   D10        2.82892   0.00766   0.00000   0.07036   0.07197   2.90088
   D11        0.06677  -0.00555   0.00000  -0.02801  -0.02906   0.03772
   D12       -3.07818  -0.00608   0.00000  -0.02939  -0.03043  -3.10862
   D13        2.09539  -0.00084   0.00000   0.00148   0.00126   2.09666
   D14       -1.04956  -0.00137   0.00000   0.00010  -0.00011  -1.04968
   D15       -2.08117   0.00190   0.00000   0.00793   0.00758  -2.07359
   D16        1.05706   0.00137   0.00000   0.00655   0.00620   1.06326
   D17       -2.03288   0.00116   0.00000  -0.03768  -0.03702  -2.06989
   D18        2.10143   0.00026   0.00000  -0.05458  -0.05381   2.04762
   D19        0.21598  -0.00336   0.00000  -0.05523  -0.05505   0.16094
   D20        0.50116  -0.00332   0.00000   0.03647   0.03166   0.53283
   D21        2.32202  -0.00013   0.00000   0.04406   0.04359   2.36561
   D22       -0.23226   0.00111   0.00000   0.05183   0.05323  -0.17903
   D23       -1.82440  -0.00205   0.00000   0.04448   0.04250  -1.78190
   D24        2.29123  -0.00956   0.00000   0.05075   0.05263   2.34386
   D25       -1.42020  -0.01369   0.00000  -0.01068  -0.00828  -1.42849
   D26       -2.70092   0.00540   0.00000   0.09049   0.09092  -2.61000
   D27       -0.12917   0.00127   0.00000   0.02906   0.03001  -0.09916
   D28        0.22563  -0.00210   0.00000  -0.04948  -0.05120   0.17443
   D29        1.45807   0.00094   0.00000  -0.00989  -0.01125   1.44681
         Item               Value     Threshold  Converged?
 Maximum Force            0.028889     0.000450     NO 
 RMS     Force            0.010244     0.000300     NO 
 Maximum Displacement     0.242113     0.001800     NO 
 RMS     Displacement     0.069277     0.001200     NO 
 Predicted change in Energy=-1.622836D-02
 GradGradGradGradGradGradGradGradGradGradGradGradGradGradGradGradGradGrad

                          Input orientation:                          
 ---------------------------------------------------------------------
 Center     Atomic      Atomic             Coordinates (Angstroms)
 Number     Number       Type             X           Y           Z
 ---------------------------------------------------------------------
      1          6           0        1.816734    1.479501   -2.422490
      2          6           0        0.518307    0.650906   -1.264496
      3          6           0        1.271462   -0.581877   -0.887075
      4          8           0        0.579199    1.925570   -2.472445
      5          8           0        0.841163    3.337898   -1.006778
      6          8           0        2.259659   -1.059730   -1.361690
      7          1           0        0.427100    4.116086   -1.378980
      8          1           0        2.551540    1.465698   -1.639751
      9          1           0        2.144015    1.293258   -3.451003
     10          1           0        0.757647   -1.051416   -0.021354
     11          1           0       -0.510581    0.399115   -1.541819
     12          1           0        0.480699    1.402111   -0.446513
 ---------------------------------------------------------------------
                    Distance matrix (angstroms):
                    1          2          3          4          5
     1  C    0.000000
     2  C    1.927027   0.000000
     3  C    2.627565   1.493132   0.000000
     4  O    1.316422   1.757161   3.046295   0.000000
     5  O    2.531723   2.718562   3.945139   2.052187   0.000000
     6  O    2.787323   2.442955   1.195883   3.601352   4.634353
     7  H    3.157781   3.468269   4.798517   2.452990   0.956848
     8  H    1.073690   2.222327   2.529364   2.189746   2.613652
     9  H    1.095280   2.799350   3.294117   1.950909   3.442704
    10  H    3.645910   2.121458   1.110831   3.860328   4.499346
    11  H    2.712787   1.094951   2.136987   2.093741   3.278708
    12  H    2.386518   1.111223   2.180735   2.094782   2.047219
                    6          7          8          9         10
     6  O    0.000000
     7  H    5.490687   0.000000
     8  H    2.557401   3.406729   0.000000
     9  H    3.148834   3.899928   1.864523   0.000000
    10  H    2.013109   5.353082   3.489000   4.379727   0.000000
    11  H    3.136065   3.836878   3.244037   3.389891   2.454436
    12  H    3.172208   2.870197   2.390866   3.435903   2.505445
                   11         12
    11  H    0.000000
    12  H    1.785590   0.000000
 Stoichiometry    C3H6O3
 Framework group  C1[X(C3H6O3)]
 Deg. of freedom    30
 Full point group                 C1      NOp   1
 Largest Abelian subgroup         C1      NOp   1
 Largest concise Abelian subgroup C1      NOp   1
                         Standard orientation:                         
 ---------------------------------------------------------------------
 Center     Atomic      Atomic             Coordinates (Angstroms)
 Number     Number       Type             X           Y           Z
 ---------------------------------------------------------------------
      1          6           0        0.345966    1.092764   -0.134034
      2          6           0       -0.251510   -0.635207    0.474713
      3          6           0       -1.666386   -0.591475   -0.000321
      4          8           0        1.089512    0.465629    0.752988
      5          8           0        2.226225   -0.525776   -0.638584
      6          8           0       -2.322052    0.328537   -0.392515
      7          1           0        3.118402   -0.408240   -0.313369
      8          1           0        0.065362    0.855368   -1.142852
      9          1           0        0.195290    2.116857    0.223972
     10          1           0       -2.082821   -1.619879    0.053636
     11          1           0       -0.207288   -0.994460    1.508105
     12          1           0        0.393147   -1.293253   -0.146746
 ---------------------------------------------------------------------
 Rotational constants (GHZ):           7.3846852           1.9510553           1.8159577
 Standard basis: 6-31+G(d) (6D, 7F)
 There are   126 symmetry adapted cartesian basis functions of A   symmetry.
 There are   126 symmetry adapted basis functions of A   symmetry.
   126 basis functions,   216 primitive gaussians,   126 cartesian basis functions
    24 alpha electrons       24 beta electrons
       nuclear repulsion energy       235.1961615786 Hartrees.
 NAtoms=   12 NActive=   12 NUniq=   12 SFac= 1.00D+00 NAtFMM=   60 NAOKFM=F Big=F
 Integral buffers will be    131072 words long.
 Raffenetti 2 integral format.
 Two-electron integral symmetry is turned on.
 One-electron integrals computed using PRISM.
 NBasis=   126 RedAO= T EigKep=  1.12D-04  NBF=   126
 NBsUse=   126 1.00D-06 EigRej= -1.00D+00 NBFU=   126
 Initial guess from the checkpoint file:  "/scratch/bell/zhao922/YARP/paper-example/KHP-network/pp_0/TS-folder/Gau-3113.chk"
 B after Tr=     0.000000    0.000000    0.000000
         Rot=    0.999450    0.031534   -0.000292   -0.010252 Ang=   3.80 deg.
 ExpMin= 4.38D-02 ExpMax= 5.48D+03 ExpMxC= 8.25D+02 IAcc=3 IRadAn=         5 AccDes= 0.00D+00
 Harris functional with IExCor=  402 and IRadAn=       5 diagonalized for initial guess.
 HarFok:  IExCor=  402 AccDes= 0.00D+00 IRadAn=         5 IDoV= 1 UseB2=F ITyADJ=14
 ICtDFT=  3500011 ScaDFX=  1.000000  1.000000  1.000000  1.000000
 FoFCou: FMM=F IPFlag=           0 FMFlag=      100000 FMFlg1=           0
         NFxFlg=           0 DoJE=T BraDBF=F KetDBF=T FulRan=T
         wScrn=  0.000000 ICntrl=       500 IOpCl=  0 I1Cent=   200000004 NGrid=           0
         NMat0=    1 NMatS0=      1 NMatT0=    0 NMatD0=    1 NMtDS0=    0 NMtDT0=    0
 Petite list used in FoFCou.
 Keep R1 ints in memory in canonical form, NReq=47237561.
 Requested convergence on RMS density matrix=1.00D-08 within 128 cycles.
 Requested convergence on MAX density matrix=1.00D-06.
 Requested convergence on             energy=1.00D-06.
 No special actions if energy rises.
 SCF Done:  E(RB3LYP) =  -343.320114951     A.U. after   14 cycles
            NFock= 14  Conv=0.95D-08     -V/T= 2.0085
 DoSCS=F DFT=T ScalE2(SS,OS)=  1.000000  1.000000
 Range of M.O.s used for correlation:     1   126
 NBasis=   126 NAE=    24 NBE=    24 NFC=     0 NFV=     0
 NROrb=    126 NOA=    24 NOB=    24 NVA=   102 NVB=   102

 **** Warning!!: The largest alpha MO coefficient is  0.28858369D+02


 **** Warning!!: The smallest alpha delta epsilon is  0.83479010D-01

 Symmetrizing basis deriv contribution to polar:
 IMax=3 JMax=2 DiffMx= 0.00D+00
 G2DrvN: will do    13 centers at a time, making    1 passes.
 Calling FoFCou, ICntrl=  3107 FMM=F I1Cent=   0 AccDes= 0.00D+00.
 End of G2Drv F.D. properties file   721 does not exist.
 End of G2Drv F.D. properties file   722 does not exist.
 End of G2Drv F.D. properties file   788 does not exist.
          IDoAtm=111111111111
          Differentiating once with respect to electric field.
                with respect to dipole field.
          Differentiating once with respect to nuclear coordinates.
 Keep R1 ints in memory in canonical form, NReq=47193583.
          There are    39 degrees of freedom in the 1st order CPHF.  IDoFFX=6 NUNeed=     3.
     36 vectors produced by pass  0 Test12= 6.28D-15 2.56D-09 XBig12= 3.89D+02 1.81D+01.
 AX will form    36 AO Fock derivatives at one time.
     36 vectors produced by pass  1 Test12= 6.28D-15 2.56D-09 XBig12= 1.67D+02 2.57D+00.
     36 vectors produced by pass  2 Test12= 6.28D-15 2.56D-09 XBig12= 3.07D+00 3.44D-01.
     36 vectors produced by pass  3 Test12= 6.28D-15 2.56D-09 XBig12= 2.63D-02 2.76D-02.
     36 vectors produced by pass  4 Test12= 6.28D-15 2.56D-09 XBig12= 5.79D-05 1.12D-03.
     30 vectors produced by pass  5 Test12= 6.28D-15 2.56D-09 XBig12= 7.89D-08 5.87D-05.
      5 vectors produced by pass  6 Test12= 6.28D-15 2.56D-09 XBig12= 7.32D-11 1.14D-06.
      3 vectors produced by pass  7 Test12= 6.28D-15 2.56D-09 XBig12= 5.83D-14 3.26D-08.
 InvSVY:  IOpt=1 It=  1 EMax= 3.55D-15
 Solved reduced A of dimension   218 with    39 vectors.
 Isotropic polarizability for W=    0.000000       70.44 Bohr**3.
 End of Minotr F.D. properties file   721 does not exist.
 End of Minotr F.D. properties file   722 does not exist.
 End of Minotr F.D. properties file   788 does not exist.
 Calling FoFJK, ICntrl=    100127 FMM=F ISym2X=0 I1Cent= 0 IOpClX= 0 NMat=1 NMatS=1 NMatT=0.
 ***** Axes restored to original set *****
 -------------------------------------------------------------------
 Center     Atomic                   Forces (Hartrees/Bohr)
 Number     Number              X              Y              Z
 -------------------------------------------------------------------
      1        6          -0.013309486   -0.003361229   -0.063981537
      2        6          -0.025861650    0.017753420    0.008542245
      3        6          -0.006943794   -0.003783957    0.001376946
      4        8           0.014069113   -0.029050674    0.031236460
      5        8           0.007512147    0.010757822    0.014405293
      6        8           0.014451676   -0.005650371   -0.005534543
      7        1          -0.006290157    0.015076929   -0.002353556
      8        1          -0.002677171    0.008898992    0.015061161
      9        1           0.018390147   -0.000535419    0.004873641
     10        1          -0.002619012   -0.001728059    0.002752231
     11        1           0.000698224   -0.004620667   -0.001985404
     12        1           0.002579964   -0.003756786   -0.004392938
 -------------------------------------------------------------------
 Cartesian Forces:  Max     0.063981537 RMS     0.015901861
 FormGI is forming the generalized inverse of G from B-inverse, IUseBI=4.

 GradGradGradGradGradGradGradGradGradGradGradGradGradGradGradGradGradGrad
 Berny optimization.
 Internal  Forces:  Max     0.020461654 RMS     0.007583880
 Search for a saddle point.
 Step number   2 out of a maximum of  100
 All quantities printed in internal units (Hartrees-Bohrs-Radians)
 Swapping is turned off.
 Second derivative matrix not updated -- analytic derivatives used.
 ITU=  0  0
     Eigenvalues ---   -0.15365  -0.00888   0.00077   0.00175   0.00185
     Eigenvalues ---    0.00352   0.00812   0.01478   0.01945   0.02994
     Eigenvalues ---    0.03294   0.03571   0.04589   0.05426   0.05946
     Eigenvalues ---    0.06688   0.07240   0.09267   0.10765   0.14029
     Eigenvalues ---    0.18900   0.27576   0.29230   0.30818   0.33109
     Eigenvalues ---    0.34319   0.38697   0.42284   0.56349   0.95425
 Eigenvectors required to have negative eigenvalues:
                          R6        R1        D25       D7        A9
   1                    0.46123  -0.41804   0.31788  -0.28811   0.22363
                          D24       R11       R13       A13       A6
   1                    0.22083  -0.21689   0.21456  -0.18398   0.14006
 RFO step:  Lambda0=4.412834819D-03 Lambda=-2.32176488D-02.
 Linear search not attempted -- option 19 set.
 Maximum step size (   0.300) exceeded in Quadratic search.
    -- Step size scaled by   0.363
 Iteration  1 RMS(Cart)=  0.04074812 RMS(Int)=  0.00313542
 Iteration  2 RMS(Cart)=  0.00305447 RMS(Int)=  0.00102041
 Iteration  3 RMS(Cart)=  0.00000681 RMS(Int)=  0.00102040
 Iteration  4 RMS(Cart)=  0.00000001 RMS(Int)=  0.00102040
 Variable       Old X    -DE/DX   Delta X   Delta X   Delta X     New X
                                 (Linear)    (Quad)   (Total)
    R1        3.64155   0.01709   0.00000   0.00814   0.00564   3.64719
    R2        2.48768  -0.00493   0.00000   0.00119   0.00307   2.49075
    R3        2.02898   0.00903   0.00000   0.00902   0.00902   2.03800
    R4        2.06978   0.00101   0.00000  -0.00135  -0.00135   2.06843
    R5        2.82161   0.01133   0.00000   0.01936   0.01936   2.84097
    R6        3.32055  -0.01510   0.00000   0.00497   0.00787   3.32842
    R7        2.06916   0.00091   0.00000   0.00015   0.00015   2.06931
    R8        2.09991  -0.00035   0.00000  -0.00735  -0.00816   2.09175
    R9        2.25989   0.01640   0.00000   0.00472   0.00472   2.26461
   R10        2.09917   0.00409   0.00000   0.00441   0.00441   2.10357
   R11        3.87807   0.02018   0.00000  -0.07447  -0.07372   3.80435
   R12        1.80818   0.01590   0.00000   0.01124   0.01124   1.81942
   R13        3.86868   0.00480   0.00000   0.22611   0.22456   4.09324
    A1        1.58832  -0.00296   0.00000  -0.01653  -0.01608   1.57223
    A2        2.33576   0.01017   0.00000   0.04995   0.04868   2.38444
    A3        2.31228  -0.01941   0.00000  -0.06786  -0.06772   2.24456
    A4        1.87852   0.02046   0.00000   0.05393   0.05119   1.92971
    A5        2.06905  -0.00214   0.00000  -0.00189  -0.00247   2.06658
    A6        1.73862  -0.00008   0.00000   0.01288   0.01303   1.75165
    A7        2.18931  -0.00390   0.00000  -0.02185  -0.02249   2.16682
    A8        1.74617   0.00359   0.00000   0.00756   0.00803   1.75420
    A9        2.42677  -0.00053   0.00000   0.02385   0.02384   2.45061
   A10        1.92638  -0.00321   0.00000  -0.01318  -0.01337   1.91301
   A11        1.97050   0.00088   0.00000   0.00512   0.00449   1.97499
   A12        1.59606   0.00435   0.00000   0.00529   0.00559   1.60165
   A13        1.58762  -0.00303   0.00000  -0.03131  -0.03078   1.55683
   A14        1.88608   0.00322   0.00000   0.01197   0.01253   1.89861
   A15        2.27366   0.00027   0.00000  -0.00841  -0.00841   2.26525
   A16        1.88880  -0.00066   0.00000   0.00903   0.00903   1.89782
   A17        2.12072   0.00039   0.00000  -0.00062  -0.00062   2.12010
   A18        1.65700   0.01377   0.00000   0.08218   0.08337   1.74037
   A19        1.58348   0.00443   0.00000   0.09351   0.09413   1.67762
   A20        1.79944   0.00815   0.00000   0.04382   0.04413   1.84356
   A21        1.07268  -0.00934   0.00000  -0.03961  -0.04024   1.03244
   A22        2.49689  -0.00249   0.00000  -0.00226  -0.00285   2.49403
   A23        2.01729   0.00869   0.00000  -0.01681  -0.01759   1.99970
    D1       -0.98742  -0.00779   0.00000  -0.02581  -0.02623  -1.01365
    D2        3.13786  -0.00057   0.00000  -0.00501  -0.00510   3.13276
    D3        1.02882  -0.00591   0.00000  -0.01480  -0.01548   1.01334
    D4        1.33028  -0.00597   0.00000  -0.00527  -0.00592   1.32436
    D5       -0.82763   0.00125   0.00000   0.01554   0.01521  -0.81241
    D6       -2.93667  -0.00409   0.00000   0.00574   0.00483  -2.93183
    D7        0.46315   0.00131   0.00000   0.03400   0.03498   0.49814
    D8       -2.43712   0.00569   0.00000   0.11035   0.11215  -2.32496
    D9       -0.23597   0.00576   0.00000   0.01611   0.01670  -0.21927
   D10        2.90088   0.00541   0.00000   0.01694   0.01753   2.91841
   D11        0.03772  -0.00357   0.00000  -0.02415  -0.02463   0.01309
   D12       -3.10862  -0.00392   0.00000  -0.02332  -0.02380  -3.13241
   D13        2.09666  -0.00093   0.00000  -0.00958  -0.00968   2.08698
   D14       -1.04968  -0.00128   0.00000  -0.00875  -0.00884  -1.05852
   D15       -2.07359   0.00151   0.00000  -0.00011  -0.00013  -2.07372
   D16        1.06326   0.00115   0.00000   0.00072   0.00071   1.06397
   D17       -2.06989   0.00019   0.00000   0.00170   0.00152  -2.06838
   D18        2.04762   0.00004   0.00000  -0.00230  -0.00299   2.04463
   D19        0.16094  -0.00320   0.00000  -0.01342  -0.01466   0.14628
   D20        0.53283  -0.00227   0.00000   0.02023   0.01967   0.55250
   D21        2.36561  -0.00035   0.00000   0.03991   0.03971   2.40532
   D22       -0.17903   0.00210   0.00000   0.03068   0.03037  -0.14866
   D23       -1.78190  -0.00157   0.00000   0.03502   0.03459  -1.74730
   D24        2.34386  -0.00804   0.00000   0.01834   0.01620   2.36006
   D25       -1.42849  -0.01266   0.00000   0.00307  -0.00060  -1.42909
   D26       -2.61000   0.00621   0.00000   0.02746   0.02911  -2.58089
   D27       -0.09916   0.00159   0.00000   0.01219   0.01230  -0.08686
   D28        0.17443  -0.00286   0.00000  -0.02234  -0.02293   0.15150
   D29        1.44681   0.00075   0.00000   0.00271   0.00271   1.44952
         Item               Value     Threshold  Converged?
 Maximum Force            0.020462     0.000450     NO 
 RMS     Force            0.007584     0.000300     NO 
 Maximum Displacement     0.159628     0.001800     NO 
 RMS     Displacement     0.042899     0.001200     NO 
 Predicted change in Energy=-6.541702D-03
 GradGradGradGradGradGradGradGradGradGradGradGradGradGradGradGradGradGrad

                          Input orientation:                          
 ---------------------------------------------------------------------
 Center     Atomic      Atomic             Coordinates (Angstroms)
 Number     Number       Type             X           Y           Z
 ---------------------------------------------------------------------
      1          6           0        1.813072    1.463435   -2.426449
      2          6           0        0.528147    0.633495   -1.249542
      3          6           0        1.268322   -0.622964   -0.884035
      4          8           0        0.591054    1.957039   -2.409945
      5          8           0        0.834845    3.422369   -1.051179
      6          8           0        2.252634   -1.102461   -1.371192
      7          1           0        0.394956    4.194833   -1.421007
      8          1           0        2.545891    1.454437   -1.635259
      9          1           0        2.156576    1.321636   -3.455996
     10          1           0        0.752150   -1.104512   -0.023333
     11          1           0       -0.498471    0.384508   -1.537912
     12          1           0        0.497769    1.375304   -0.428545
 ---------------------------------------------------------------------
                    Distance matrix (angstroms):
                    1          2          3          4          5
     1  C    0.000000
     2  C    1.930011   0.000000
     3  C    2.651199   1.503378   0.000000
     4  O    1.318046   1.761323   3.073029   0.000000
     5  O    2.585675   2.812691   4.071924   2.013174   0.000000
     6  O    2.809022   2.449938   1.198378   3.633235   4.752539
     7  H    3.237669   3.567951   4.925676   2.454420   0.962796
     8  H    1.078465   2.212242   2.551885   2.161975   2.672374
     9  H    1.094564   2.827324   3.344466   1.987164   3.455893
    10  H    3.673537   2.138793   1.113162   3.885224   4.642840
    11  H    2.701261   1.095032   2.136379   2.102464   3.353094
    12  H    2.393618   1.106905   2.189589   2.067138   2.166050
                    6          7          8          9         10
     6  O    0.000000
     7  H    5.613803   0.000000
     8  H    2.587172   3.490301   0.000000
     9  H    3.198731   3.936972   1.866624   0.000000
    10  H    2.016974   5.492190   3.516253   4.431906   0.000000
    11  H    3.131685   3.915412   3.228369   3.406836   2.464789
    12  H    3.179222   2.990869   2.378492   3.452533   2.525548
                   11         12
    11  H    0.000000
    12  H    1.790213   0.000000
 Stoichiometry    C3H6O3
 Framework group  C1[X(C3H6O3)]
 Deg. of freedom    30
 Full point group                 C1      NOp   1
 Largest Abelian subgroup         C1      NOp   1
 Largest concise Abelian subgroup C1      NOp   1
                         Standard orientation:                         
 ---------------------------------------------------------------------
 Center     Atomic      Atomic             Coordinates (Angstroms)
 Number     Number       Type             X           Y           Z
 ---------------------------------------------------------------------
      1          6           0        0.333840    1.098343   -0.071055
      2          6           0       -0.281063   -0.659843    0.434531
      3          6           0       -1.709834   -0.589967   -0.027935
      4          8           0        1.102423    0.389091    0.731121
      5          8           0        2.315572   -0.465988   -0.629019
      6          8           0       -2.358360    0.356313   -0.374456
      7          1           0        3.205511   -0.383561   -0.270981
      8          1           0        0.066053    0.898819   -1.096514
      9          1           0        0.222112    2.119425    0.307072
     10          1           0       -2.140406   -1.616406   -0.015208
     11          1           0       -0.244161   -1.053929    1.455526
     12          1           0        0.356149   -1.290880   -0.214308
 ---------------------------------------------------------------------
 Rotational constants (GHZ):           7.6937362           1.8741097           1.7454316
 Standard basis: 6-31+G(d) (6D, 7F)
 There are   126 symmetry adapted cartesian basis functions of A   symmetry.
 There are   126 symmetry adapted basis functions of A   symmetry.
   126 basis functions,   216 primitive gaussians,   126 cartesian basis functions
    24 alpha electrons       24 beta electrons
       nuclear repulsion energy       233.6320075219 Hartrees.
 NAtoms=   12 NActive=   12 NUniq=   12 SFac= 1.00D+00 NAtFMM=   60 NAOKFM=F Big=F
 Integral buffers will be    131072 words long.
 Raffenetti 2 integral format.
 Two-electron integral symmetry is turned on.
 One-electron integrals computed using PRISM.
 NBasis=   126 RedAO= T EigKep=  1.20D-04  NBF=   126
 NBsUse=   126 1.00D-06 EigRej= -1.00D+00 NBFU=   126
 Initial guess from the checkpoint file:  "/scratch/bell/zhao922/YARP/paper-example/KHP-network/pp_0/TS-folder/Gau-3113.chk"
 B after Tr=    -0.000000   -0.000000   -0.000000
         Rot=    0.999658   -0.025996    0.002851   -0.000121 Ang=  -3.00 deg.
 ExpMin= 4.38D-02 ExpMax= 5.48D+03 ExpMxC= 8.25D+02 IAcc=3 IRadAn=         5 AccDes= 0.00D+00
 Harris functional with IExCor=  402 and IRadAn=       5 diagonalized for initial guess.
 HarFok:  IExCor=  402 AccDes= 0.00D+00 IRadAn=         5 IDoV= 1 UseB2=F ITyADJ=14
 ICtDFT=  3500011 ScaDFX=  1.000000  1.000000  1.000000  1.000000
 FoFCou: FMM=F IPFlag=           0 FMFlag=      100000 FMFlg1=           0
         NFxFlg=           0 DoJE=T BraDBF=F KetDBF=T FulRan=T
         wScrn=  0.000000 ICntrl=       500 IOpCl=  0 I1Cent=   200000004 NGrid=           0
         NMat0=    1 NMatS0=      1 NMatT0=    0 NMatD0=    1 NMtDS0=    0 NMtDT0=    0
 Petite list used in FoFCou.
 Keep R1 ints in memory in canonical form, NReq=47237561.
 Requested convergence on RMS density matrix=1.00D-08 within 128 cycles.
 Requested convergence on MAX density matrix=1.00D-06.
 Requested convergence on             energy=1.00D-06.
 No special actions if energy rises.
 SCF Done:  E(RB3LYP) =  -343.326644276     A.U. after   14 cycles
            NFock= 14  Conv=0.31D-08     -V/T= 2.0087
 DoSCS=F DFT=T ScalE2(SS,OS)=  1.000000  1.000000
 Range of M.O.s used for correlation:     1   126
 NBasis=   126 NAE=    24 NBE=    24 NFC=     0 NFV=     0
 NROrb=    126 NOA=    24 NOB=    24 NVA=   102 NVB=   102

 **** Warning!!: The largest alpha MO coefficient is  0.27114172D+02


 **** Warning!!: The smallest alpha delta epsilon is  0.92004848D-01

 Symmetrizing basis deriv contribution to polar:
 IMax=3 JMax=2 DiffMx= 0.00D+00
 G2DrvN: will do    13 centers at a time, making    1 passes.
 Calling FoFCou, ICntrl=  3107 FMM=F I1Cent=   0 AccDes= 0.00D+00.
 End of G2Drv F.D. properties file   721 does not exist.
 End of G2Drv F.D. properties file   722 does not exist.
 End of G2Drv F.D. properties file   788 does not exist.
          IDoAtm=111111111111
          Differentiating once with respect to electric field.
                with respect to dipole field.
          Differentiating once with respect to nuclear coordinates.
 Keep R1 ints in memory in canonical form, NReq=47193583.
          There are    39 degrees of freedom in the 1st order CPHF.  IDoFFX=6 NUNeed=     3.
     36 vectors produced by pass  0 Test12= 6.28D-15 2.56D-09 XBig12= 3.76D+02 1.78D+01.
 AX will form    36 AO Fock derivatives at one time.
     36 vectors produced by pass  1 Test12= 6.28D-15 2.56D-09 XBig12= 1.72D+02 2.66D+00.
     36 vectors produced by pass  2 Test12= 6.28D-15 2.56D-09 XBig12= 3.27D+00 4.27D-01.
     36 vectors produced by pass  3 Test12= 6.28D-15 2.56D-09 XBig12= 2.93D-02 2.60D-02.
     36 vectors produced by pass  4 Test12= 6.28D-15 2.56D-09 XBig12= 6.38D-05 1.13D-03.
     31 vectors produced by pass  5 Test12= 6.28D-15 2.56D-09 XBig12= 8.41D-08 5.90D-05.
      4 vectors produced by pass  6 Test12= 6.28D-15 2.56D-09 XBig12= 7.82D-11 1.24D-06.
      3 vectors produced by pass  7 Test12= 6.28D-15 2.56D-09 XBig12= 6.07D-14 3.63D-08.
 InvSVY:  IOpt=1 It=  1 EMax= 3.55D-15
 Solved reduced A of dimension   218 with    39 vectors.
 Isotropic polarizability for W=    0.000000       70.77 Bohr**3.
 End of Minotr F.D. properties file   721 does not exist.
 End of Minotr F.D. properties file   722 does not exist.
 End of Minotr F.D. properties file   788 does not exist.
 Calling FoFJK, ICntrl=    100127 FMM=F ISym2X=0 I1Cent= 0 IOpClX= 0 NMat=1 NMatS=1 NMatT=0.
 ***** Axes restored to original set *****
 -------------------------------------------------------------------
 Center     Atomic                   Forces (Hartrees/Bohr)
 Number     Number              X              Y              Z
 -------------------------------------------------------------------
      1        6          -0.012268647   -0.001908698   -0.044858096
      2        6          -0.017529134    0.010459498    0.006676571
      3        6          -0.004872702   -0.002655361    0.000924395
      4        8           0.011535198   -0.019919574    0.023758854
      5        8           0.005600961    0.011243556    0.006136973
      6        8           0.009616874   -0.003699192   -0.003760461
      7        1          -0.004697996    0.009813437   -0.001358227
      8        1          -0.002169264    0.006786236    0.010483850
      9        1           0.013716817   -0.000736760    0.003804032
     10        1          -0.001736519   -0.001193594    0.001747734
     11        1           0.000708754   -0.002884090   -0.002014297
     12        1           0.002095659   -0.005305459   -0.001541331
 -------------------------------------------------------------------
 Cartesian Forces:  Max     0.044858096 RMS     0.011314621
 FormGI is forming the generalized inverse of G from B-inverse, IUseBI=4.

 GradGradGradGradGradGradGradGradGradGradGradGradGradGradGradGradGradGrad
 Berny optimization.
 Internal  Forces:  Max     0.013886925 RMS     0.005225117
 Search for a saddle point.
 Step number   3 out of a maximum of  100
 All quantities printed in internal units (Hartrees-Bohrs-Radians)
 Swapping is turned off.
 Second derivative matrix not updated -- analytic derivatives used.
 ITU=  0  0  0
     Eigenvalues ---   -0.15175  -0.00701   0.00101   0.00194   0.00270
     Eigenvalues ---    0.00446   0.00974   0.01586   0.01939   0.02995
     Eigenvalues ---    0.03217   0.03560   0.04542   0.05291   0.05794
     Eigenvalues ---    0.06723   0.07421   0.09513   0.10530   0.13921
     Eigenvalues ---    0.18591   0.27449   0.29266   0.30371   0.33372
     Eigenvalues ---    0.34339   0.37570   0.42030   0.54096   0.93747
 Eigenvectors required to have negative eigenvalues:
                          R6        R1        D25       D7        R11
   1                    0.45214  -0.41509   0.30209  -0.26713  -0.26521
                          R13       A9        D24       A13       A6
   1                    0.22414   0.21749   0.20762  -0.18993   0.14203
 RFO step:  Lambda0=1.758908404D-03 Lambda=-1.60400036D-02.
 Linear search not attempted -- option 19 set.
 Maximum step size (   0.300) exceeded in Quadratic search.
    -- Step size scaled by   0.369
 Iteration  1 RMS(Cart)=  0.03931143 RMS(Int)=  0.00566539
 Iteration  2 RMS(Cart)=  0.00571536 RMS(Int)=  0.00070580
 Iteration  3 RMS(Cart)=  0.00001538 RMS(Int)=  0.00070570
 Iteration  4 RMS(Cart)=  0.00000001 RMS(Int)=  0.00070570
 Variable       Old X    -DE/DX   Delta X   Delta X   Delta X     New X
                                 (Linear)    (Quad)   (Total)
    R1        3.64719   0.01094   0.00000   0.02245   0.02099   3.66818
    R2        2.49075  -0.00353   0.00000  -0.00052   0.00046   2.49120
    R3        2.03800   0.00616   0.00000   0.00668   0.00668   2.04468
    R4        2.06843   0.00082   0.00000  -0.00032  -0.00032   2.06810
    R5        2.84097   0.00753   0.00000   0.01198   0.01198   2.85295
    R6        3.32842  -0.00928   0.00000   0.00042   0.00276   3.33118
    R7        2.06931   0.00052   0.00000  -0.00026  -0.00026   2.06905
    R8        2.09175  -0.00009   0.00000  -0.00568  -0.00620   2.08555
    R9        2.26461   0.01091   0.00000   0.00378   0.00378   2.26838
   R10        2.10357   0.00267   0.00000   0.00279   0.00279   2.10636
   R11        3.80435   0.01309   0.00000  -0.06592  -0.06527   3.73908
   R12        1.81942   0.01054   0.00000   0.00827   0.00827   1.82769
   R13        4.09324   0.00628   0.00000   0.24998   0.24853   4.34177
    A1        1.57223  -0.00193   0.00000  -0.00927  -0.00888   1.56336
    A2        2.38444   0.00665   0.00000   0.03673   0.03546   2.41990
    A3        2.24456  -0.01369   0.00000  -0.05174  -0.05169   2.19287
    A4        1.92971   0.01389   0.00000   0.04116   0.03962   1.96933
    A5        2.06658  -0.00157   0.00000  -0.00447  -0.00469   2.06189
    A6        1.75165   0.00020   0.00000   0.00384   0.00370   1.75534
    A7        2.16682  -0.00323   0.00000  -0.01359  -0.01399   2.15283
    A8        1.75420   0.00228   0.00000   0.00114   0.00184   1.75604
    A9        2.45061  -0.00028   0.00000   0.00553   0.00560   2.45621
   A10        1.91301  -0.00237   0.00000  -0.00721  -0.00722   1.90579
   A11        1.97499   0.00075   0.00000   0.00427   0.00366   1.97866
   A12        1.60165   0.00310   0.00000   0.00516   0.00524   1.60689
   A13        1.55683  -0.00253   0.00000  -0.01596  -0.01552   1.54131
   A14        1.89861   0.00263   0.00000   0.01226   0.01253   1.91114
   A15        2.26525   0.00008   0.00000  -0.00661  -0.00661   2.25864
   A16        1.89782  -0.00036   0.00000   0.00734   0.00734   1.90516
   A17        2.12010   0.00028   0.00000  -0.00072  -0.00072   2.11938
   A18        1.74037   0.00946   0.00000   0.04659   0.04652   1.78689
   A19        1.67762   0.00409   0.00000   0.09598   0.09698   1.77460
   A20        1.84356   0.00543   0.00000   0.02843   0.02864   1.87221
   A21        1.03244  -0.00630   0.00000  -0.04073  -0.04171   0.99074
   A22        2.49403  -0.00191   0.00000  -0.01676  -0.01704   2.47699
   A23        1.99970   0.00520   0.00000  -0.03638  -0.03690   1.96280
    D1       -1.01365  -0.00591   0.00000  -0.03183  -0.03195  -1.04560
    D2        3.13276  -0.00075   0.00000  -0.01667  -0.01657   3.11619
    D3        1.01334  -0.00438   0.00000  -0.02584  -0.02641   0.98693
    D4        1.32436  -0.00475   0.00000  -0.01588  -0.01619   1.30817
    D5       -0.81241   0.00041   0.00000  -0.00072  -0.00081  -0.81323
    D6       -2.93183  -0.00322   0.00000  -0.00988  -0.01065  -2.94248
    D7        0.49814   0.00127   0.00000   0.06411   0.06471   0.56285
    D8       -2.32496   0.00564   0.00000   0.11677   0.11830  -2.20666
    D9       -0.21927   0.00425   0.00000   0.00991   0.01034  -0.20893
   D10        2.91841   0.00400   0.00000   0.01073   0.01116   2.92957
   D11        0.01309  -0.00273   0.00000  -0.01246  -0.01270   0.00039
   D12       -3.13241  -0.00298   0.00000  -0.01164  -0.01188   3.13889
   D13        2.08698  -0.00085   0.00000  -0.00808  -0.00813   2.07885
   D14       -1.05852  -0.00110   0.00000  -0.00727  -0.00732  -1.06584
   D15       -2.07372   0.00133   0.00000   0.00536   0.00523  -2.06849
   D16        1.06397   0.00108   0.00000   0.00618   0.00604   1.07001
   D17       -2.06838   0.00048   0.00000   0.00685   0.00648  -2.06190
   D18        2.04463   0.00035   0.00000   0.00732   0.00676   2.05140
   D19        0.14628  -0.00220   0.00000  -0.00448  -0.00528   0.14100
   D20        0.55250  -0.00172   0.00000   0.01163   0.01144   0.56394
   D21        2.40532  -0.00012   0.00000   0.01790   0.01773   2.42306
   D22       -0.14866   0.00166   0.00000   0.02033   0.02006  -0.12860
   D23       -1.74730  -0.00074   0.00000   0.02035   0.02005  -1.72726
   D24        2.36006  -0.00554   0.00000   0.00267   0.00146   2.36152
   D25       -1.42909  -0.00917   0.00000  -0.02196  -0.02420  -1.45329
   D26       -2.58089   0.00474   0.00000   0.03073   0.03176  -2.54913
   D27       -0.08686   0.00111   0.00000   0.00610   0.00610  -0.08076
   D28        0.15150  -0.00208   0.00000  -0.01438  -0.01453   0.13697
   D29        1.44952   0.00061   0.00000  -0.00560  -0.00565   1.44388
         Item               Value     Threshold  Converged?
 Maximum Force            0.013887     0.000450     NO 
 RMS     Force            0.005225     0.000300     NO 
 Maximum Displacement     0.143280     0.001800     NO 
 RMS     Displacement     0.044033     0.001200     NO 
 Predicted change in Energy=-5.416850D-03
 GradGradGradGradGradGradGradGradGradGradGradGradGradGradGradGradGradGrad

                          Input orientation:                          
 ---------------------------------------------------------------------
 Center     Atomic      Atomic             Coordinates (Angstroms)
 Number     Number       Type             X           Y           Z
 ---------------------------------------------------------------------
      1          6           0        1.807457    1.461438   -2.415097
      2          6           0        0.527913    0.613903   -1.226654
      3          6           0        1.264246   -0.660392   -0.890154
      4          8           0        0.594622    1.973521   -2.346653
      5          8           0        0.846954    3.498189   -1.111050
      6          8           0        2.244834   -1.130803   -1.398157
      7          1           0        0.381508    4.255962   -1.491266
      8          1           0        2.537511    1.460630   -1.616508
      9          1           0        2.167299    1.357815   -3.443431
     10          1           0        0.753251   -1.163727   -0.036951
     11          1           0       -0.497734    0.369721   -1.521979
     12          1           0        0.509084    1.340861   -0.396494
 ---------------------------------------------------------------------
                    Distance matrix (angstroms):
                    1          2          3          4          5
     1  C    0.000000
     2  C    1.941120   0.000000
     3  C    2.668837   1.509717   0.000000
     4  O    1.318289   1.762785   3.083389   0.000000
     5  O    2.602203   2.904180   4.185299   1.978636   0.000000
     6  O    2.818719   2.453819   1.200378   3.641384   4.843972
     7  H    3.270498   3.654593   5.031013   2.446761   0.967173
     8  H    1.082000   2.215269   2.578281   2.137987   2.695388
     9  H    1.094393   2.855712   3.377557   2.013785   3.429945
    10  H    3.695730   2.150845   1.114638   3.899002   4.784970
    11  H    2.702483   1.094895   2.136565   2.108436   3.429922
    12  H    2.403138   1.103625   2.195219   2.051998   2.297566
                    6          7          8          9         10
     6  O    0.000000
     7  H    5.700692   0.000000
     8  H    2.617033   3.532409   0.000000
     9  H    3.222169   3.924189   1.866890   0.000000
    10  H    2.019600   5.623722   3.544832   4.467864   0.000000
    11  H    3.128672   3.984580   3.226722   3.430847   2.474214
    12  H    3.182025   3.116506   2.370084   3.468976   2.542017
                   11         12
    11  H    0.000000
    12  H    1.795415   0.000000
 Stoichiometry    C3H6O3
 Framework group  C1[X(C3H6O3)]
 Deg. of freedom    30
 Full point group                 C1      NOp   1
 Largest Abelian subgroup         C1      NOp   1
 Largest concise Abelian subgroup C1      NOp   1
                         Standard orientation:                         
 ---------------------------------------------------------------------
 Center     Atomic      Atomic             Coordinates (Angstroms)
 Number     Number       Type             X           Y           Z
 ---------------------------------------------------------------------
      1          6           0        0.336306    1.085275   -0.002645
      2          6           0       -0.313909   -0.702915    0.381467
      3          6           0       -1.750778   -0.576940   -0.064383
      4          8           0        1.102677    0.290783    0.718010
      5          8           0        2.392743   -0.384114   -0.621857
      6          8           0       -2.378131    0.407214   -0.345050
      7          1           0        3.272147   -0.339145   -0.221794
      8          1           0        0.085665    0.943633   -1.045641
      9          1           0        0.259994    2.094345    0.414067
     10          1           0       -2.209195   -1.591813   -0.112383
     11          1           0       -0.284760   -1.152523    1.379364
     12          1           0        0.308123   -1.298079   -0.309072
 ---------------------------------------------------------------------
 Rotational constants (GHZ):           8.0389437           1.8165399           1.6945911
 Standard basis: 6-31+G(d) (6D, 7F)
 There are   126 symmetry adapted cartesian basis functions of A   symmetry.
 There are   126 symmetry adapted basis functions of A   symmetry.
   126 basis functions,   216 primitive gaussians,   126 cartesian basis functions
    24 alpha electrons       24 beta electrons
       nuclear repulsion energy       232.6160380881 Hartrees.
 NAtoms=   12 NActive=   12 NUniq=   12 SFac= 1.00D+00 NAtFMM=   60 NAOKFM=F Big=F
 Integral buffers will be    131072 words long.
 Raffenetti 2 integral format.
 Two-electron integral symmetry is turned on.
 One-electron integrals computed using PRISM.
 NBasis=   126 RedAO= T EigKep=  1.26D-04  NBF=   126
 NBsUse=   126 1.00D-06 EigRej= -1.00D+00 NBFU=   126
 Initial guess from the checkpoint file:  "/scratch/bell/zhao922/YARP/paper-example/KHP-network/pp_0/TS-folder/Gau-3113.chk"
 B after Tr=     0.000000    0.000000    0.000000
         Rot=    0.999320   -0.036712    0.003159    0.001646 Ang=  -4.23 deg.
 ExpMin= 4.38D-02 ExpMax= 5.48D+03 ExpMxC= 8.25D+02 IAcc=3 IRadAn=         5 AccDes= 0.00D+00
 Harris functional with IExCor=  402 and IRadAn=       5 diagonalized for initial guess.
 HarFok:  IExCor=  402 AccDes= 0.00D+00 IRadAn=         5 IDoV= 1 UseB2=F ITyADJ=14
 ICtDFT=  3500011 ScaDFX=  1.000000  1.000000  1.000000  1.000000
 FoFCou: FMM=F IPFlag=           0 FMFlag=      100000 FMFlg1=           0
         NFxFlg=           0 DoJE=T BraDBF=F KetDBF=T FulRan=T
         wScrn=  0.000000 ICntrl=       500 IOpCl=  0 I1Cent=   200000004 NGrid=           0
         NMat0=    1 NMatS0=      1 NMatT0=    0 NMatD0=    1 NMtDS0=    0 NMtDT0=    0
 Petite list used in FoFCou.
 Keep R1 ints in memory in canonical form, NReq=47237561.
 Requested convergence on RMS density matrix=1.00D-08 within 128 cycles.
 Requested convergence on MAX density matrix=1.00D-06.
 Requested convergence on             energy=1.00D-06.
 No special actions if energy rises.
 SCF Done:  E(RB3LYP) =  -343.332068925     A.U. after   13 cycles
            NFock= 13  Conv=0.46D-08     -V/T= 2.0088
 DoSCS=F DFT=T ScalE2(SS,OS)=  1.000000  1.000000
 Range of M.O.s used for correlation:     1   126
 NBasis=   126 NAE=    24 NBE=    24 NFC=     0 NFV=     0
 NROrb=    126 NOA=    24 NOB=    24 NVA=   102 NVB=   102

 **** Warning!!: The largest alpha MO coefficient is  0.25669963D+02

 Symmetrizing basis deriv contribution to polar:
 IMax=3 JMax=2 DiffMx= 0.00D+00
 G2DrvN: will do    13 centers at a time, making    1 passes.
 Calling FoFCou, ICntrl=  3107 FMM=F I1Cent=   0 AccDes= 0.00D+00.
 End of G2Drv F.D. properties file   721 does not exist.
 End of G2Drv F.D. properties file   722 does not exist.
 End of G2Drv F.D. properties file   788 does not exist.
          IDoAtm=111111111111
          Differentiating once with respect to electric field.
                with respect to dipole field.
          Differentiating once with respect to nuclear coordinates.
 Keep R1 ints in memory in canonical form, NReq=47193583.
          There are    39 degrees of freedom in the 1st order CPHF.  IDoFFX=6 NUNeed=     3.
     36 vectors produced by pass  0 Test12= 6.28D-15 2.56D-09 XBig12= 3.49D+02 1.71D+01.
 AX will form    36 AO Fock derivatives at one time.
     36 vectors produced by pass  1 Test12= 6.28D-15 2.56D-09 XBig12= 1.66D+02 2.51D+00.
     36 vectors produced by pass  2 Test12= 6.28D-15 2.56D-09 XBig12= 3.21D+00 4.43D-01.
     36 vectors produced by pass  3 Test12= 6.28D-15 2.56D-09 XBig12= 2.86D-02 2.93D-02.
     36 vectors produced by pass  4 Test12= 6.28D-15 2.56D-09 XBig12= 5.96D-05 1.14D-03.
     30 vectors produced by pass  5 Test12= 6.28D-15 2.56D-09 XBig12= 7.79D-08 5.03D-05.
      4 vectors produced by pass  6 Test12= 6.28D-15 2.56D-09 XBig12= 7.45D-11 1.14D-06.
      3 vectors produced by pass  7 Test12= 6.28D-15 2.56D-09 XBig12= 5.47D-14 3.46D-08.
 InvSVY:  IOpt=1 It=  1 EMax= 1.07D-14
 Solved reduced A of dimension   217 with    39 vectors.
 Isotropic polarizability for W=    0.000000       70.81 Bohr**3.
 End of Minotr F.D. properties file   721 does not exist.
 End of Minotr F.D. properties file   722 does not exist.
 End of Minotr F.D. properties file   788 does not exist.
 Calling FoFJK, ICntrl=    100127 FMM=F ISym2X=0 I1Cent= 0 IOpClX= 0 NMat=1 NMatS=1 NMatT=0.
 ***** Axes restored to original set *****
 -------------------------------------------------------------------
 Center     Atomic                   Forces (Hartrees/Bohr)
 Number     Number              X              Y              Z
 -------------------------------------------------------------------
      1        6          -0.009897329   -0.000926783   -0.031121352
      2        6          -0.011824136    0.005741663    0.004868898
      3        6          -0.003359231   -0.001825061    0.000485068
      4        8           0.008866374   -0.013088893    0.018373809
      5        8           0.004215210    0.011110622    0.000811935
      6        8           0.006265145   -0.002331109   -0.002538567
      7        1          -0.003456124    0.006142631   -0.000964662
      8        1          -0.001834251    0.004647574    0.007253211
      9        1           0.010070455   -0.000453281    0.002943060
     10        1          -0.001110365   -0.000842813    0.001073743
     11        1           0.000567122   -0.001628344   -0.001689753
     12        1           0.001497129   -0.006546206    0.000504609
 -------------------------------------------------------------------
 Cartesian Forces:  Max     0.031121352 RMS     0.008082828
 FormGI is forming the generalized inverse of G from B-inverse, IUseBI=4.

 GradGradGradGradGradGradGradGradGradGradGradGradGradGradGradGradGradGrad
 Berny optimization.
 Internal  Forces:  Max     0.009417738 RMS     0.003602076
 Search for a saddle point.
 Step number   4 out of a maximum of  100
 All quantities printed in internal units (Hartrees-Bohrs-Radians)
 Swapping is turned off.
 Second derivative matrix not updated -- analytic derivatives used.
[...]
                           ----------------------------
                           !   Optimized Parameters   !
                           ! (Angstroms and Degrees)  !
 --------------------------                            --------------------------
 ! Name  Definition              Value          Derivative Info.                !
 --------------------------------------------------------------------------------
 ! R1    R(1,2)                  2.1149         -DE/DX =    0.0                 !
 ! R2    R(1,4)                  1.2837         -DE/DX =    0.0                 !
 ! R3    R(1,8)                  1.0924         -DE/DX =    0.0                 !
 ! R4    R(1,9)                  1.0938         -DE/DX =    0.0                 !
 ! R5    R(2,3)                  1.4742         -DE/DX =    0.0                 !
 ! R6    R(2,4)                  2.1469         -DE/DX =    0.0                 !
 ! R7    R(2,11)                 1.0867         -DE/DX =    0.0                 !
 ! R8    R(2,12)                 1.0866         -DE/DX =    0.0                 !
 ! R9    R(3,6)                  1.2224         -DE/DX =    0.0                 !
 ! R10   R(3,10)                 1.1088         -DE/DX =    0.0                 !
 ! R11   R(4,5)                  1.9471         -DE/DX =    0.0                 !
 ! R12   R(5,7)                  0.9776         -DE/DX =    0.0                 !
 ! R13   R(5,12)                 4.1449         -DE/DX =    0.0                 !
 ! A1    A(2,1,8)               96.6939         -DE/DX =    0.0                 !
 ! A2    A(2,1,9)              104.4673         -DE/DX =    0.0                 !
 ! A3    A(4,1,8)              121.3738         -DE/DX =    0.0                 !
 ! A4    A(4,1,9)              121.0979         -DE/DX =    0.0                 !
 ! A5    A(8,1,9)              117.3169         -DE/DX =    0.0                 !
 ! A6    A(1,2,3)               94.5147         -DE/DX =    0.0                 !
 ! A7    A(1,2,11)             112.2844         -DE/DX =    0.0                 !
 ! A8    A(1,2,12)              97.5104         -DE/DX =    0.0                 !
 ! A9    A(3,2,4)              123.1285         -DE/DX =    0.0                 !
 ! A10   A(3,2,11)             115.8721         -DE/DX =    0.0                 !
 ! A11   A(3,2,12)             116.6658         -DE/DX =    0.0                 !
 ! A12   A(4,2,11)              80.6145         -DE/DX =    0.0                 !
 ! A13   A(4,2,12)              98.993          -DE/DX =    0.0                 !
 ! A14   A(11,2,12)            115.8543         -DE/DX =    0.0                 !
 ! A15   A(2,3,6)              123.6481         -DE/DX =    0.0                 !
 ! A16   A(2,3,10)             115.8052         -DE/DX =    0.0                 !
 ! A17   A(6,3,10)             120.5435         -DE/DX =    0.0                 !
 ! A18   A(1,4,5)               73.3086         -DE/DX =    0.0                 !
 ! A19   A(2,4,5)              143.9051         -DE/DX =    0.0                 !
 ! A20   A(4,5,7)               99.6227         -DE/DX =    0.0                 !
 ! A21   A(4,5,12)              26.4441         -DE/DX =    0.0                 !
 ! A22   A(7,5,12)             122.2931         -DE/DX =    0.0                 !
 ! A23   A(2,12,5)              69.1571         -DE/DX =    0.0                 !
 ! D1    D(8,1,2,3)            -91.865          -DE/DX =    0.0                 !
 ! D2    D(8,1,2,11)           147.7763         -DE/DX =    0.0                 !
 ! D3    D(8,1,2,12)            25.8121         -DE/DX =    0.0                 !
 ! D4    D(9,1,2,3)             28.6308         -DE/DX =    0.0                 !
 ! D5    D(9,1,2,11)           -91.7279         -DE/DX =    0.0                 !
 ! D6    D(9,1,2,12)           146.3079         -DE/DX =    0.0                 !
 ! D7    D(8,1,4,5)             85.7896         -DE/DX =    0.0                 !
 ! D8    D(9,1,4,5)            -88.7864         -DE/DX =    0.0                 !
 ! D9    D(1,2,3,6)             85.2237         -DE/DX =    0.0                 !
 ! D10   D(1,2,3,10)           -94.1315         -DE/DX =    0.0                 !
 ! D11   D(4,2,3,6)            106.9355         -DE/DX =    0.0                 !
 ! D12   D(4,2,3,10)           -72.4198         -DE/DX =    0.0                 !
 ! D13   D(11,2,3,6)          -157.3213         -DE/DX =    0.0                 !
 ! D14   D(11,2,3,10)           23.3235         -DE/DX =    0.0                 !
 ! D15   D(12,2,3,6)           -15.5174         -DE/DX =    0.0                 !
 ! D16   D(12,2,3,10)          165.1274         -DE/DX =    0.0                 !
 ! D17   D(3,2,4,5)            -50.0552         -DE/DX =    0.0                 !
 ! D18   D(11,2,4,5)          -164.9066         -DE/DX =    0.0                 !
 ! D19   D(12,2,4,5)            80.1739         -DE/DX =    0.0                 !
 ! D20   D(1,2,12,5)            18.4347         -DE/DX =    0.0                 !
 ! D21   D(3,2,12,5)           117.3546         -DE/DX =    0.0                 !
 ! D22   D(4,2,12,5)           -16.9644         -DE/DX =    0.0                 !
 ! D23   D(11,2,12,5)         -100.8347         -DE/DX =    0.0                 !
 ! D24   D(1,4,5,7)            106.2218         -DE/DX =    0.0                 !
 ! D25   D(1,4,5,12)           -44.9325         -DE/DX =    0.0                 !
 ! D26   D(2,4,5,7)            116.2001         -DE/DX =    0.0                 !
 ! D27   D(2,4,5,12)           -34.9542         -DE/DX =    0.0                 !
 ! D28   D(4,5,12,2)            45.5256         -DE/DX =    0.0                 !
 ! D29   D(7,5,12,2)            11.2829         -DE/DX =    0.0                 !
 --------------------------------------------------------------------------------
 GradGradGradGradGradGradGradGradGradGradGradGradGradGradGradGradGradGrad


 ----------------------------------------------------------------------

 Electric dipole moment (input orientation):
 (Debye = 10**-18 statcoulomb cm , SI units = C m)
                  (au)            (Debye)         (10**-30 SI)
   Tot        0.104901D+01      0.266632D+01      0.889389D+01
   x         -0.784550D+00     -0.199413D+01     -0.665170D+01
   y         -0.588429D+00     -0.149564D+01     -0.498891D+01
   z         -0.372365D+00     -0.946459D+00     -0.315705D+01

 Dipole polarizability, Alpha (input orientation).
 (esu units = cm**3 , SI units = C**2 m**2 J**-1)
 Alpha(0;0):
               (au)            (10**-24 esu)      (10**-40 SI)
   iso        0.778360D+02      0.115341D+02      0.128334D+02
   aniso      0.886534D+02      0.131371D+02      0.146170D+02
   xx         0.514084D+02      0.761793D+01      0.847610D+01
   yx        -0.406321D+01     -0.602105D+00     -0.669932D+00
   yy         0.126265D+03      0.187105D+02      0.208182D+02
   zx        -0.966195D+00     -0.143175D+00     -0.159304D+00
   zy        -0.289562D+02     -0.429087D+01     -0.477424D+01
   zz         0.558350D+02      0.827389D+01      0.920594D+01

 ----------------------------------------------------------------------

 Dipole orientation:
     6          3.04524022         -3.72800849         -2.86945318
     6          1.28313014         -0.74382187         -0.87879375
     6          3.67884774          0.41422605         -0.05388669
     8          0.96905739         -4.63075539         -1.99799364
     8          2.43311765         -7.23328910         -4.14775347
     8          4.88826084          1.90596074         -1.33776910
     1          3.02300563         -8.40936313         -2.85081135
     1          3.12032700         -2.78274438         -4.70314794
     1          4.83593459         -4.02227797         -1.87994840
     1          4.36737385         -0.16406770          1.83865830
     1          0.05479599         -1.42542630          0.61913158
     1          0.34158281          0.12874262         -2.48145274

 Electric dipole moment (dipole orientation):
 (Debye = 10**-18 statcoulomb cm , SI units = C m)
                  (au)            (Debye)         (10**-30 SI)
   Tot        0.104901D+01      0.266632D+01      0.889389D+01
   x          0.000000D+00      0.000000D+00      0.000000D+00
   y          0.000000D+00      0.000000D+00      0.000000D+00
   z          0.104901D+01      0.266632D+01      0.889389D+01

 Dipole polarizability, Alpha (dipole orientation).
 (esu units = cm**3 , SI units = C**2 m**2 J**-1)
 Alpha(0;0):
               (au)            (10**-24 esu)      (10**-40 SI)
   iso        0.778360D+02      0.115341D+02      0.128334D+02
   aniso      0.886534D+02      0.131371D+02      0.146170D+02
   xx         0.499761D+02      0.740569D+01      0.823994D+01
   yx         0.646626D+01      0.958201D+00      0.106614D+01
   yy         0.123466D+03      0.182957D+02      0.203567D+02
   zx        -0.109590D+01     -0.162395D+00     -0.180689D+00
   zy         0.314609D+02      0.466202D+01      0.518720D+01
   zz         0.600662D+02      0.890090D+01      0.990359D+01

 ----------------------------------------------------------------------
 1\1\GINC-BELL-A096\Freq\RB3LYP\6-31+G(d)\C3H6O3\ZHAO922\23-Dec-2020\0\
 \#N Geom=AllCheck Guess=TCheck SCRF=Check GenChk RB3LYP/6-31+G(d) Freq
 \\pp_5_0 TS\\0,1\C,1.4710709098,1.8674736171,-1.772814569\C,0.62463214
 58,0.3528341474,-0.5635421658\C,1.2323097387,-0.7550532671,-1.32289546
 08\O,0.3331408537,2.3157398261,-1.3827882733\O,1.2124657021,3.77137666
 2,-2.3309282092\O,2.3606370924,-1.1781850296,-1.1175788741\H,0.6897787
 616,3.7675792921,-3.1571066397\H,2.3749967033,2.0154229684,-1.17750091
 84\H,1.5876576139,1.3999211523,-2.7547352557\H,0.6024929197,-1.1946808
 351,-2.1225483498\H,-0.4615521893,0.386381221,-0.5611013754\H,1.109314
 7484,0.6283092455,0.369146091\\Version=ES64L-G16RevB.01\State=1-A\HF=-
 343.3909601\RMSD=2.364e-09\RMSF=2.552e-07\ZeroPoint=0.0874827\Thermal=
 0.095052\Dipole=-0.7845504,-0.588429,-0.3723655\DipoleDeriv=0.6321353,
 0.4484331,-0.2629974,0.0961602,-0.0352087,0.1545332,-0.1110023,-0.0388
 235,0.5289689,0.0314706,0.3421903,-0.0678108,0.0427264,-1.0277668,0.21
 92035,0.0874297,-0.433507,0.1344027,0.8574071,-1.0321439,0.3989244,-0.
 3025105,1.2721951,0.055672,0.1972445,1.0808188,0.1667828,-0.5256448,-0
 .01323,0.1555637,0.0227657,1.6009128,-0.757,0.0916826,-0.8333917,-0.01
 68187,-0.3330307,-0.4069912,0.2504787,0.0781759,-1.4800427,0.44061,0.0
 740884,0.8941444,-0.6325838,-0.8562814,0.9182681,-0.2681948,0.2102366,
 -0.7932258,0.0600139,-0.1012853,-0.1819555,-0.354651,0.2283957,-0.1958
 407,-0.0464159,-0.0537179,0.1975069,-0.0133555,-0.0921318,-0.0957471,0
 .1802078,-0.0225791,-0.0100386,-0.0118906,-0.0037009,0.0479773,-0.0075
 231,-0.0431435,-0.0254977,0.0092753,0.0125868,0.0097729,-0.0056302,0.0
 034558,0.0430731,-0.0602766,0.0319438,-0.0401238,-0.0682973,-0.0730983
 ,-0.0619774,-0.1063496,-0.0458062,0.0192717,-0.0901713,-0.124974,-0.21
 72361,-0.0406735,0.013386,-0.0062255,0.0057487,-0.0416403,0.1500343,-0
 .0149967,-0.001158,-0.076524,0.0822871,0.0352528,0.0077831,-0.0414261,
 -0.0061448,0.0052728,0.0132906,-0.0086942,-0.0321568,0.0110998\Polar=5
 1.4083713,-4.0632066,126.2646799,-0.9661947,-28.9562374,55.8349779\Qua
 drupole=1.0418359,-7.4276999,6.385864,4.1853674,0.485033,-0.4184072\PG
 =C01 [X(C3H6O3)]\NImag=1\\0.72925196,-0.14338014,0.03362286,0.03811437
 ,0.32859444,0.51545824,-0.00955236,0.06719064,-0.03613119,0.58879787,-
 0.01359408,0.00688364,-0.00467501,-0.04861150,0.24376074,0.00725660,-0
 .03745272,-0.00154817,0.10319864,0.18882694,0.46361858,0.00580235,0.00
 773548,-0.00900031,-0.10162537,-0.00526136,0.01205791,0.80861565,-0.00
 801232,-0.02886303,0.01370084,0.03917154,-0.12958739,-0.09120224,-0.16
 201768,0.40921653,-0.00707872,0.01874829,-0.00061892,0.01765936,-0.072
 72396,-0.13938039,0.18085212,0.13962916,0.42660043,-0.42423703,0.18076
 970,0.09511003,-0.01044814,0.01626359,-0.00774201,-0.00092143,0.002519
 99,-0.00393298,0.48867489,0.16054138,0.09340487,-0.15466838,-0.0510548
 8,-0.01348953,0.03872154,0.00518412,-0.00311650,-0.02317617,-0.1767566
 6,-0.01341076,0.10505040,-0.16532893,-0.06351031,0.02117262,-0.0152937
 6,-0.02706025,-0.00672550,0.00008903,0.01398432,-0.13144886,0.12370885
 ,0.09023328,-0.00816687,-0.06813266,0.03216567,0.02008038,0.00322937,-
 0.00872879,0.00030328,-0.00111718,0.00746712,-0.01413019,0.03337448,-0
 .02788411,0.15649696,0.02223768,-0.00771378,-0.02868649,-0.00349199,0.
 00321315,-0.00157238,-0.00376236,0.00702156,0.00696878,-0.04099270,-0.
 04052319,0.03192474,0.02672090,0.07568057,-0.01500157,0.02305338,-0.02
 124487,-0.00492349,0.00730580,0.01054076,0.00504573,-0.00340821,-0.009
 06400,0.01480038,-0.00540602,-0.01151664,0.22228562,-0.01275295,0.3736
 1718,-0.00759237,-0.00377730,0.00666992,-0.03391743,0.06143580,0.00766
 898,-0.60289888,0.18214617,-0.12499792,0.00007276,-0.00647191,0.004934
 67,0.00154708,0.00341815,-0.00426767,0.68082046,0.00570071,-0.00065300
 ,-0.00288881,0.05005239,-0.01858741,0.00144558,0.19291324,-0.14853482,
 0.02193381,-0.00043483,0.00470656,-0.00168629,-0.00161344,-0.00265799,
 0.00229100,-0.24601631,0.14590483,0.00109637,-0.00526565,0.00046564,0.
 01695736,-0.00170403,0.01864885,-0.11087382,0.01342924,-0.10375140,0.0
 0130235,0.00578138,-0.00204037,-0.00222510,-0.00160813,0.00201459,0.12
 654455,-0.01798205,0.07347436,-0.00540077,-0.00906100,-0.00113527,0.00
 188902,-0.00423322,-0.00156577,-0.00169302,0.00094009,0.00194162,0.008
 42832,0.00782132,0.00494351,-0.15585195,-0.00183611,-0.21968188,0.0013
 6358,-0.00049892,-0.00027070,0.15096281,0.00615301,0.01109761,0.004397
 91,-0.00278159,-0.00379755,-0.00003051,-0.00144069,0.00102719,0.000598
 67,0.00143555,-0.00376503,0.00500602,-0.00817209,-0.01605886,-0.011112
 10,0.00080602,-0.00005479,-0.00003099,0.00407438,0.01514418,0.00136553
 ,0.00353767,-0.00014887,0.00033752,0.00035026,0.00085048,-0.00010485,0
 .00050520,0.00037318,-0.00354488,-0.00018476,-0.00397020,-0.21493278,-
 0.00445016,-0.34855726,0.00031165,-0.00026123,-0.00010895,0.21613659,0
 .00154398,0.35109824,-0.22333122,-0.03375768,-0.13102413,-0.00219445,-
 0.00154776,-0.00109722,-0.00075569,0.00034554,0.00102615,-0.03620321,0
 .00467080,-0.00736840,0.00057477,-0.00043789,0.00171564,0.00078213,-0.
 00026046,-0.00009500,0.00029841,-0.00055965,0.00032485,0.25454847,-0.0
 3647845,-0.04019776,-0.04498982,-0.00974895,-0.00422753,0.00146885,-0.
 00319186,0.00199449,-0.00147839,0.01553039,-0.00230194,0.01198212,0.00
 954616,-0.00353184,0.00554055,0.00185122,0.00070842,0.00052853,0.00113
 365,-0.00238815,-0.00060176,0.03014521,0.04476959,-0.12959720,-0.04168
 874,-0.15078274,0.00692776,0.00290876,-0.00100487,0.00048898,-0.000951
 19,-0.00068195,0.01197319,0.00938418,0.01495827,-0.00355882,0.00100654
 ,-0.00147123,-0.00013186,0.00005109,-0.00006152,-0.00007461,0.00012325
 ,0.00049191,0.13290308,0.03379392,0.14669210,-0.05878616,0.00540631,0.
 00201853,-0.00130705,-0.00030861,0.00131449,0.00056260,0.00009621,0.00
 148410,-0.00967127,0.01939078,0.03622825,-0.00020521,-0.00052845,-0.00
 052685,-0.00020240,-0.00014191,-0.00023047,0.00011465,0.00053213,0.000
 06944,0.00633560,-0.00839728,-0.02014291,0.06337352,0.00494211,-0.0749
 4978,-0.11127453,-0.00507770,-0.00066272,0.00764207,-0.00028571,-0.000
 47617,0.00203557,0.00911248,-0.01176394,-0.00594031,0.00578284,-0.0088
 5861,-0.00561696,-0.00083219,0.00038405,-0.00012685,0.00099650,-0.0012
 5013,-0.00021900,0.00142976,0.00627076,-0.00584207,-0.01571980,0.09278
 625,-0.00066781,-0.11321750,-0.27474187,0.00156552,0.00054503,-0.00277
 420,0.00224857,-0.00057762,-0.00186277,0.01772896,-0.00402656,-0.00344
 857,-0.00239443,0.00660485,0.00369894,-0.00135464,0.00007014,0.0007605
 0,0.00031815,-0.00045800,0.00005919,0.00284309,-0.00744311,-0.00830258
 ,-0.02055748,0.11786564,0.28627477,0.00067943,-0.00008150,-0.00079010,
 0.00963446,0.00778847,0.00713120,-0.10882790,-0.05131776,-0.08178455,-
 0.00017686,0.00035843,0.00011396,-0.00012464,-0.00020388,0.00020851,-0
 .03876278,-0.00138121,-0.03376626,-0.00004279,-0.00005957,-0.00003232,
 -0.00009923,0.00001649,0.00012582,-0.00007330,-0.00000123,0.00005423,0
 .13688684,0.00044407,0.00227372,-0.00135370,-0.01024836,-0.00263665,-0
 .02443477,-0.04733064,-0.10535324,-0.07196768,-0.00007219,-0.00022773,
 0.00089744,0.00004390,-0.00034507,-0.00002814,0.01004442,0.02076733,0.
 00753742,0.00008279,-0.00001745,-0.00003735,0.00001522,-0.00010865,-0.
 00003224,-0.00014394,-0.00010614,0.00024503,0.04370117,0.08897626,0.00
 112884,-0.00338065,0.00022951,-0.01062721,-0.01227684,-0.00559472,-0.0
 7773262,-0.07749617,-0.17778848,0.00024070,0.00339287,-0.00210065,-0.0
 0124508,-0.00120621,0.00157244,-0.02063043,0.00111404,0.00744412,-0.00
 029757,-0.00007798,-0.00003328,-0.00001917,0.00045932,0.00019476,-0.00
 028744,-0.00011560,0.00037877,0.10864980,0.09135582,0.17523950,-0.0001
 5388,-0.00074931,-0.00063154,-0.34750519,0.01291307,-0.00280909,-0.007
 99310,-0.00396258,-0.00530949,-0.00058533,0.00129079,-0.00045228,0.000
 10274,-0.00046433,0.00045750,-0.00087799,0.00298845,0.00284305,-0.0000
 7943,-0.00014286,0.00012005,-0.00003408,-0.00013949,0.00041730,-0.0000
 4206,0.00009388,0.00004966,0.00092247,0.00065843,0.00016165,0.36304663
 ,-0.00330082,0.01181556,-0.00768965,0.00285999,-0.02818217,-0.01179599
 ,0.02757963,0.00135245,0.00179455,-0.00893043,-0.01522883,0.00894678,0
 .00381140,-0.00344311,0.00009445,0.00010833,-0.00321348,-0.00392257,0.
 00039391,-0.00065238,0.00021727,0.00021420,-0.00183033,0.00120486,0.00
 010030,-0.00077667,0.00013952,-0.00141346,-0.00067820,0.00111875,-0.01
 427113,0.03956755,0.00129387,-0.00996182,0.00361372,0.00018983,-0.0148
 4940,-0.05001412,0.01655533,0.00658061,0.00348682,0.00541755,0.0093901
 3,-0.00493819,-0.00252800,0.00236716,0.00020521,0.00214331,-0.00585359
 ,0.00020918,-0.00027545,0.00039402,-0.00011924,0.00021872,0.00089208,-
 0.00041800,0.00032521,0.00106959,-0.00007814,-0.00099231,0.00039525,-0
 .00004701,0.00278739,0.00925793,0.04262358,0.00148693,-0.00216255,0.00
 463403,-0.11385173,-0.02807376,-0.11668495,0.00943151,0.00120798,0.012
 67319,-0.00080250,0.00165135,0.00143574,-0.00062634,-0.00065902,-0.000
 11192,-0.00033415,-0.00130771,-0.00128233,0.00001119,0.00015536,-0.000
 05078,0.00007850,-0.00026710,0.00066926,-0.00009891,-0.00044094,0.0001
 6618,-0.00001570,0.00280515,0.00065851,-0.00680077,-0.00715192,-0.0251
 3546,0.11152198,0.00474686,-0.00672092,0.00953319,-0.02825959,-0.05268
 657,-0.07161637,-0.01012218,-0.00468105,-0.02236262,0.00155512,0.00571
 602,0.00569431,-0.00347369,-0.00278283,0.00003918,-0.00271240,0.001230
 30,0.00336370,0.00018661,0.00071534,-0.00040010,-0.00025729,0.00084293
 ,0.00004165,-0.00028573,-0.00059689,0.00025258,0.00259406,-0.00254417,
 -0.00288736,0.00178508,0.00126961,0.00031804,0.03424315,0.06023822,-0.
 00296067,0.00236223,-0.00717134,-0.11632671,-0.07841379,-0.26628196,-0
 .01281154,-0.00029868,-0.01129685,0.00009557,-0.00291706,-0.00059069,0
 .00157871,0.00140426,0.00020488,0.00310943,0.00176633,0.00294500,-0.00
 003863,-0.00035428,0.00006480,0.00057240,-0.00015228,0.00038586,0.0003
 0512,0.00052245,0.00003595,0.00108201,-0.00257708,0.00050504,0.0023657
 9,0.00063409,0.00547618,0.12302853,0.07802379,0.27572312\\0.00000025,-
 0.00000003,-0.00000003,-0.00000022,0.00000001,-0.00000010,0.00000007,0
 .00000006,0.00000017,-0.00000050,-0.00000003,-0.00000018,0.00000002,-0
 .00000003,-0.00000014,0.00000017,0.00000014,0.00000059,0.00000027,-0.0
 0000015,-0.00000031,-0.00000018,0.00000009,0.00000037,0.00000045,0.,0.
 00000012,0.00000046,-0.00000010,-0.00000003,-0.00000022,-0.00000012,-0
 .00000053,-0.00000056,0.00000016,0.00000007\\\@


 THERE'S SMALL CHOICE IN A BOWL OF ROTTEN APPLES.
                     SHAKESPEARE
 Job cpu time:       0 days  0 hours  4 minutes 13.4 seconds.
 Elapsed time:       0 days  0 hours  0 minutes 16.1 seconds.
 File lengths (MBytes):  RWF=     28 Int=      0 D2E=      0 Chk=      3 Scr=      1
 Normal termination of Gaussian 16 at Wed Dec 23 22:09:12 2020.
