 Entering Gaussian System, Link 0=g16
 Initial command:
 /apps/cent7/gaussian/g16-B.01/g16-haswell/g16/l1.exe "/scratch/bell/zhao922/YARP/paper-example/KHP-network/pp_0/TS-folder/Gau-2767.inp" -scrdir="/scratch/bell/zhao922/YARP/paper-example/KHP-network/pp_0/TS-folder/"
 Entering Link 1 = /apps/cent7/gaussian/g16-B.01/g16-haswell/g16/l1.exe PID=      2770.
  
 Copyright (c) 1988-2017, Gaussian, Inc.  All Rights Reserved.
  
 This is part of the Gaussian(R) 16 program.  It is based on
 the Gaussian(R) 09 system (copyright 2009, Gaussian, Inc.),
 the Gaussian(R) 03 system (copyright 2003, Gaussian, Inc.),
 the Gaussian(R) 98 system (copyright 1998, Gaussian, Inc.),
 the Gaussian(R) 94 system (copyright 1995, Gaussian, Inc.),
 the Gaussian 92(TM) system (copyright 1992, Gaussian, Inc.),
 the Gaussian 90(TM) system (copyright 1990, Gaussian, Inc.),
 the Gaussian 88(TM) system (copyright 1988, Gaussian, Inc.),
 the Gaussian 86(TM) system (copyright 1986, Carnegie Mellon
 University), and the Gaussian 82(TM) system (copyright 1983,
 Carnegie Mellon University). Gaussian is a federally registered
 trademark of Gaussian, Inc.
  
 This software contains proprietary and confidential information,
 including trade secrets, belonging to Gaussian, Inc.
  
 This software is provided under written license and may be
 used, copied, transmitted, or stored only in accord with that
 written license.
  
 The following legend is applicable only to US Government
 contracts under FAR:
  
                    RESTRICTED RIGHTS LEGEND
  
 Use, reproduction and disclosure by the US Government is
 subject to restrictions as set forth in subparagraphs (a)
 and (c) of the Commercial Computer Software - Restricted
 Rights clause in FAR 52.227-19.
  
 Gaussian, Inc.
 340 Quinnipiac St., Bldg. 40, Wallingford CT 06492
  
  
 ---------------------------------------------------------------
 Warning -- This program may not be used in any manner that
 competes with the business of Gaussian, Inc. or will provide
 assistance to any competitor of Gaussian, Inc.  The licensee
 of this program is prohibited from giving any competitor of
 Gaussian, Inc. access to this program.  By using this program,
 the user acknowledges that Gaussian, Inc. is engaged in the
 business of creating and licensing software in the field of
 computational chemistry and represents and warrants to the
 licensee that it is not a competitor of Gaussian, Inc. and that
 it will not use this program in any manner prohibited above.
 ---------------------------------------------------------------
  

 Cite this work as:
 Gaussian 16, Revision B.01,
 M. J. Frisch, G. W. Trucks, H. B. Schlegel, G. E. Scuseria, 
 M. A. Robb, J. R. Cheeseman, G. Scalmani, V. Barone, 
 G. A. Petersson, H. Nakatsuji, X. Li, M. Caricato, A. V. Marenich, 
 J. Bloino, B. G. Janesko, R. Gomperts, B. Mennucci, H. P. Hratchian, 
 J. V. Ortiz, A. F. Izmaylov, J. L. Sonnenberg, D. Williams-Young, 
 F. Ding, F. Lipparini, F. Egidi, J. Goings, B. Peng, A. Petrone, 
 T. Henderson, D. Ranasinghe, V. G. Zakrzewski, J. Gao, N. Rega, 
 G. Zheng, W. Liang, M. Hada, M. Ehara, K. Toyota, R. Fukuda, 
 J. Hasegawa, M. Ishida, T. Nakajima, Y. Honda, O. Kitao, H. Nakai, 
 T. Vreven, K. Throssell, J. A. Montgomery, Jr., J. E. Peralta, 
 F. Ogliaro, M. J. Bearpark, J. J. Heyd, E. N. Brothers, K. N. Kudin, 
 V. N. Staroverov, T. A. Keith, R. Kobayashi, J. Normand, 
 K. Raghavachari, A. P. Rendell, J. C. Burant, S. S. Iyengar, 
 J. Tomasi, M. Cossi, J. M. Millam, M. Klene, C. Adamo, R. Cammi, 
 J. W. Ochterski, R. L. Martin, K. Morokuma, O. Farkas, 
 J. B. Foresman, and D. J. Fox, Gaussian, Inc., Wallingford CT, 2016.
 
 ******************************************
 Gaussian 16:  ES64L-G16RevB.01 20-Dec-2017
                23-Dec-2020 
 ******************************************
 %NProcShared=16
 Will use up to   16 processors via shared memory.
 %Mem=6GB
 --------------------------------------------------------------
 # B3LYP/6-31+G* OPT=(TS, CALCALL, NOEIGEN, maxcycles=100) Freq
 --------------------------------------------------------------
 1/5=1,6=100,10=4,11=1,18=20,26=3,38=1/1,3;
 2/9=110,12=2,17=6,18=5,40=1/2;
 3/5=1,6=6,7=11,11=2,25=1,30=1,71=2,74=-5,140=1/1,2,3;
 4//1;
 5/5=2,38=5/2;
 8/6=4,10=90,11=11/1;
 11/6=1,8=1,9=11,15=111,16=1/1,2,10;
 10/6=1/2;
 6/7=2,8=2,9=2,10=2,18=1,28=1/1;
 7/10=1,25=1/1,2,3,16;
 1/5=1,6=100,10=4,11=1,18=20,26=3/3(3);
 2/9=110/2;
 7/8=1,9=1,25=1,44=-1/16;
 99//99;
 2/9=110/2;
 3/5=1,6=6,7=11,11=2,25=1,30=1,71=2,74=-5,140=1/1,2,3;
 4/5=5,16=3,69=1/1;
 5/5=2,38=5/2;
 8/6=4,10=90,11=11/1;
 11/6=1,8=1,9=11,15=111,16=1/1,2,10;
 10/6=1/2;
 7/10=1,25=1/1,2,3,16;
 1/5=1,6=100,10=4,11=1,18=20,26=3/3(-8);
 2/9=110/2;
 6/7=2,8=2,9=2,10=2,18=1,19=2,28=1/1;
 7/8=1,9=1,25=1,44=-1/16;
 99//99;
 ---------
 pp_6_0 TS
 ---------
 Symbolic Z-matrix:
 Charge =  0 Multiplicity = 1
 C                     1.77037   1.89567  -2.84752 
 C                     0.1892    0.6813   -0.77607 
 C                     1.1441   -0.41895  -0.70447 
 O                     0.56104   2.13864  -2.43399 
 O                     0.6657    2.54183  -1.09456 
 O                     2.26485  -0.52713  -1.11382 
 H                     1.41377   3.67637  -1.65555 
 H                     2.65918   1.65586  -2.30009 
 H                     1.80605   1.65246  -3.90646 
 H                     0.68685  -1.24879  -0.10231 
 H                    -0.76887   0.42485  -1.213 
 H                     0.02795   1.03375   0.24337 
 
 Add virtual bond connecting atoms H7         and O5         Dist= 2.78D+00.
 Add virtual bond connecting atoms O5         and C2         Dist= 3.68D+00.

 GradGradGradGradGradGradGradGradGradGradGradGradGradGradGradGradGradGrad
 Berny optimization.
 Initialization pass.
                           ----------------------------
                           !    Initial Parameters    !
                           ! (Angstroms and Degrees)  !
 --------------------------                            --------------------------
 ! Name  Definition              Value          Derivative Info.                !
 --------------------------------------------------------------------------------
 ! R1    R(1,4)                  1.301          calculate D2E/DX2 analytically  !
 ! R2    R(1,8)                  1.0711         calculate D2E/DX2 analytically  !
 ! R3    R(1,9)                  1.0871         calculate D2E/DX2 analytically  !
 ! R4    R(2,3)                  1.4586         calculate D2E/DX2 analytically  !
 ! R5    R(2,5)                  1.9468         calculate D2E/DX2 analytically  !
 ! R6    R(2,11)                 1.0838         calculate D2E/DX2 analytically  !
 ! R7    R(2,12)                 1.0906         calculate D2E/DX2 analytically  !
 ! R8    R(3,6)                  1.1981         calculate D2E/DX2 analytically  !
 ! R9    R(3,10)                 1.1226         calculate D2E/DX2 analytically  !
 ! R10   R(4,5)                  1.4027         calculate D2E/DX2 analytically  !
 ! R11   R(5,7)                  1.4702         calculate D2E/DX2 analytically  !
 ! A1    A(4,1,8)              130.5968         calculate D2E/DX2 analytically  !
 ! A2    A(4,1,9)              112.4531         calculate D2E/DX2 analytically  !
 ! A3    A(8,1,9)              114.8689         calculate D2E/DX2 analytically  !
 ! A4    A(3,2,5)              124.6586         calculate D2E/DX2 analytically  !
 ! A5    A(3,2,11)             114.8372         calculate D2E/DX2 analytically  !
 ! A6    A(3,2,12)             107.1384         calculate D2E/DX2 analytically  !
 ! A7    A(5,2,11)             112.1199         calculate D2E/DX2 analytically  !
 ! A8    A(5,2,12)              83.123          calculate D2E/DX2 analytically  !
 ! A9    A(11,2,12)            108.8202         calculate D2E/DX2 analytically  !
 ! A10   A(2,3,6)              131.5871         calculate D2E/DX2 analytically  !
 ! A11   A(2,3,10)             108.4975         calculate D2E/DX2 analytically  !
 ! A12   A(6,3,10)             119.8381         calculate D2E/DX2 analytically  !
 ! A13   A(1,4,5)              106.7294         calculate D2E/DX2 analytically  !
 ! A14   A(2,5,4)               82.1404         calculate D2E/DX2 analytically  !
 ! A15   A(2,5,7)              157.5856         calculate D2E/DX2 analytically  !
 ! A16   A(4,5,7)               83.9969         calculate D2E/DX2 analytically  !
 ! D1    D(8,1,4,5)             22.27           calculate D2E/DX2 analytically  !
 ! D2    D(9,1,4,5)           -175.2819         calculate D2E/DX2 analytically  !
 ! D3    D(4,1,8,9)            162.1098         calculate D2E/DX2 analytically  !
 ! D4    D(5,2,3,6)            -20.5599         calculate D2E/DX2 analytically  !
 ! D5    D(5,2,3,10)           156.1498         calculate D2E/DX2 analytically  !
 ! D6    D(11,2,3,6)           124.9713         calculate D2E/DX2 analytically  !
 ! D7    D(11,2,3,10)          -58.319          calculate D2E/DX2 analytically  !
 ! D8    D(12,2,3,6)          -114.0494         calculate D2E/DX2 analytically  !
 ! D9    D(12,2,3,10)           62.6603         calculate D2E/DX2 analytically  !
 ! D10   D(3,2,5,4)             86.9515         calculate D2E/DX2 analytically  !
 ! D11   D(3,2,5,7)             34.6534         calculate D2E/DX2 analytically  !
 ! D12   D(11,2,5,4)           -59.378          calculate D2E/DX2 analytically  !
 ! D13   D(11,2,5,7)          -111.6761         calculate D2E/DX2 analytically  !
 ! D14   D(12,2,5,4)          -166.9397         calculate D2E/DX2 analytically  !
 ! D15   D(12,2,5,7)           140.7623         calculate D2E/DX2 analytically  !
 ! D16   D(1,4,5,2)            -98.5109         calculate D2E/DX2 analytically  !
 ! D17   D(1,4,5,7)             63.8301         calculate D2E/DX2 analytically  !
 --------------------------------------------------------------------------------
 Trust Radius=3.00D-01 FncErr=1.00D-07 GrdErr=1.00D-06 EigMax=2.50D+02 EigMin=1.00D-04
 Number of steps in this run=    100 maximum allowed number of steps=    100.
 Search for a saddle point of order  1.
 GradGradGradGradGradGradGradGradGradGradGradGradGradGradGradGradGradGrad

                          Input orientation:                          
 ---------------------------------------------------------------------
 Center     Atomic      Atomic             Coordinates (Angstroms)
 Number     Number       Type             X           Y           Z
 ---------------------------------------------------------------------
      1          6           0        1.770372    1.895674   -2.847524
      2          6           0        0.189202    0.681295   -0.776069
      3          6           0        1.144104   -0.418953   -0.704467
      4          8           0        0.561041    2.138637   -2.433991
      5          8           0        0.665698    2.541830   -1.094558
      6          8           0        2.264854   -0.527125   -1.113821
      7          1           0        1.413774    3.676367   -1.655545
      8          1           0        2.659175    1.655858   -2.300088
      9          1           0        1.806054    1.652455   -3.906458
     10          1           0        0.686848   -1.248794   -0.102309
     11          1           0       -0.768873    0.424852   -1.213002
     12          1           0        0.027946    1.033749    0.243370
 ---------------------------------------------------------------------
                    Distance matrix (angstroms):
                    1          2          3          4          5
     1  C    0.000000
     2  C    2.875020   0.000000
     3  C    3.215961   1.458599   0.000000
     4  O    1.300970   2.238485   3.142051   0.000000
     5  O    2.170417   1.946811   3.024447   1.402711   0.000000
     6  O    3.019966   2.425425   1.198062   3.428136   3.460658
     7  H    2.172290   3.353134   4.212946   1.922952   1.470203
     8  H    1.071060   3.061564   3.024283   2.157121   2.492428
     9  H    1.087092   3.654682   3.870614   1.988615   3.161990
    10  H    4.312529   2.104008   1.122637   4.114275   3.918397
    11  H    3.358980   1.083781   2.151766   2.489286   2.560004
    12  H    3.651382   1.090634   2.062655   2.945035   2.114495
                    6          7          8          9         10
     6  O    0.000000
     7  H    4.322863   0.000000
     8  H    2.515578   2.459454   0.000000
     9  H    3.572099   3.052329   1.818860   0.000000
    10  H    2.008498   5.215187   4.142138   4.913392   0.000000
    11  H    3.181131   3.941084   3.801137   3.923259   2.480696
    12  H    3.046646   3.536923   3.712084   4.556922   2.400760
                   11         12
    11  H    0.000000
    12  H    1.768246   0.000000
 Stoichiometry    C3H6O3
 Framework group  C1[X(C3H6O3)]
 Deg. of freedom    30
 Full point group                 C1      NOp   1
 Largest Abelian subgroup         C1      NOp   1
 Largest concise Abelian subgroup C1      NOp   1
                         Standard orientation:                         
 ---------------------------------------------------------------------
 Center     Atomic      Atomic             Coordinates (Angstroms)
 Number     Number       Type             X           Y           Z
 ---------------------------------------------------------------------
      1          6           0       -1.185201    1.213387   -0.109860
      2          6           0        0.566862   -1.059427   -0.284031
      3          6           0        1.714270   -0.177795   -0.100485
      4          8           0       -1.397138   -0.008181   -0.504038
      5          8           0       -1.152904   -0.837108    0.600873
      6          8           0        1.795479    0.949286    0.297567
      7          1           0       -2.295045   -0.124984    1.192389
      8          1           0       -0.602325    1.591505    0.705278
      9          1           0       -1.427907    1.945020   -0.876396
     10          1           0        2.646868   -0.749908   -0.352001
     11          1           0        0.462373   -1.468811   -1.282064
     12          1           0        0.676954   -1.881793    0.423837
 ---------------------------------------------------------------------
 Rotational constants (GHZ):           5.8478587           2.6166966           2.0595463
 Standard basis: 6-31+G(d) (6D, 7F)
 There are   126 symmetry adapted cartesian basis functions of A   symmetry.
 There are   126 symmetry adapted basis functions of A   symmetry.
   126 basis functions,   216 primitive gaussians,   126 cartesian basis functions
    24 alpha electrons       24 beta electrons
       nuclear repulsion energy       242.5311322441 Hartrees.
 NAtoms=   12 NActive=   12 NUniq=   12 SFac= 1.00D+00 NAtFMM=   60 NAOKFM=F Big=F
 Integral buffers will be    131072 words long.
 Raffenetti 2 integral format.
 Two-electron integral symmetry is turned on.
 One-electron integrals computed using PRISM.
 NBasis=   126 RedAO= T EigKep=  1.16D-04  NBF=   126
 NBsUse=   126 1.00D-06 EigRej= -1.00D+00 NBFU=   126
 ExpMin= 4.38D-02 ExpMax= 5.48D+03 ExpMxC= 8.25D+02 IAcc=3 IRadAn=         5 AccDes= 0.00D+00
 Harris functional with IExCor=  402 and IRadAn=       5 diagonalized for initial guess.
 HarFok:  IExCor=  402 AccDes= 0.00D+00 IRadAn=         5 IDoV= 1 UseB2=F ITyADJ=14
 ICtDFT=  3500011 ScaDFX=  1.000000  1.000000  1.000000  1.000000
 FoFCou: FMM=F IPFlag=           0 FMFlag=      100000 FMFlg1=           0
         NFxFlg=           0 DoJE=T BraDBF=F KetDBF=T FulRan=T
         wScrn=  0.000000 ICntrl=       500 IOpCl=  0 I1Cent=   200000004 NGrid=           0
         NMat0=    1 NMatS0=      1 NMatT0=    0 NMatD0=    1 NMtDS0=    0 NMtDT0=    0
 Petite list used in FoFCou.
 Keep R1 ints in memory in canonical form, NReq=47237537.
 Requested convergence on RMS density matrix=1.00D-08 within 128 cycles.
 Requested convergence on MAX density matrix=1.00D-06.
 Requested convergence on             energy=1.00D-06.
 No special actions if energy rises.
 SCF Done:  E(RB3LYP) =  -343.229893395     A.U. after   16 cycles
            NFock= 16  Conv=0.40D-08     -V/T= 2.0083
 DoSCS=F DFT=T ScalE2(SS,OS)=  1.000000  1.000000
 Range of M.O.s used for correlation:     1   126
 NBasis=   126 NAE=    24 NBE=    24 NFC=     0 NFV=     0
 NROrb=    126 NOA=    24 NOB=    24 NVA=   102 NVB=   102

 **** Warning!!: The largest alpha MO coefficient is  0.36295200D+02


 **** Warning!!: The smallest alpha delta epsilon is  0.77488564D-01

 Symmetrizing basis deriv contribution to polar:
 IMax=3 JMax=2 DiffMx= 0.00D+00
 G2DrvN: will do    13 centers at a time, making    1 passes.
 Calling FoFCou, ICntrl=  3107 FMM=F I1Cent=   0 AccDes= 0.00D+00.
 End of G2Drv F.D. properties file   721 does not exist.
 End of G2Drv F.D. properties file   722 does not exist.
 End of G2Drv F.D. properties file   788 does not exist.
          IDoAtm=111111111111
          Differentiating once with respect to electric field.
                with respect to dipole field.
          Differentiating once with respect to nuclear coordinates.
 Keep R1 ints in memory in canonical form, NReq=47193559.
          There are    39 degrees of freedom in the 1st order CPHF.  IDoFFX=6 NUNeed=     3.
     36 vectors produced by pass  0 Test12= 6.28D-15 2.56D-09 XBig12= 3.69D+02 1.45D+01.
 AX will form    36 AO Fock derivatives at one time.
     36 vectors produced by pass  1 Test12= 6.28D-15 2.56D-09 XBig12= 1.05D+02 2.19D+00.
     36 vectors produced by pass  2 Test12= 6.28D-15 2.56D-09 XBig12= 1.01D+00 1.90D-01.
     36 vectors produced by pass  3 Test12= 6.28D-15 2.56D-09 XBig12= 4.79D-03 9.79D-03.
     36 vectors produced by pass  4 Test12= 6.28D-15 2.56D-09 XBig12= 7.52D-06 4.06D-04.
     31 vectors produced by pass  5 Test12= 6.28D-15 2.56D-09 XBig12= 8.35D-09 1.28D-05.
      5 vectors produced by pass  6 Test12= 6.28D-15 2.56D-09 XBig12= 7.58D-12 3.63D-07.
      2 vectors produced by pass  7 Test12= 6.28D-15 2.56D-09 XBig12= 5.93D-15 9.65D-09.
 InvSVY:  IOpt=1 It=  1 EMax= 5.33D-15
 Solved reduced A of dimension   218 with    39 vectors.
 Isotropic polarizability for W=    0.000000       80.66 Bohr**3.
 End of Minotr F.D. properties file   721 does not exist.
 End of Minotr F.D. properties file   722 does not exist.
 End of Minotr F.D. properties file   788 does not exist.

 **********************************************************************

            Population analysis using the SCF Density.

 **********************************************************************

 Orbital symmetries:
       Occupied  (A) (A) (A) (A) (A) (A) (A) (A) (A) (A) (A) (A)
                 (A) (A) (A) (A) (A) (A) (A) (A) (A) (A) (A) (A)
       Virtual   (A) (A) (A) (A) (A) (A) (A) (A) (A) (A) (A) (A)
                 (A) (A) (A) (A) (A) (A) (A) (A) (A) (A) (A) (A)
                 (A) (A) (A) (A) (A) (A) (A) (A) (A) (A) (A) (A)
                 (A) (A) (A) (A) (A) (A) (A) (A) (A) (A) (A) (A)
                 (A) (A) (A) (A) (A) (A) (A) (A) (A) (A) (A) (A)
                 (A) (A) (A) (A) (A) (A) (A) (A) (A) (A) (A) (A)
                 (A) (A) (A) (A) (A) (A) (A) (A) (A) (A) (A) (A)
                 (A) (A) (A) (A) (A) (A) (A) (A) (A) (A) (A) (A)
                 (A) (A) (A) (A) (A) (A)
 The electronic state is 1-A.
 Alpha  occ. eigenvalues --  -19.30258 -19.24290 -19.18444 -10.31100 -10.29489
 Alpha  occ. eigenvalues --  -10.24030  -1.20774  -1.08691  -0.93289  -0.77776
 Alpha  occ. eigenvalues --   -0.68584  -0.59750  -0.55626  -0.54108  -0.51469
 Alpha  occ. eigenvalues --   -0.50223  -0.47604  -0.46131  -0.41982  -0.39801
 Alpha  occ. eigenvalues --   -0.34039  -0.32247  -0.28957  -0.19024
 Alpha virt. eigenvalues --   -0.11275  -0.05091  -0.02496  -0.00215   0.00775
 Alpha virt. eigenvalues --    0.01885   0.03207   0.04485   0.05364   0.05852
 Alpha virt. eigenvalues --    0.08078   0.08481   0.09567   0.10581   0.12333
 Alpha virt. eigenvalues --    0.14598   0.16504   0.18371   0.20226   0.20755
 Alpha virt. eigenvalues --    0.22085   0.23368   0.24271   0.24585   0.25179
 Alpha virt. eigenvalues --    0.26835   0.27573   0.28031   0.28284   0.29903
 Alpha virt. eigenvalues --    0.31964   0.34216   0.35641   0.36930   0.41897
 Alpha virt. eigenvalues --    0.45715   0.62550   0.63132   0.64668   0.68101
 Alpha virt. eigenvalues --    0.70667   0.76600   0.79145   0.80555   0.86298
 Alpha virt. eigenvalues --    0.88746   0.90326   0.91674   0.94487   1.00629
 Alpha virt. eigenvalues --    1.04342   1.08547   1.10107   1.10887   1.14226
 Alpha virt. eigenvalues --    1.18065   1.20377   1.21499   1.23581   1.25496
 Alpha virt. eigenvalues --    1.29148   1.33852   1.37623   1.42776   1.47242
 Alpha virt. eigenvalues --    1.50297   1.52477   1.55307   1.56272   1.64197
 Alpha virt. eigenvalues --    1.68718   1.72784   1.75371   1.78201   1.80309
 Alpha virt. eigenvalues --    1.84181   1.92097   1.95750   2.00333   2.05681
 Alpha virt. eigenvalues --    2.09514   2.15269   2.19739   2.20766   2.26550
 Alpha virt. eigenvalues --    2.33881   2.42824   2.44163   2.47111   2.58645
 Alpha virt. eigenvalues --    2.65152   2.75889   2.84115   2.91459   3.07179
 Alpha virt. eigenvalues --    3.14542   4.08373   4.13842   4.21426   4.23063
 Alpha virt. eigenvalues --    4.32084   4.48022
          Condensed to atoms (all electrons):
               1          2          3          4          5          6
     1  C    5.446587  -0.012491   0.017632   0.284768  -0.340764  -0.000054
     2  C   -0.012491   6.141231  -0.044495   0.068579  -0.081309  -0.103040
     3  C    0.017632  -0.044495   5.135484   0.067503  -0.172150   0.389649
     4  O    0.284768   0.068579   0.067503   7.945544  -0.220950  -0.003998
     5  O   -0.340764  -0.081309  -0.172150  -0.220950   9.017590   0.020504
     6  O   -0.000054  -0.103040   0.389649  -0.003998   0.020504   8.144456
     7  H    0.285233   0.017130   0.023103   0.036904  -0.222633  -0.001941
     8  H    0.350733   0.004011  -0.015025  -0.038377   0.034019   0.000144
     9  H    0.376635  -0.007218   0.004479  -0.050017   0.010170  -0.000381
    10  H    0.002718  -0.177213   0.427791   0.005116  -0.003601  -0.065896
    11  H   -0.005814   0.413535  -0.086359  -0.041256   0.032113   0.003845
    12  H    0.005162   0.371048  -0.026551   0.025371  -0.071772  -0.000848
               7          8          9         10         11         12
     1  C    0.285233   0.350733   0.376635   0.002718  -0.005814   0.005162
     2  C    0.017130   0.004011  -0.007218  -0.177213   0.413535   0.371048
     3  C    0.023103  -0.015025   0.004479   0.427791  -0.086359  -0.026551
     4  O    0.036904  -0.038377  -0.050017   0.005116  -0.041256   0.025371
     5  O   -0.222633   0.034019   0.010170  -0.003601   0.032113  -0.071772
     6  O   -0.001941   0.000144  -0.000381  -0.065896   0.003845  -0.000848
     7  H    0.837777  -0.015010   0.000334   0.000030  -0.000518   0.000676
     8  H   -0.015010   0.437393  -0.036840  -0.000124   0.000190  -0.000092
     9  H    0.000334  -0.036840   0.492847   0.000002   0.000045   0.000007
    10  H    0.000030  -0.000124   0.000002   0.642730   0.002052   0.000964
    11  H   -0.000518   0.000190   0.000045   0.002052   0.462955  -0.030754
    12  H    0.000676  -0.000092   0.000007   0.000964  -0.030754   0.486003
 Mulliken charges:
               1
     1  C   -0.410344
     2  C   -0.589768
     3  C    0.278938
     4  O   -0.079187
     5  O   -0.001216
     6  O   -0.382439
     7  H    0.038915
     8  H    0.278978
     9  H    0.209938
    10  H    0.165431
    11  H    0.249966
    12  H    0.240787
 Sum of Mulliken charges =  -0.00000
 Mulliken charges with hydrogens summed into heavy atoms:
               1
     1  C    0.078573
     2  C   -0.099014
     3  C    0.444369
     4  O   -0.079187
     5  O    0.037699
     6  O   -0.382439
 APT charges:
               1
     1  C   -0.098714
     2  C   -0.149289
     3  C    0.500478
     4  O    0.036496
     5  O    0.486310
     6  O   -0.462712
     7  H   -0.318453
     8  H    0.108307
     9  H    0.067932
    10  H   -0.126697
    11  H   -0.061717
    12  H    0.018060
 Sum of APT charges =  -0.00000
 APT charges with hydrogens summed into heavy atoms:
               1
     1  C    0.077524
     2  C   -0.192945
     3  C    0.373781
     4  O    0.036496
     5  O    0.167857
     6  O   -0.462712
 Electronic spatial extent (au):  <R**2>=            611.8911
 Charge=             -0.0000 electrons
 Dipole moment (field-independent basis, Debye):
    X=              1.4623    Y=             -0.3704    Z=             -1.9366  Tot=              2.4548
 Quadrupole moment (field-independent basis, Debye-Ang):
   XX=            -42.9305   YY=            -35.0068   ZZ=            -36.9812
   XY=             -6.8504   XZ=              1.2497   YZ=             -0.9934
 Traceless Quadrupole moment (field-independent basis, Debye-Ang):
   XX=             -4.6244   YY=              3.2994   ZZ=              1.3250
   XY=             -6.8504   XZ=              1.2497   YZ=             -0.9934
 Octapole moment (field-independent basis, Debye-Ang**2):
  XXX=             13.4300  YYY=              3.2377  ZZZ=             -4.2862  XYY=             -3.1588
  XXY=             -7.5982  XXZ=             -8.6385  XZZ=              3.6308  YZZ=             -0.3118
  YYZ=             -2.5761  XYZ=              0.5059
 Hexadecapole moment (field-independent basis, Debye-Ang**3):
 XXXX=           -534.3455 YYYY=           -218.7158 ZZZZ=            -89.7868 XXXY=             -1.4920
 XXXZ=             16.7464 YYYX=             -1.7394 YYYZ=             -5.6864 ZZZX=             13.1470
 ZZZY=             -2.3858 XXYY=           -131.9515 XXZZ=           -103.5917 YYZZ=            -48.1070
 XXYZ=             -7.8124 YYXZ=              7.7828 ZZXY=              1.9617
 N-N= 2.425311322441D+02 E-N=-1.288621668271D+03  KE= 3.404041562494D+02
  Exact polarizability: 106.114 -25.980  83.380 -18.441   2.477  52.471
 Approx polarizability: 207.560 -90.971 199.594 -45.060   5.661  91.778
 Calling FoFJK, ICntrl=    100127 FMM=F ISym2X=0 I1Cent= 0 IOpClX= 0 NMat=1 NMatS=1 NMatT=0.
 ***** Axes restored to original set *****
 -------------------------------------------------------------------
 Center     Atomic                   Forces (Hartrees/Bohr)
 Number     Number              X              Y              Z
 -------------------------------------------------------------------
      1        6           0.005958793    0.035319363   -0.043970479
      2        6          -0.032161859    0.010970652    0.024826750
      3        6          -0.013737015   -0.008921192    0.007360674
      4        8           0.003906678   -0.065853767   -0.018043499
      5        8           0.025947113    0.043896492    0.006634432
      6        8           0.025370948    0.001194915   -0.011073328
      7        1           0.000469136   -0.008701433    0.018960742
      8        1          -0.004758903   -0.002761866    0.019852069
      9        1          -0.004299657    0.003966781   -0.002595361
     10        1           0.001022512   -0.003783068   -0.000971024
     11        1          -0.003979366   -0.002297982   -0.004490088
     12        1          -0.003738381   -0.003028895    0.003509111
 -------------------------------------------------------------------
 Cartesian Forces:  Max     0.065853767 RMS     0.019995292
 FormGI is forming the generalized inverse of G from B-inverse, IUseBI=4.

 GradGradGradGradGradGradGradGradGradGradGradGradGradGradGradGradGradGrad
 Berny optimization.
 Internal  Forces:  Max     0.052341043 RMS     0.015553595
 Search for a saddle point.
 Step number   1 out of a maximum of  100
 All quantities printed in internal units (Hartrees-Bohrs-Radians)
 Swapping is turned off.
 Second derivative matrix not updated -- analytic derivatives used.
 ITU=  0
     Eigenvalues ---   -0.12478  -0.01144  -0.00938  -0.00570   0.00060
     Eigenvalues ---    0.02088   0.02253   0.02965   0.03865   0.04334
     Eigenvalues ---    0.05407   0.06956   0.07684   0.10552   0.11049
     Eigenvalues ---    0.12770   0.14451   0.16099   0.18872   0.23415
     Eigenvalues ---    0.27630   0.33342   0.35085   0.36476   0.36687
     Eigenvalues ---    0.37820   0.40851   0.46180   0.60659   0.94574
 Eigenvectors required to have negative eigenvalues:
                          R11       R5        D17       A16       A13
   1                   -0.59175   0.52153   0.32011   0.26577   0.22134
                          A14       A15       D16       A8        D1
   1                   -0.19073   0.18468   0.14439  -0.10483  -0.08682
 RFO step:  Lambda0=1.418962980D-04 Lambda=-6.06230227D-02.
 Linear search not attempted -- option 19 set.
 Maximum step size (   0.300) exceeded in Quadratic search.
    -- Step size scaled by   0.439
 Iteration  1 RMS(Cart)=  0.09693717 RMS(Int)=  0.02316503
 Iteration  2 RMS(Cart)=  0.06080107 RMS(Int)=  0.00159688
 Iteration  3 RMS(Cart)=  0.00222305 RMS(Int)=  0.00058076
 Iteration  4 RMS(Cart)=  0.00000203 RMS(Int)=  0.00058076
 Iteration  5 RMS(Cart)=  0.00000000 RMS(Int)=  0.00058076
 Variable       Old X    -DE/DX   Delta X   Delta X   Delta X     New X
                                 (Linear)    (Quad)   (Total)
    R1        2.45848  -0.00121   0.00000   0.04091   0.04091   2.49939
    R2        2.02401   0.00682   0.00000   0.00396   0.00396   2.02797
    R3        2.05431   0.00150   0.00000   0.00052   0.00052   2.05482
    R4        2.75635   0.01674   0.00000   0.01397   0.01397   2.77032
    R5        3.67894   0.01540   0.00000   0.05579   0.05579   3.73473
    R6        2.04805   0.00587   0.00000   0.00532   0.00532   2.05337
    R7        2.06100   0.00285   0.00000   0.00031   0.00031   2.06131
    R8        2.26401   0.02741   0.00000   0.00966   0.00966   2.27367
    R9        2.12148   0.00186   0.00000   0.00011   0.00011   2.12158
   R10        2.65074   0.05111   0.00000   0.04196   0.04196   2.69270
   R11        2.77828  -0.01371   0.00000  -0.22821  -0.22821   2.55008
    A1        2.27934  -0.02339   0.00000  -0.06913  -0.07089   2.20845
    A2        1.96268   0.00621   0.00000   0.01188   0.01007   1.97275
    A3        2.00484   0.01620   0.00000   0.03091   0.02897   2.03382
    A4        2.17570  -0.01725   0.00000  -0.06846  -0.06864   2.10707
    A5        2.00429   0.00446   0.00000   0.00702   0.00658   2.01086
    A6        1.86992   0.00129   0.00000   0.02296   0.02333   1.89325
    A7        1.95686   0.00710   0.00000   0.03570   0.03510   1.99196
    A8        1.45077   0.00860   0.00000   0.00804   0.00874   1.45951
    A9        1.89927  -0.00163   0.00000   0.00766   0.00715   1.90642
   A10        2.29663  -0.00824   0.00000  -0.02300  -0.02300   2.27363
   A11        1.89364   0.00738   0.00000   0.01977   0.01976   1.91340
   A12        2.09157   0.00092   0.00000   0.00347   0.00346   2.09503
   A13        1.86278   0.01473   0.00000  -0.10013  -0.10013   1.76265
   A14        1.43362   0.00710   0.00000  -0.05342  -0.05397   1.37965
   A15        2.75039   0.02781   0.00000  -0.04802  -0.04799   2.70240
   A16        1.46602   0.01086   0.00000   0.01432   0.01371   1.47974
    D1        0.38869   0.00560   0.00000   0.17569   0.17504   0.56373
    D2       -3.05925   0.00539   0.00000   0.07544   0.07608  -2.98317
    D3        2.82935  -0.00181   0.00000  -0.10535  -0.10536   2.72399
    D4       -0.35884   0.00427   0.00000   0.01567   0.01511  -0.34373
    D5        2.72533   0.00565   0.00000   0.02115   0.02059   2.74592
    D6        2.18116  -0.00317   0.00000  -0.01767  -0.01750   2.16366
    D7       -1.01786  -0.00179   0.00000  -0.01219  -0.01202  -1.02988
    D8       -1.99054  -0.00147   0.00000   0.01321   0.01360  -1.97694
    D9        1.09363  -0.00009   0.00000   0.01869   0.01908   1.11271
   D10        1.51759  -0.00487   0.00000  -0.03390  -0.03387   1.48372
   D11        0.60482  -0.00654   0.00000  -0.01051  -0.01070   0.59412
   D12       -1.03634   0.00290   0.00000   0.00596   0.00633  -1.03001
   D13       -1.94912   0.00123   0.00000   0.02935   0.02950  -1.91961
   D14       -2.91365   0.00130   0.00000  -0.00551  -0.00559  -2.91924
   D15        2.45677  -0.00036   0.00000   0.01788   0.01758   2.47434
   D16       -1.71934  -0.05234   0.00000  -0.27287  -0.27334  -1.99268
   D17        1.11405  -0.03092   0.00000  -0.30370  -0.30323   0.81082
         Item               Value     Threshold  Converged?
 Maximum Force            0.052341     0.000450     NO 
 RMS     Force            0.015554     0.000300     NO 
 Maximum Displacement     0.435433     0.001800     NO 
 RMS     Displacement     0.127624     0.001200     NO 
 Predicted change in Energy=-3.249796D-02
 GradGradGradGradGradGradGradGradGradGradGradGradGradGradGradGradGradGrad

                          Input orientation:                          
 ---------------------------------------------------------------------
 Center     Atomic      Atomic             Coordinates (Angstroms)
 Number     Number       Type             X           Y           Z
 ---------------------------------------------------------------------
      1          6           0        1.798496    2.003839   -2.883606
      2          6           0        0.134329    0.667374   -0.726646
      3          6           0        1.101533   -0.433448   -0.683795
      4          8           0        0.551321    1.988190   -2.443564
      5          8           0        0.720428    2.511413   -1.129021
      6          8           0        2.206562   -0.516488   -1.152460
      7          1           0        1.484440    3.445946   -1.732287
      8          1           0        2.684996    1.858870   -2.296442
      9          1           0        1.877756    1.783223   -3.945402
     10          1           0        0.690673   -1.272476   -0.061167
     11          1           0       -0.839923    0.411946   -1.134425
     12          1           0        0.009586    1.057457    0.284353
 ---------------------------------------------------------------------
                    Distance matrix (angstroms):
                    1          2          3          4          5
     1  C    0.000000
     2  C    3.034480   0.000000
     3  C    3.356382   1.465991   0.000000
     4  O    1.322621   2.205958   3.043658   0.000000
     5  O    2.120950   1.976335   3.002612   1.424915   0.000000
     6  O    3.084710   2.424252   1.203176   3.268055   3.373030
     7  H    1.871854   3.248781   4.036787   1.871277   1.349443
     8  H    1.073154   3.223325   3.219116   2.142647   2.376596
     9  H    1.087366   3.826886   4.019234   2.014189   3.130762
    10  H    4.464042   2.124947   1.122692   4.040691   3.931796
    11  H    3.543305   1.086597   2.164950   2.476681   2.615814
    12  H    3.759229   1.090800   2.086254   2.932793   2.148700
                    6          7          8          9         10
     6  O    0.000000
     7  H    4.069219   0.000000
     8  H    2.679537   2.068433   0.000000
     9  H    3.632811   2.795930   1.837506   0.000000
    10  H    2.015032   5.068157   4.333486   5.082691   0.000000
    11  H    3.184868   3.868495   3.983581   4.143401   2.516324
    12  H    3.060791   3.456431   3.802708   4.680559   2.451908
                   11         12
    11  H    0.000000
    12  H    1.775185   0.000000
 Stoichiometry    C3H6O3
 Framework group  C1[X(C3H6O3)]
 Deg. of freedom    30
 Full point group                 C1      NOp   1
 Largest Abelian subgroup         C1      NOp   1
 Largest concise Abelian subgroup C1      NOp   1
                         Standard orientation:                         
 ---------------------------------------------------------------------
 Center     Atomic      Atomic             Coordinates (Angstroms)
 Number     Number       Type             X           Y           Z
 ---------------------------------------------------------------------
      1          6           0       -1.405214    1.115498   -0.090297
      2          6           0        0.683105   -1.080729   -0.243845
      3          6           0        1.734170   -0.071720   -0.081698
      4          8           0       -1.269284   -0.108202   -0.573418
      5          8           0       -1.077191   -0.853876    0.625520
      6          8           0        1.660123    1.081534    0.253194
      7          1           0       -2.128583   -0.145887    1.088467
      8          1           0       -0.930223    1.512723    0.786205
      9          1           0       -1.720855    1.836444   -0.840612
     10          1           0        2.737312   -0.537830   -0.273759
     11          1           0        0.637726   -1.548560   -1.223523
     12          1           0        0.823066   -1.850831    0.515891
 ---------------------------------------------------------------------
 Rotational constants (GHZ):           5.7068819           2.6693494           2.0852106
 Standard basis: 6-31+G(d) (6D, 7F)
 There are   126 symmetry adapted cartesian basis functions of A   symmetry.
 There are   126 symmetry adapted basis functions of A   symmetry.
   126 basis functions,   216 primitive gaussians,   126 cartesian basis functions
    24 alpha electrons       24 beta electrons
       nuclear repulsion energy       242.4869583516 Hartrees.
 NAtoms=   12 NActive=   12 NUniq=   12 SFac= 1.00D+00 NAtFMM=   60 NAOKFM=F Big=F
 Integral buffers will be    131072 words long.
 Raffenetti 2 integral format.
 Two-electron integral symmetry is turned on.
 One-electron integrals computed using PRISM.
 NBasis=   126 RedAO= T EigKep=  1.22D-04  NBF=   126
 NBsUse=   126 1.00D-06 EigRej= -1.00D+00 NBFU=   126
 Initial guess from the checkpoint file:  "/scratch/bell/zhao922/YARP/paper-example/KHP-network/pp_0/TS-folder/Gau-2770.chk"
 B after Tr=    -0.000000    0.000000   -0.000000
         Rot=    0.999022    0.013993    0.004970   -0.041648 Ang=   5.07 deg.
 ExpMin= 4.38D-02 ExpMax= 5.48D+03 ExpMxC= 8.25D+02 IAcc=3 IRadAn=         5 AccDes= 0.00D+00
 Harris functional with IExCor=  402 and IRadAn=       5 diagonalized for initial guess.
 HarFok:  IExCor=  402 AccDes= 0.00D+00 IRadAn=         5 IDoV= 1 UseB2=F ITyADJ=14
 ICtDFT=  3500011 ScaDFX=  1.000000  1.000000  1.000000  1.000000
 FoFCou: FMM=F IPFlag=           0 FMFlag=      100000 FMFlg1=           0
         NFxFlg=           0 DoJE=T BraDBF=F KetDBF=T FulRan=T
         wScrn=  0.000000 ICntrl=       500 IOpCl=  0 I1Cent=   200000004 NGrid=           0
         NMat0=    1 NMatS0=      1 NMatT0=    0 NMatD0=    1 NMtDS0=    0 NMtDT0=    0
 Petite list used in FoFCou.
 Keep R1 ints in memory in canonical form, NReq=47237537.
 Requested convergence on RMS density matrix=1.00D-08 within 128 cycles.
 Requested convergence on MAX density matrix=1.00D-06.
 Requested convergence on             energy=1.00D-06.
 No special actions if energy rises.
 SCF Done:  E(RB3LYP) =  -343.260599094     A.U. after   14 cycles
            NFock= 14  Conv=0.46D-08     -V/T= 2.0086
 DoSCS=F DFT=T ScalE2(SS,OS)=  1.000000  1.000000
 Range of M.O.s used for correlation:     1   126
 NBasis=   126 NAE=    24 NBE=    24 NFC=     0 NFV=     0
 NROrb=    126 NOA=    24 NOB=    24 NVA=   102 NVB=   102

 **** Warning!!: The largest alpha MO coefficient is  0.35841730D+02

 Symmetrizing basis deriv contribution to polar:
 IMax=3 JMax=2 DiffMx= 0.00D+00
 G2DrvN: will do    13 centers at a time, making    1 passes.
 Calling FoFCou, ICntrl=  3107 FMM=F I1Cent=   0 AccDes= 0.00D+00.
 End of G2Drv F.D. properties file   721 does not exist.
 End of G2Drv F.D. properties file   722 does not exist.
 End of G2Drv F.D. properties file   788 does not exist.
          IDoAtm=111111111111
          Differentiating once with respect to electric field.
                with respect to dipole field.
          Differentiating once with respect to nuclear coordinates.
 Keep R1 ints in memory in canonical form, NReq=47193566.
          There are    39 degrees of freedom in the 1st order CPHF.  IDoFFX=6 NUNeed=     3.
     36 vectors produced by pass  0 Test12= 6.28D-15 2.56D-09 XBig12= 3.22D+02 1.55D+01.
 AX will form    36 AO Fock derivatives at one time.
     36 vectors produced by pass  1 Test12= 6.28D-15 2.56D-09 XBig12= 8.25D+01 2.28D+00.
     36 vectors produced by pass  2 Test12= 6.28D-15 2.56D-09 XBig12= 8.09D-01 1.52D-01.
     36 vectors produced by pass  3 Test12= 6.28D-15 2.56D-09 XBig12= 3.78D-03 1.02D-02.
     36 vectors produced by pass  4 Test12= 6.28D-15 2.56D-09 XBig12= 5.83D-06 3.71D-04.
     31 vectors produced by pass  5 Test12= 6.28D-15 2.56D-09 XBig12= 5.93D-09 1.16D-05.
      5 vectors produced by pass  6 Test12= 6.28D-15 2.56D-09 XBig12= 5.55D-12 3.00D-07.
      3 vectors produced by pass  7 Test12= 6.28D-15 2.56D-09 XBig12= 4.79D-15 1.14D-08.
 InvSVY:  IOpt=1 It=  1 EMax= 3.55D-15
 Solved reduced A of dimension   219 with    39 vectors.
 Isotropic polarizability for W=    0.000000       75.31 Bohr**3.
 End of Minotr F.D. properties file   721 does not exist.
 End of Minotr F.D. properties file   722 does not exist.
 End of Minotr F.D. properties file   788 does not exist.
 Calling FoFJK, ICntrl=    100127 FMM=F ISym2X=0 I1Cent= 0 IOpClX= 0 NMat=1 NMatS=1 NMatT=0.
 ***** Axes restored to original set *****
 -------------------------------------------------------------------
 Center     Atomic                   Forces (Hartrees/Bohr)
 Number     Number              X              Y              Z
 -------------------------------------------------------------------
      1        6           0.004018231    0.034213659   -0.031400258
      2        6          -0.023977292    0.007111305    0.019713482
      3        6          -0.007406840   -0.006390592    0.004182790
      4        8           0.008654963   -0.048156949   -0.006071799
      5        8           0.018746468    0.033839903    0.002531861
      6        8           0.014543377    0.001535389   -0.007255907
      7        1          -0.004327738   -0.008567161    0.011366910
      8        1          -0.003516681   -0.010855242    0.012550313
      9        1          -0.003494888    0.003007758   -0.002060883
     10        1           0.001048347   -0.002777146   -0.001378949
     11        1          -0.001958726   -0.001465300   -0.004371797
     12        1          -0.002329221   -0.001495625    0.002194237
 -------------------------------------------------------------------
 Cartesian Forces:  Max     0.048156949 RMS     0.014984434
 FormGI is forming the generalized inverse of G from B-inverse, IUseBI=4.

 GradGradGradGradGradGradGradGradGradGradGradGradGradGradGradGradGradGrad
 Berny optimization.
 Internal  Forces:  Max     0.034714687 RMS     0.010725163
 Search for a saddle point.
 Step number   2 out of a maximum of  100
 All quantities printed in internal units (Hartrees-Bohrs-Radians)
 Swapping is turned off.
 Second derivative matrix not updated -- analytic derivatives used.
 ITU=  0  0
     Eigenvalues ---   -0.19377  -0.00760  -0.00616   0.00070   0.00412
     Eigenvalues ---    0.02120   0.02470   0.03442   0.04183   0.05342
     Eigenvalues ---    0.06647   0.07632   0.09140   0.10354   0.11468
     Eigenvalues ---    0.13281   0.14643   0.16521   0.18487   0.20830
     Eigenvalues ---    0.27714   0.32432   0.35037   0.35830   0.36211
     Eigenvalues ---    0.36421   0.39934   0.42198   0.62056   0.91502
 Eigenvectors required to have negative eigenvalues:
                          R11       R5        A16       A13       A14
   1                    0.58214  -0.44981  -0.34742  -0.29610   0.29049
                          D17       D1        A15       D16       D2
   1                   -0.24088   0.15919  -0.13162  -0.12137   0.10274
 RFO step:  Lambda0=5.495848071D-05 Lambda=-3.81678404D-02.
 Linear search not attempted -- option 19 set.
 Maximum step size (   0.300) exceeded in Quadratic search.
    -- Step size scaled by   0.628
 Iteration  1 RMS(Cart)=  0.13505016 RMS(Int)=  0.02894229
 Iteration  2 RMS(Cart)=  0.04967209 RMS(Int)=  0.00323101
 Iteration  3 RMS(Cart)=  0.00231334 RMS(Int)=  0.00283061
 Iteration  4 RMS(Cart)=  0.00000465 RMS(Int)=  0.00283061
 Iteration  5 RMS(Cart)=  0.00000001 RMS(Int)=  0.00283061
 Variable       Old X    -DE/DX   Delta X   Delta X   Delta X     New X
                                 (Linear)    (Quad)   (Total)
    R1        2.49939   0.00445   0.00000   0.05029   0.05029   2.54968
    R2        2.02797   0.00543   0.00000   0.01540   0.01540   2.04336
    R3        2.05482   0.00115   0.00000   0.00203   0.00203   2.05685
    R4        2.77032   0.01100   0.00000   0.01860   0.01860   2.78892
    R5        3.73473   0.01187   0.00000   0.14347   0.14347   3.87820
    R6        2.05337   0.00374   0.00000   0.00389   0.00389   2.05726
    R7        2.06131   0.00177   0.00000  -0.00140  -0.00140   2.05991
    R8        2.27367   0.01608   0.00000   0.00797   0.00797   2.28164
    R9        2.12158   0.00093   0.00000  -0.00062  -0.00062   2.12096
   R10        2.69270   0.03222   0.00000   0.04227   0.04227   2.73497
   R11        2.55008  -0.01346   0.00000  -0.17636  -0.17636   2.37372
    A1        2.20845  -0.01715   0.00000  -0.09408  -0.10122   2.10723
    A2        1.97275   0.00471   0.00000   0.01321   0.00493   1.97768
    A3        2.03382   0.01004   0.00000   0.00678  -0.00097   2.03284
    A4        2.10707  -0.01263   0.00000  -0.00044  -0.00052   2.10655
    A5        2.01086   0.00303   0.00000   0.00985   0.00937   2.02023
    A6        1.89325   0.00180   0.00000   0.02535   0.02513   1.91838
    A7        1.99196   0.00438   0.00000  -0.02967  -0.02973   1.96224
    A8        1.45951   0.00633   0.00000  -0.01582  -0.01575   1.44376
    A9        1.90642  -0.00083   0.00000   0.01572   0.01515   1.92157
   A10        2.27363  -0.00610   0.00000  -0.01972  -0.01973   2.25390
   A11        1.91340   0.00581   0.00000   0.02100   0.02099   1.93439
   A12        2.09503   0.00034   0.00000  -0.00086  -0.00088   2.09416
   A13        1.76265   0.01189   0.00000  -0.07328  -0.07328   1.68938
   A14        1.37965   0.00787   0.00000  -0.08111  -0.08216   1.29749
   A15        2.70240   0.01757   0.00000  -0.05971  -0.06342   2.63898
   A16        1.47974   0.00337   0.00000  -0.04015  -0.04158   1.43816
    D1        0.56373   0.01244   0.00000   0.32913   0.32775   0.89147
    D2       -2.98317   0.00868   0.00000   0.12396   0.12535  -2.85782
    D3        2.72399  -0.00523   0.00000  -0.21118  -0.20825   2.51574
    D4       -0.34373   0.00361   0.00000  -0.07162  -0.07157  -0.41530
    D5        2.74592   0.00476   0.00000  -0.06188  -0.06184   2.68408
    D6        2.16366  -0.00297   0.00000  -0.11489  -0.11514   2.04851
    D7       -1.02988  -0.00181   0.00000  -0.10515  -0.10541  -1.13529
    D8       -1.97694  -0.00053   0.00000  -0.06777  -0.06756  -2.04450
    D9        1.11271   0.00062   0.00000  -0.05803  -0.05783   1.05488
   D10        1.48372  -0.00543   0.00000  -0.15194  -0.15060   1.33312
   D11        0.59412  -0.00387   0.00000   0.08841   0.08734   0.68146
   D12       -1.03001   0.00145   0.00000  -0.12226  -0.12113  -1.15114
   D13       -1.91961   0.00301   0.00000   0.11810   0.11681  -1.80280
   D14       -2.91924  -0.00052   0.00000  -0.13173  -0.13058  -3.04982
   D15        2.47434   0.00103   0.00000   0.10863   0.10736   2.58171
   D16       -1.99268  -0.03471   0.00000  -0.25596  -0.26414  -2.25682
   D17        0.81082  -0.02102   0.00000  -0.23343  -0.22524   0.58558
         Item               Value     Threshold  Converged?
 Maximum Force            0.034715     0.000450     NO 
 RMS     Force            0.010725     0.000300     NO 
 Maximum Displacement     0.322762     0.001800     NO 
 RMS     Displacement     0.132651     0.001200     NO 
 Predicted change in Energy=-2.363173D-02
 GradGradGradGradGradGradGradGradGradGradGradGradGradGradGradGradGradGrad

                          Input orientation:                          
 ---------------------------------------------------------------------
 Center     Atomic      Atomic             Coordinates (Angstroms)
 Number     Number       Type             X           Y           Z
 ---------------------------------------------------------------------
      1          6           0        1.854306    2.129720   -2.888080
      2          6           0        0.101080    0.646495   -0.676970
      3          6           0        1.049940   -0.483865   -0.671224
      4          8           0        0.626035    1.817392   -2.425229
      5          8           0        0.726663    2.536953   -1.173534
      6          8           0        2.090886   -0.608135   -1.270210
      7          1           0        1.418072    3.319864   -1.871272
      8          1           0        2.731593    1.975422   -2.275076
      9          1           0        1.970670    1.951124   -3.955443
     10          1           0        0.711666   -1.285362    0.037912
     11          1           0       -0.895268    0.425731   -1.056081
     12          1           0        0.034553    1.080506    0.320746
 ---------------------------------------------------------------------
                    Distance matrix (angstroms):
                    1          2          3          4          5
     1  C    0.000000
     2  C    3.187909   0.000000
     3  C    3.520267   1.475832   0.000000
     4  O    1.349233   2.168636   2.924381   0.000000
     5  O    2.092149   2.052258   3.079312   1.447285   0.000000
     6  O    3.188938   2.425976   1.207393   3.059908   3.429582
     7  H    1.625005   3.210565   4.005495   1.786509   1.256119
     8  H    1.081302   3.352549   3.383546   2.116812   2.355516
     9  H    1.088440   3.993220   4.190824   2.041442   3.103187
    10  H    4.640026   2.148475   1.122364   3.962509   4.009728
    11  H    3.717520   1.088656   2.181585   2.475004   2.664904
    12  H    3.835221   1.090060   2.112409   2.904002   2.198437
                    6          7          8          9         10
     6  O    0.000000
     7  H    4.030277   0.000000
     8  H    2.845176   1.922478   0.000000
     9  H    3.711432   2.553935   1.844784   0.000000
    10  H    2.017937   5.035087   4.479144   5.292147   0.000000
    11  H    3.167309   3.793690   4.128148   4.352783   2.589768
    12  H    3.100186   3.425462   3.848791   4.774130   2.477057
                   11         12
    11  H    0.000000
    12  H    1.785764   0.000000
 Stoichiometry    C3H6O3
 Framework group  C1[X(C3H6O3)]
 Deg. of freedom    30
 Full point group                 C1      NOp   1
 Largest Abelian subgroup         C1      NOp   1
 Largest concise Abelian subgroup C1      NOp   1
                         Standard orientation:                         
 ---------------------------------------------------------------------
 Center     Atomic      Atomic             Coordinates (Angstroms)
 Number     Number       Type             X           Y           Z
 ---------------------------------------------------------------------
      1          6           0       -1.594693    1.027472   -0.019559
      2          6           0        0.782210   -1.088187   -0.212138
      3          6           0        1.769626   -0.008691   -0.017766
      4          8           0       -1.092611   -0.074913   -0.613772
      5          8           0       -1.113364   -0.925138    0.557262
      6          8           0        1.583553    1.163677    0.202975
      7          1           0       -2.139050   -0.250653    0.823480
      8          1           0       -1.164851    1.405036    0.897990
      9          1           0       -1.957829    1.770635   -0.727048
     10          1           0        2.815901   -0.413065   -0.056398
     11          1           0        0.794230   -1.570048   -1.188272
     12          1           0        0.888114   -1.834471    0.575309
 ---------------------------------------------------------------------
 Rotational constants (GHZ):           5.6902180           2.6539826           2.0433466
 Standard basis: 6-31+G(d) (6D, 7F)
 There are   126 symmetry adapted cartesian basis functions of A   symmetry.
 There are   126 symmetry adapted basis functions of A   symmetry.
   126 basis functions,   216 primitive gaussians,   126 cartesian basis functions
    24 alpha electrons       24 beta electrons
       nuclear repulsion energy       241.4504147914 Hartrees.
 NAtoms=   12 NActive=   12 NUniq=   12 SFac= 1.00D+00 NAtFMM=   60 NAOKFM=F Big=F
 Integral buffers will be    131072 words long.
 Raffenetti 2 integral format.
 Two-electron integral symmetry is turned on.
 One-electron integrals computed using PRISM.
 NBasis=   126 RedAO= T EigKep=  1.28D-04  NBF=   126
 NBsUse=   126 1.00D-06 EigRej= -1.00D+00 NBFU=   126
 Initial guess from the checkpoint file:  "/scratch/bell/zhao922/YARP/paper-example/KHP-network/pp_0/TS-folder/Gau-2770.chk"
 B after Tr=    -0.000000    0.000000    0.000000
         Rot=    0.999525   -0.008643    0.013519   -0.026325 Ang=  -3.53 deg.
 ExpMin= 4.38D-02 ExpMax= 5.48D+03 ExpMxC= 8.25D+02 IAcc=3 IRadAn=         5 AccDes= 0.00D+00
 Harris functional with IExCor=  402 and IRadAn=       5 diagonalized for initial guess.
 HarFok:  IExCor=  402 AccDes= 0.00D+00 IRadAn=         5 IDoV= 1 UseB2=F ITyADJ=14
 ICtDFT=  3500011 ScaDFX=  1.000000  1.000000  1.000000  1.000000
 FoFCou: FMM=F IPFlag=           0 FMFlag=      100000 FMFlg1=           0
         NFxFlg=           0 DoJE=T BraDBF=F KetDBF=T FulRan=T
         wScrn=  0.000000 ICntrl=       500 IOpCl=  0 I1Cent=   200000004 NGrid=           0
         NMat0=    1 NMatS0=      1 NMatT0=    0 NMatD0=    1 NMtDS0=    0 NMtDT0=    0
 Petite list used in FoFCou.
 Keep R1 ints in memory in canonical form, NReq=47237537.
 Requested convergence on RMS density matrix=1.00D-08 within 128 cycles.
 Requested convergence on MAX density matrix=1.00D-06.
 Requested convergence on             energy=1.00D-06.
 No special actions if energy rises.
 SCF Done:  E(RB3LYP) =  -343.282717070     A.U. after   14 cycles
            NFock= 14  Conv=0.52D-08     -V/T= 2.0088
 DoSCS=F DFT=T ScalE2(SS,OS)=  1.000000  1.000000
 Range of M.O.s used for correlation:     1   126
 NBasis=   126 NAE=    24 NBE=    24 NFC=     0 NFV=     0
 NROrb=    126 NOA=    24 NOB=    24 NVA=   102 NVB=   102

 **** Warning!!: The largest alpha MO coefficient is  0.35154520D+02

 Symmetrizing basis deriv contribution to polar:
 IMax=3 JMax=2 DiffMx= 0.00D+00
 G2DrvN: will do    13 centers at a time, making    1 passes.
 Calling FoFCou, ICntrl=  3107 FMM=F I1Cent=   0 AccDes= 0.00D+00.
 End of G2Drv F.D. properties file   721 does not exist.
 End of G2Drv F.D. properties file   722 does not exist.
 End of G2Drv F.D. properties file   788 does not exist.
          IDoAtm=111111111111
          Differentiating once with respect to electric field.
                with respect to dipole field.
          Differentiating once with respect to nuclear coordinates.
 Keep R1 ints in memory in canonical form, NReq=47193566.
          There are    39 degrees of freedom in the 1st order CPHF.  IDoFFX=6 NUNeed=     3.
     36 vectors produced by pass  0 Test12= 6.28D-15 2.56D-09 XBig12= 3.29D+02 1.66D+01.
 AX will form    36 AO Fock derivatives at one time.
     36 vectors produced by pass  1 Test12= 6.28D-15 2.56D-09 XBig12= 8.00D+01 2.31D+00.
     36 vectors produced by pass  2 Test12= 6.28D-15 2.56D-09 XBig12= 8.12D-01 2.07D-01.
     36 vectors produced by pass  3 Test12= 6.28D-15 2.56D-09 XBig12= 4.69D-03 1.44D-02.
     36 vectors produced by pass  4 Test12= 6.28D-15 2.56D-09 XBig12= 8.19D-06 5.01D-04.
     30 vectors produced by pass  5 Test12= 6.28D-15 2.56D-09 XBig12= 6.28D-09 1.04D-05.
      4 vectors produced by pass  6 Test12= 6.28D-15 2.56D-09 XBig12= 4.19D-12 2.79D-07.
      3 vectors produced by pass  7 Test12= 6.28D-15 2.56D-09 XBig12= 3.53D-15 8.11D-09.
 InvSVY:  IOpt=1 It=  1 EMax= 7.11D-15
 Solved reduced A of dimension   217 with    39 vectors.
 Isotropic polarizability for W=    0.000000       72.10 Bohr**3.
 End of Minotr F.D. properties file   721 does not exist.
 End of Minotr F.D. properties file   722 does not exist.
 End of Minotr F.D. properties file   788 does not exist.
 Calling FoFJK, ICntrl=    100127 FMM=F ISym2X=0 I1Cent= 0 IOpClX= 0 NMat=1 NMatS=1 NMatT=0.
 ***** Axes restored to original set *****
 -------------------------------------------------------------------
 Center     Atomic                   Forces (Hartrees/Bohr)
 Number     Number              X              Y              Z
 -------------------------------------------------------------------
      1        6           0.001737332    0.023571404   -0.015788617
      2        6          -0.013482298    0.001694837    0.015784436
      3        6          -0.000966296   -0.002510366    0.001045883
      4        8           0.008430874   -0.028229537    0.000998548
      5        8           0.002771911    0.017091993   -0.000840981
      6        8           0.004861362    0.000137900   -0.004033808
      7        1          -0.000152596   -0.000853869    0.005140409
      8        1          -0.000070087   -0.011123584    0.004358435
      9        1          -0.002597425    0.001585247   -0.001612633
     10        1           0.000715575   -0.000969638   -0.000860774
     11        1           0.000058835    0.000293356   -0.005271514
     12        1          -0.001307189   -0.000687741    0.001080616
 -------------------------------------------------------------------
 Cartesian Forces:  Max     0.028229537 RMS     0.008619518
 FormGI is forming the generalized inverse of G from B-inverse, IUseBI=4.

 GradGradGradGradGradGradGradGradGradGradGradGradGradGradGradGradGradGrad
 Berny optimization.
 Internal  Forces:  Max     0.016990472 RMS     0.006102896
 Search for a saddle point.
 Step number   3 out of a maximum of  100
 All quantities printed in internal units (Hartrees-Bohrs-Radians)
 Swapping is turned off.
 Second derivative matrix not updated -- analytic derivatives used.
 ITU=  0  0  0
     Eigenvalues ---   -0.27112  -0.01901  -0.00575   0.00107   0.01219
     Eigenvalues ---    0.02371   0.02770   0.03785   0.04121   0.04898
     Eigenvalues ---    0.06700   0.07797   0.09449   0.11457   0.11909
     Eigenvalues ---    0.14414   0.15044   0.17793   0.18317   0.21318
     Eigenvalues ---    0.28008   0.31362   0.34656   0.35306   0.35920
     Eigenvalues ---    0.35999   0.37551   0.41356   0.64844   0.88943
 Eigenvectors required to have negative eigenvalues:
                          R11       A16       R5        A13       A14
   1                    0.60527  -0.37477  -0.35817  -0.35392   0.33593
                          D17       D1        D16       D2        A8
   1                   -0.18118   0.15696  -0.11919   0.10267   0.08897
 RFO step:  Lambda0=4.317711252D-06 Lambda=-2.42711605D-02.
 Linear search not attempted -- option 19 set.
 Maximum step size (   0.300) exceeded in Quadratic search.
    -- Step size scaled by   0.409
 Iteration  1 RMS(Cart)=  0.12506340 RMS(Int)=  0.01155409
 Iteration  2 RMS(Cart)=  0.00894228 RMS(Int)=  0.00206346
 Iteration  3 RMS(Cart)=  0.00015446 RMS(Int)=  0.00205985
 Iteration  4 RMS(Cart)=  0.00000104 RMS(Int)=  0.00205985
 Iteration  5 RMS(Cart)=  0.00000001 RMS(Int)=  0.00205985
 Variable       Old X    -DE/DX   Delta X   Delta X   Delta X     New X
                                 (Linear)    (Quad)   (Total)
    R1        2.54968   0.00688   0.00000   0.00010   0.00010   2.54978
    R2        2.04336   0.00400   0.00000   0.00451   0.00451   2.04787
    R3        2.05685   0.00104   0.00000   0.00020   0.00020   2.05705
    R4        2.78892   0.00551   0.00000   0.00409   0.00409   2.79301
    R5        3.87820   0.00684   0.00000  -0.04363  -0.04363   3.83458
    R6        2.05726   0.00172   0.00000   0.00076   0.00076   2.05802
    R7        2.05991   0.00080   0.00000   0.00220   0.00220   2.06211
    R8        2.28164   0.00618   0.00000   0.00296   0.00296   2.28460
    R9        2.12096  -0.00007   0.00000  -0.00069  -0.00069   2.12027
   R10        2.73497   0.01696   0.00000   0.00791   0.00791   2.74288
   R11        2.37372  -0.00347   0.00000  -0.12169  -0.12169   2.25203
    A1        2.10723  -0.01002   0.00000  -0.02413  -0.02412   2.08311
    A2        1.97768   0.00237   0.00000  -0.00142  -0.00138   1.97629
    A3        2.03284   0.00378   0.00000   0.02068   0.02066   2.05350
    A4        2.10655  -0.00726   0.00000  -0.08700  -0.08824   2.01831
    A5        2.02023   0.00222   0.00000   0.02439   0.02179   2.04202
    A6        1.91838   0.00142   0.00000   0.01126   0.01338   1.93176
    A7        1.96224   0.00078   0.00000   0.00006  -0.00181   1.96042
    A8        1.44376   0.00394   0.00000   0.06470   0.06625   1.51001
    A9        1.92157   0.00016   0.00000   0.00922   0.00851   1.93008
   A10        2.25390  -0.00267   0.00000  -0.01046  -0.01046   2.24344
   A11        1.93439   0.00274   0.00000   0.01437   0.01437   1.94876
   A12        2.09416  -0.00004   0.00000  -0.00392  -0.00392   2.09023
   A13        1.68938   0.01035   0.00000   0.01086   0.01086   1.70024
   A14        1.29749   0.00453   0.00000   0.12167   0.11658   1.41407
   A15        2.63898   0.00920   0.00000   0.19793   0.19724   2.83622
   A16        1.43816   0.00276   0.00000   0.06559   0.06028   1.49844
    D1        0.89147   0.01240   0.00000   0.07115   0.07108   0.96255
    D2       -2.85782   0.00770   0.00000   0.07102   0.07110  -2.78671
    D3        2.51574  -0.00550   0.00000  -0.00802  -0.00810   2.50764
    D4       -0.41530   0.00257   0.00000   0.12898   0.12858  -0.28672
    D5        2.68408   0.00341   0.00000   0.12879   0.12838   2.81246
    D6        2.04851  -0.00345   0.00000   0.03573   0.03567   2.08418
    D7       -1.13529  -0.00261   0.00000   0.03554   0.03547  -1.09981
    D8       -2.04450  -0.00027   0.00000   0.07712   0.07758  -1.96691
    D9        1.05488   0.00057   0.00000   0.07692   0.07739   1.13227
   D10        1.33312  -0.00364   0.00000   0.02314   0.02561   1.35874
   D11        0.68146  -0.00242   0.00000  -0.05410  -0.05339   0.62807
   D12       -1.15114   0.00155   0.00000   0.10348   0.10383  -1.04731
   D13       -1.80280   0.00277   0.00000   0.02624   0.02482  -1.77797
   D14       -3.04982  -0.00018   0.00000   0.06811   0.06794  -2.98188
   D15        2.58171   0.00104   0.00000  -0.00913  -0.01107   2.57064
   D16       -2.25682  -0.01699   0.00000  -0.09710  -0.10415  -2.36097
   D17        0.58558  -0.01122   0.00000  -0.01457  -0.00751   0.57807
         Item               Value     Threshold  Converged?
 Maximum Force            0.016990     0.000450     NO 
 RMS     Force            0.006103     0.000300     NO 
 Maximum Displacement     0.366963     0.001800     NO 
 RMS     Displacement     0.125868     0.001200     NO 
 Predicted change in Energy=-8.644238D-03
 GradGradGradGradGradGradGradGradGradGradGradGradGradGradGradGradGradGrad

                          Input orientation:                          
 ---------------------------------------------------------------------
 Center     Atomic      Atomic             Coordinates (Angstroms)
 Number     Number       Type             X           Y           Z
 ---------------------------------------------------------------------
      1          6           0        1.882003    2.178151   -2.986109
      2          6           0        0.059098    0.627472   -0.618884
      3          6           0        1.033191   -0.483717   -0.589231
      4          8           0        0.681103    1.798168   -2.502350
      5          8           0        0.796759    2.426572   -1.199084
      6          8           0        2.123809   -0.543386   -1.107470
      7          1           0        1.426428    3.270187   -1.757686
      8          1           0        2.779703    1.936172   -2.429367
      9          1           0        1.937118    2.145312   -4.072762
     10          1           0        0.669687   -1.336221    0.043207
     11          1           0       -0.915553    0.418976   -1.057789
     12          1           0       -0.053150    1.068159    0.373064
 ---------------------------------------------------------------------
                    Distance matrix (angstroms):
                    1          2          3          4          5
     1  C    0.000000
     2  C    3.366206   0.000000
     3  C    3.681174   1.477998   0.000000
     4  O    1.349285   2.303229   2.998498   0.000000
     5  O    2.105452   2.029172   2.982885   1.451472   0.000000
     6  O    3.315798   2.423356   1.208958   3.083823   3.254245
     7  H    1.705613   3.185970   3.951167   1.810214   1.191724
     8  H    1.083689   3.520261   3.506033   2.104399   2.384567
     9  H    1.088545   4.214270   4.456890   2.040656   3.104441
    10  H    4.795548   2.160388   1.121997   4.037869   3.964600
    11  H    3.826151   1.089060   2.198182   2.556998   2.642426
    12  H    4.032486   1.091222   2.124727   3.056149   2.244834
                    6          7          8          9         10
     6  O    0.000000
     7  H    3.930962   0.000000
     8  H    2.885449   2.015467   0.000000
     9  H    4.007108   2.624066   1.858612   0.000000
    10  H    2.016709   5.003486   4.612412   5.537929   0.000000
    11  H    3.188468   3.755547   4.223509   4.495334   2.608811
    12  H    3.086779   3.402672   4.078250   4.988667   2.532260
                   11         12
    11  H    0.000000
    12  H    1.792349   0.000000
 Stoichiometry    C3H6O3
 Framework group  C1[X(C3H6O3)]
 Deg. of freedom    30
 Full point group                 C1      NOp   1
 Largest Abelian subgroup         C1      NOp   1
 Largest concise Abelian subgroup C1      NOp   1
                         Standard orientation:                         
 ---------------------------------------------------------------------
 Center     Atomic      Atomic             Coordinates (Angstroms)
 Number     Number       Type             X           Y           Z
 ---------------------------------------------------------------------
      1          6           0       -1.802652    0.891869   -0.040259
      2          6           0        0.923663   -1.075096   -0.212304
      3          6           0        1.794505    0.110381   -0.068236
      4          8           0       -1.144603   -0.141257   -0.606115
      5          8           0       -0.926169   -0.910332    0.605323
      6          8           0        1.484145    1.242224    0.221916
      7          1           0       -1.973307   -0.472613    0.968791
      8          1           0       -1.340838    1.431531    0.778199
      9          1           0       -2.396751    1.463551   -0.751003
     10          1           0        2.875125   -0.148308   -0.223853
     11          1           0        0.903035   -1.557733   -1.188360
     12          1           0        1.132657   -1.804429    0.572018
 ---------------------------------------------------------------------
 Rotational constants (GHZ):           5.7163080           2.5596225           2.0071854
 Standard basis: 6-31+G(d) (6D, 7F)
 There are   126 symmetry adapted cartesian basis functions of A   symmetry.
 There are   126 symmetry adapted basis functions of A   symmetry.
   126 basis functions,   216 primitive gaussians,   126 cartesian basis functions
    24 alpha electrons       24 beta electrons
       nuclear repulsion energy       239.8518902715 Hartrees.
 NAtoms=   12 NActive=   12 NUniq=   12 SFac= 1.00D+00 NAtFMM=   60 NAOKFM=F Big=F
 Integral buffers will be    131072 words long.
 Raffenetti 2 integral format.
 Two-electron integral symmetry is turned on.
 One-electron integrals computed using PRISM.
 NBasis=   126 RedAO= T EigKep=  1.32D-04  NBF=   126
 NBsUse=   126 1.00D-06 EigRej= -1.00D+00 NBFU=   126
 Initial guess from the checkpoint file:  "/scratch/bell/zhao922/YARP/paper-example/KHP-network/pp_0/TS-folder/Gau-2770.chk"
 B after Tr=     0.000000   -0.000000    0.000000
         Rot=    0.998959    0.010078   -0.010483   -0.043232 Ang=   5.23 deg.
 ExpMin= 4.38D-02 ExpMax= 5.48D+03 ExpMxC= 8.25D+02 IAcc=3 IRadAn=         5 AccDes= 0.00D+00
 Harris functional with IExCor=  402 and IRadAn=       5 diagonalized for initial guess.
 HarFok:  IExCor=  402 AccDes= 0.00D+00 IRadAn=         5 IDoV= 1 UseB2=F ITyADJ=14
 ICtDFT=  3500011 ScaDFX=  1.000000  1.000000  1.000000  1.000000
 FoFCou: FMM=F IPFlag=           0 FMFlag=      100000 FMFlg1=           0
         NFxFlg=           0 DoJE=T BraDBF=F KetDBF=T FulRan=T
         wScrn=  0.000000 ICntrl=       500 IOpCl=  0 I1Cent=   200000004 NGrid=           0
         NMat0=    1 NMatS0=      1 NMatT0=    0 NMatD0=    1 NMtDS0=    0 NMtDT0=    0
 Petite list used in FoFCou.
 Keep R1 ints in memory in canonical form, NReq=47237537.
 Requested convergence on RMS density matrix=1.00D-08 within 128 cycles.
 Requested convergence on MAX density matrix=1.00D-06.
 Requested convergence on             energy=1.00D-06.
 No special actions if energy rises.
 SCF Done:  E(RB3LYP) =  -343.290990423     A.U. after   13 cycles
            NFock= 13  Conv=0.82D-08     -V/T= 2.0089
 DoSCS=F DFT=T ScalE2(SS,OS)=  1.000000  1.000000
 Range of M.O.s used for correlation:     1   126
 NBasis=   126 NAE=    24 NBE=    24 NFC=     0 NFV=     0
 NROrb=    126 NOA=    24 NOB=    24 NVA=   102 NVB=   102

 **** Warning!!: The largest alpha MO coefficient is  0.33022056D+02

 Symmetrizing basis deriv contribution to polar:
 IMax=3 JMax=2 DiffMx= 0.00D+00
 G2DrvN: will do    13 centers at a time, making    1 passes.
 Calling FoFCou, ICntrl=  3107 FMM=F I1Cent=   0 AccDes= 0.00D+00.
 End of G2Drv F.D. properties file   721 does not exist.
 End of G2Drv F.D. properties file   722 does not exist.
 End of G2Drv F.D. properties file   788 does not exist.
          IDoAtm=111111111111
          Differentiating once with respect to electric field.
                with respect to dipole field.
          Differentiating once with respect to nuclear coordinates.
 Keep R1 ints in memory in canonical form, NReq=47193573.
          There are    39 degrees of freedom in the 1st order CPHF.  IDoFFX=6 NUNeed=     3.
     36 vectors produced by pass  0 Test12= 6.28D-15 2.56D-09 XBig12= 4.89D+02 2.07D+01.
 AX will form    36 AO Fock derivatives at one time.
     36 vectors produced by pass  1 Test12= 6.28D-15 2.56D-09 XBig12= 1.35D+02 3.12D+00.
     36 vectors produced by pass  2 Test12= 6.28D-15 2.56D-09 XBig12= 1.35D+00 2.52D-01.
     36 vectors produced by pass  3 Test12= 6.28D-15 2.56D-09 XBig12= 7.79D-03 1.39D-02.
     36 vectors produced by pass  4 Test12= 6.28D-15 2.56D-09 XBig12= 1.42D-05 5.50D-04.
     30 vectors produced by pass  5 Test12= 6.28D-15 2.56D-09 XBig12= 1.14D-08 1.42D-05.
      5 vectors produced by pass  6 Test12= 6.28D-15 2.56D-09 XBig12= 6.90D-12 3.36D-07.
      3 vectors produced by pass  7 Test12= 6.28D-15 2.56D-09 XBig12= 4.70D-15 9.36D-09.
 InvSVY:  IOpt=1 It=  1 EMax= 3.55D-15
 Solved reduced A of dimension   218 with    39 vectors.
 Isotropic polarizability for W=    0.000000       76.01 Bohr**3.
 End of Minotr F.D. properties file   721 does not exist.
 End of Minotr F.D. properties file   722 does not exist.
 End of Minotr F.D. properties file   788 does not exist.
 Calling FoFJK, ICntrl=    100127 FMM=F ISym2X=0 I1Cent= 0 IOpClX= 0 NMat=1 NMatS=1 NMatT=0.
 ***** Axes restored to original set *****
 -------------------------------------------------------------------
 Center     Atomic                   Forces (Hartrees/Bohr)
 Number     Number              X              Y              Z
 -------------------------------------------------------------------
      1        6           0.001800112    0.017448954   -0.009234075
      2        6          -0.010234805    0.003589314    0.015844483
      3        6          -0.000319547   -0.002078882   -0.000919202
      4        8           0.004201402   -0.021298183    0.000256896
      5        8           0.002772326    0.008646203   -0.005500087
      6        8           0.003264432    0.000688803   -0.001611694
      7        1           0.000445674    0.000103012    0.005982745
      8        1          -0.000076224   -0.008183357    0.001768006
      9        1          -0.002245098    0.002136462   -0.000669426
     10        1           0.000288891   -0.000805418   -0.001289878
     11        1           0.001038734    0.000070902   -0.004984973
     12        1          -0.000935896   -0.000317811    0.000357205
 -------------------------------------------------------------------
 Cartesian Forces:  Max     0.021298183 RMS     0.006477025
 FormGI is forming the generalized inverse of G from B-inverse, IUseBI=4.

 GradGradGradGradGradGradGradGradGradGradGradGradGradGradGradGradGradGrad
 Berny optimization.
 Internal  Forces:  Max     0.013655399 RMS     0.004588661
 Search for a saddle point.
 Step number   4 out of a maximum of  100
 All quantities printed in internal units (Hartrees-Bohrs-Radians)
 Swapping is turned off.
 Second derivative matrix not updated -- analytic derivatives used.
 ITU=  0  0  0  0
     Eigenvalues ---   -0.22869  -0.00636   0.00032   0.00273   0.00612
     Eigenvalues ---    0.02256   0.02761   0.03388   0.04027   0.04732
     Eigenvalues ---    0.06224   0.07443   0.09077   0.10795   0.11391
     Eigenvalues ---    0.13105   0.13767   0.16024   0.18061   0.19795
     Eigenvalues ---    0.28112   0.31169   0.33560   0.35135   0.35831
     Eigenvalues ---    0.35939   0.36720   0.37486   0.61347   0.88101
 Eigenvectors required to have negative eigenvalues:
                          R11       R5        A16       A13       A14
   1                    0.57026  -0.40873  -0.37030  -0.35103   0.33610
                          D17       D1        D16       D2        R1
   1                   -0.19159   0.15949  -0.14669   0.10152   0.09659
 RFO step:  Lambda0=1.851318333D-05 Lambda=-1.68011816D-02.
 Linear search not attempted -- option 19 set.
 Maximum step size (   0.300) exceeded in Quadratic search.
    -- Step size scaled by   0.607
 Iteration  1 RMS(Cart)=  0.12249232 RMS(Int)=  0.03000391
 Iteration  2 RMS(Cart)=  0.02858636 RMS(Int)=  0.00384576
 Iteration  3 RMS(Cart)=  0.00310216 RMS(Int)=  0.00227422
 Iteration  4 RMS(Cart)=  0.00004095 RMS(Int)=  0.00227358
 Iteration  5 RMS(Cart)=  0.00000049 RMS(Int)=  0.00227358
 Variable       Old X    -DE/DX   Delta X   Delta X   Delta X     New X
                                 (Linear)    (Quad)   (Total)
    R1        2.54978   0.00566   0.00000   0.00911   0.00911   2.55889
    R2        2.04787   0.00267   0.00000   0.00572   0.00572   2.05360
    R3        2.05705   0.00049   0.00000  -0.00094  -0.00094   2.05611
    R4        2.79301   0.00371   0.00000   0.00503   0.00503   2.79805
    R5        3.83458   0.00361   0.00000   0.00356   0.00356   3.83814
    R6        2.05802   0.00107   0.00000   0.00018   0.00018   2.05821
    R7        2.06211   0.00029   0.00000  -0.00174  -0.00174   2.06037
    R8        2.28460   0.00360   0.00000   0.00246   0.00246   2.28706
    R9        2.12027  -0.00021   0.00000  -0.00182  -0.00182   2.11844
   R10        2.74288   0.01107   0.00000   0.01314   0.01314   2.75602
   R11        2.25203  -0.00250   0.00000  -0.12972  -0.12972   2.12231
    A1        2.08311  -0.00679   0.00000  -0.03066  -0.03063   2.05249
    A2        1.97629   0.00152   0.00000  -0.00108  -0.00101   1.97528
    A3        2.05350   0.00281   0.00000   0.02715   0.02714   2.08064
    A4        2.01831  -0.00595   0.00000  -0.09658  -0.09864   1.91967
    A5        2.04202   0.00132   0.00000   0.01160   0.00656   2.04858
    A6        1.93176   0.00164   0.00000   0.03914   0.04075   1.97251
    A7        1.96042  -0.00014   0.00000  -0.01391  -0.01734   1.94308
    A8        1.51001   0.00369   0.00000   0.05367   0.05615   1.56616
    A9        1.93008   0.00039   0.00000   0.02652   0.02565   1.95573
   A10        2.24344  -0.00189   0.00000  -0.01255  -0.01255   2.23089
   A11        1.94876   0.00192   0.00000   0.01568   0.01568   1.96444
   A12        2.09023  -0.00001   0.00000  -0.00304  -0.00305   2.08719
   A13        1.70024   0.00568   0.00000   0.01180   0.01180   1.71203
   A14        1.41407   0.00342   0.00000   0.09297   0.08697   1.50103
   A15        2.83622   0.00924   0.00000   0.19674   0.19618   3.03240
   A16        1.49844   0.00372   0.00000   0.07306   0.06703   1.56547
    D1        0.96255   0.00952   0.00000   0.11939   0.11928   1.08183
    D2       -2.78671   0.00678   0.00000   0.12240   0.12252  -2.66419
    D3        2.50764  -0.00349   0.00000  -0.00762  -0.00774   2.49990
    D4       -0.28672   0.00304   0.00000   0.24790   0.24669  -0.04003
    D5        2.81246   0.00368   0.00000   0.25053   0.24932   3.06179
    D6        2.08418  -0.00289   0.00000   0.12061   0.12072   2.20490
    D7       -1.09981  -0.00224   0.00000   0.12324   0.12335  -0.97646
    D8       -1.96691   0.00035   0.00000   0.20526   0.20636  -1.76055
    D9        1.13227   0.00100   0.00000   0.20789   0.20899   1.34127
   D10        1.35874  -0.00212   0.00000   0.00697   0.00938   1.36811
   D11        0.62807  -0.00278   0.00000  -0.07599  -0.07423   0.55384
   D12       -1.04731   0.00273   0.00000   0.11509   0.11403  -0.93328
   D13       -1.77797   0.00208   0.00000   0.03212   0.03042  -1.74755
   D14       -2.98188   0.00079   0.00000   0.06525   0.06487  -2.91702
   D15        2.57064   0.00014   0.00000  -0.01771  -0.01874   2.55190
   D16       -2.36097  -0.01366   0.00000  -0.14234  -0.14882  -2.50980
   D17        0.57807  -0.00773   0.00000  -0.03209  -0.02561   0.55246
         Item               Value     Threshold  Converged?
 Maximum Force            0.013655     0.000450     NO 
 RMS     Force            0.004589     0.000300     NO 
 Maximum Displacement     0.476688     0.001800     NO 
 RMS     Displacement     0.148307     0.001200     NO 
 Predicted change in Energy=-9.577971D-03
 GradGradGradGradGradGradGradGradGradGradGradGradGradGradGradGradGradGrad

                          Input orientation:                          
 ---------------------------------------------------------------------
 Center     Atomic      Atomic             Coordinates (Angstroms)
 Number     Number       Type             X           Y           Z
 ---------------------------------------------------------------------
      1          6           0        1.905851    2.215480   -3.081021
      2          6           0        0.016428    0.615987   -0.545199
      3          6           0        1.015141   -0.476506   -0.507906
      4          8           0        0.752657    1.741351   -2.552870
      5          8           0        0.881257    2.324441   -1.222279
      6          8           0        2.173755   -0.435010   -0.855217
      7          1           0        1.432057    3.197493   -1.664660
      8          1           0        2.837916    1.900184   -2.619722
      9          1           0        1.863136    2.339059   -4.161181
     10          1           0        0.604107   -1.419821   -0.063025
     11          1           0       -0.923788    0.417721   -1.057982
     12          1           0       -0.138322    1.085467    0.426601
 ---------------------------------------------------------------------
                    Distance matrix (angstroms):
                    1          2          3          4          5
     1  C    0.000000
     2  C    3.543824   0.000000
     3  C    3.828978   1.480662   0.000000
     4  O    1.354104   2.416448   3.028145   0.000000
     5  O    2.125226   2.031054   2.893710   1.458425   0.000000
[...]
    D2       -1.87273  -0.00000   0.00000   0.00002   0.00002  -1.87272
    D3        2.48609  -0.00000   0.00000   0.00001   0.00001   2.48610
    D4       -0.13569  -0.00000   0.00000  -0.00004  -0.00004  -0.13573
    D5        3.00142  -0.00000   0.00000  -0.00004  -0.00004   3.00138
    D6        1.93625   0.00000   0.00000  -0.00005  -0.00005   1.93620
    D7       -1.20982   0.00000   0.00000  -0.00005  -0.00005  -1.20987
    D8       -2.36520   0.00000   0.00000  -0.00005  -0.00005  -2.36525
    D9        0.77191   0.00000   0.00000  -0.00005  -0.00005   0.77186
   D10        1.97249   0.00000   0.00000  -0.00040  -0.00040   1.97209
   D11        0.06112  -0.00000   0.00000   0.00015   0.00015   0.06127
   D12       -0.03989   0.00000   0.00000  -0.00040  -0.00040  -0.04029
   D13       -1.95127  -0.00000   0.00000   0.00015   0.00015  -1.95111
   D14       -2.14339   0.00000   0.00000  -0.00038  -0.00038  -2.14377
   D15        2.22843  -0.00000   0.00000   0.00017   0.00017   2.22860
   D16       -2.46198   0.00000   0.00000   0.00035   0.00035  -2.46163
   D17       -0.04233  -0.00000   0.00000  -0.00002  -0.00002  -0.04235
         Item               Value     Threshold  Converged?
 Maximum Force            0.000010     0.000450     YES
 RMS     Force            0.000002     0.000300     YES
 Maximum Displacement     0.000391     0.001800     YES
 RMS     Displacement     0.000176     0.001200     YES
 Predicted change in Energy=-1.481679D-10
 Optimization completed.
    -- Stationary point found.
                           ----------------------------
                           !   Optimized Parameters   !
                           ! (Angstroms and Degrees)  !
 --------------------------                            --------------------------
 ! Name  Definition              Value          Derivative Info.                !
 --------------------------------------------------------------------------------
 ! R1    R(1,4)                  1.31           -DE/DX =    0.0                 !
 ! R2    R(1,8)                  1.1036         -DE/DX =    0.0                 !
 ! R3    R(1,9)                  1.1025         -DE/DX =    0.0                 !
 ! R4    R(2,3)                  1.5406         -DE/DX =    0.0                 !
 ! R5    R(2,5)                  1.3664         -DE/DX =    0.0                 !
 ! R6    R(2,11)                 1.1086         -DE/DX =    0.0                 !
 ! R7    R(2,12)                 1.1074         -DE/DX =    0.0                 !
 ! R8    R(3,6)                  1.2052         -DE/DX =    0.0                 !
 ! R9    R(3,10)                 1.1123         -DE/DX =    0.0                 !
 ! R10   R(4,5)                  2.0156         -DE/DX =    0.0                 !
 ! R11   R(5,7)                  1.5724         -DE/DX =    0.0                 !
 ! A1    A(4,1,8)              116.0089         -DE/DX =    0.0                 !
 ! A2    A(4,1,9)              116.2818         -DE/DX =    0.0                 !
 ! A3    A(8,1,9)              116.4317         -DE/DX =    0.0                 !
 ! A4    A(3,2,5)              112.823          -DE/DX =    0.0                 !
 ! A5    A(3,2,11)             103.9081         -DE/DX =    0.0                 !
 ! A6    A(3,2,12)             108.0034         -DE/DX =    0.0                 !
 ! A7    A(5,2,11)             109.6698         -DE/DX =    0.0                 !
 ! A8    A(5,2,12)             114.6245         -DE/DX =    0.0                 !
 ! A9    A(11,2,12)            107.1266         -DE/DX =    0.0                 !
 ! A10   A(2,3,6)              125.6277         -DE/DX =    0.0                 !
 ! A11   A(2,3,10)             112.8148         -DE/DX =    0.0                 !
 ! A12   A(6,3,10)             121.557          -DE/DX =    0.0                 !
 ! A13   A(1,4,5)               86.9889         -DE/DX =    0.0                 !
 ! A14   A(2,5,4)              139.6957         -DE/DX =    0.0                 !
 ! A15   A(2,5,7)              141.5866         -DE/DX =    0.0                 !
 ! A16   A(4,5,7)               62.3997         -DE/DX =    0.0                 !
 ! D1    D(8,1,4,5)            110.2008         -DE/DX =    0.0                 !
 ! D2    D(9,1,4,5)           -107.2997         -DE/DX =    0.0                 !
 ! D3    D(4,1,8,9)            142.4424         -DE/DX =    0.0                 !
 ! D4    D(5,2,3,6)             -7.7747         -DE/DX =    0.0                 !
 ! D5    D(5,2,3,10)           171.9688         -DE/DX =    0.0                 !
 ! D6    D(11,2,3,6)           110.9388         -DE/DX =    0.0                 !
 ! D7    D(11,2,3,10)          -69.3178         -DE/DX =    0.0                 !
 ! D8    D(12,2,3,6)          -135.5162         -DE/DX =    0.0                 !
 ! D9    D(12,2,3,10)           44.2273         -DE/DX =    0.0                 !
 ! D10   D(3,2,5,4)            113.0153         -DE/DX =    0.0                 !
 ! D11   D(3,2,5,7)              3.5016         -DE/DX =    0.0                 !
 ! D12   D(11,2,5,4)            -2.2856         -DE/DX =    0.0                 !
 ! D13   D(11,2,5,7)          -111.7993         -DE/DX =    0.0                 !
 ! D14   D(12,2,5,4)          -122.8069         -DE/DX =    0.0                 !
 ! D15   D(12,2,5,7)           127.6794         -DE/DX =    0.0                 !
 ! D16   D(1,4,5,2)           -141.061          -DE/DX =    0.0                 !
 ! D17   D(1,4,5,7)             -2.4254         -DE/DX =    0.0                 !
 --------------------------------------------------------------------------------
 GradGradGradGradGradGradGradGradGradGradGradGradGradGradGradGradGradGrad


 ----------------------------------------------------------------------

 Electric dipole moment (input orientation):
 (Debye = 10**-18 statcoulomb cm , SI units = C m)
                  (au)            (Debye)         (10**-30 SI)
   Tot        0.630126D+00      0.160162D+01      0.534243D+01
   x         -0.297159D+00     -0.755302D+00     -0.251942D+01
   y         -0.271770D+00     -0.690770D+00     -0.230416D+01
   z          0.484661D+00      0.123189D+01      0.410913D+01

 Dipole polarizability, Alpha (input orientation).
 (esu units = cm**3 , SI units = C**2 m**2 J**-1)
 Alpha(0;0):
               (au)            (10**-24 esu)      (10**-40 SI)
   iso        0.689739D+02      0.102209D+02      0.113723D+02
   aniso      0.645173D+02      0.956047D+01      0.106375D+02
   xx         0.624128D+02      0.924862D+01      0.102905D+02
   yx         0.909241D+01      0.134736D+01      0.149914D+01
   yy         0.656229D+02      0.972431D+01      0.108197D+02
   zx        -0.145599D+02     -0.215755D+01     -0.240060D+01
   zy        -0.318836D+02     -0.472467D+01     -0.525690D+01
   zz         0.788862D+02      0.116897D+02      0.130066D+02

 ----------------------------------------------------------------------

 Dipole orientation:
     6         -0.10872268          1.19866499         -8.25697045
     6         -0.77128728          0.49543222         -1.45309223
     6          1.72823254         -0.77098941         -0.66306459
     8         -2.32651333          0.73823835         -7.25827783
     8         -0.71524446          1.40021656         -3.87091209
     8          3.48827420         -1.20659892         -2.04115095
     1          1.03045884          1.51897596         -6.27252169
     1          0.88179258         -0.44154029         -9.08034894
     1          0.08799107          3.00681818         -9.27321414
     1          1.78134160         -1.26582995          1.37910683
     1         -2.18378052         -1.04503411         -1.30920046
     1         -1.26231553          1.91948041         -0.00031654

 Electric dipole moment (dipole orientation):
 (Debye = 10**-18 statcoulomb cm , SI units = C m)
                  (au)            (Debye)         (10**-30 SI)
   Tot        0.630126D+00      0.160162D+01      0.534243D+01
   x          0.000000D+00      0.000000D+00      0.000000D+00
   y          0.000000D+00      0.000000D+00      0.000000D+00
   z          0.630126D+00      0.160162D+01      0.534243D+01

 Dipole polarizability, Alpha (dipole orientation).
 (esu units = cm**3 , SI units = C**2 m**2 J**-1)
 Alpha(0;0):
               (au)            (10**-24 esu)      (10**-40 SI)
   iso        0.689739D+02      0.102209D+02      0.113723D+02
   aniso      0.645173D+02      0.956047D+01      0.106375D+02
   xx         0.557420D+02      0.826011D+01      0.919061D+01
   yx        -0.632075D+01     -0.936639D+00     -0.104215D+01
   yy         0.430099D+02      0.637341D+01      0.709138D+01
   zx         0.595013D+01      0.881718D+00      0.981044D+00
   zy        -0.109255D+02     -0.161899D+01     -0.180137D+01
   zz         0.108170D+03      0.160291D+02      0.178348D+02

 ----------------------------------------------------------------------
 1\1\GINC-BELL-A096\Freq\RB3LYP\6-31+G(d)\C3H6O3\ZHAO922\23-Dec-2020\0\
 \#N Geom=AllCheck Guess=TCheck SCRF=Check GenChk RB3LYP/6-31+G(d) Freq
 \\pp_6_0 TS\\0,1\C,1.9373244384,2.4587262673,-3.1142824505\C,-0.024358
 5865,0.6131700922,-0.6708362369\C,1.0119521665,-0.3189017873,-0.014556
 9897\O,0.690034639,2.1476890416,-3.366337538\O,0.5498986434,1.59003206
 24,-1.4344430945\O,2.1966529631,-0.317733455,-0.235657403\H,1.94966227
 67,2.0881872138,-1.9491882059\H,2.700854887,1.8096877121,-3.5765714603
 \H,2.1719380316,3.5349256836,-3.066142822\H,0.5569988397,-1.0225457878
 ,0.7169559042\H,-0.6200476975,-0.0632064918,-1.3163440633\H,-0.7007156
 015,0.9858144488,0.1229423599\\Version=ES64L-G16RevB.01\State=1-A\HF=-
 343.4149699\RMSD=2.486e-09\RMSF=1.235e-06\ZeroPoint=0.0843583\Thermal=
 0.0915786\Dipole=-0.2971589,-0.27177,0.4846614\DipoleDeriv=0.0781365,-
 0.1138381,0.0561297,0.1303206,0.4498543,-0.0936064,-0.5408301,-0.39261
 58,0.5023036,0.1955206,0.3817643,-0.5130573,0.1247001,-0.2073248,0.522
 4818,-0.2664305,0.3541878,0.1575734,1.0580084,-0.7708615,0.6739169,-0.
 0882114,0.7268419,-0.5741509,0.0521341,-0.3283529,0.4634167,0.0282699,
 0.3165144,-0.4681465,0.179056,-0.186258,-0.0498756,-0.2375461,0.093588
 4,-0.4217478,-0.350253,0.1894795,-0.053893,-0.0350055,-0.1881184,-0.15
 53491,0.2160608,-0.1822886,-0.2305357,-0.9638105,0.4626574,-0.3633576,
 0.038162,-0.3642412,0.0581512,0.0591591,0.0024623,-0.2984204,0.0268684
 ,-0.1918558,0.1791297,-0.1526309,0.1287002,0.0564178,0.1803716,0.14333
 69,0.095603,-0.060468,0.0066737,0.1011112,-0.0360619,-0.0928037,0.0361
 966,0.1778619,0.0126972,-0.0115436,-0.023192,-0.095246,0.0859456,-0.05
 86916,-0.1405309,-0.0070943,0.1245458,0.1019455,0.0247559,-0.0193918,-
 0.0252306,0.0370786,-0.0889318,-0.1495068,0.2401843,0.0772332,0.175085
 2,-0.1083511,0.0580452,-0.1510719,0.1328388,-0.0403218,0.0336237,-0.05
 56477,-0.028169,-0.0217376,-0.0003101,-0.0277337,-0.0089853,0.132304,0
 .0276163,-0.0102363,0.0222924,0.1856092,0.0416914,-0.1727439\Polar=62.
 4127616,9.092407,65.6228693,-14.5598744,-31.8836277,78.8861803\Quadrup
 ole=-0.6578127,0.5761805,0.0816322,5.5913931,-5.3763604,-0.9905186\PG=
 C01 [X(C3H6O3)]\NImag=1\\0.55546400,0.03807679,0.55692299,-0.11218226,
 0.06344999,0.22091936,0.01734765,-0.00395086,0.02478112,0.46386347,0.0
 0461080,0.00508893,-0.00443896,0.04086602,0.43403473,0.02135927,0.0011
 6827,0.01427243,-0.06323042,0.04434508,0.48991016,-0.00777443,0.003346
 84,-0.01509907,-0.07827064,-0.00161778,0.00868996,0.93788493,-0.002836
 73,-0.00091384,0.00056757,0.03029739,-0.09198156,0.01250389,0.02116804
 ,0.36145216,0.00481367,0.00030026,0.00448370,-0.01162962,0.02501773,-0
 .10021587,-0.15933683,-0.16076733,0.37219315,-0.32240470,-0.08685688,0
 .01896121,-0.02107240,-0.00314152,-0.00976609,0.01110283,0.00089302,-0
 .00389231,0.41437402,-0.04626318,-0.09040226,0.01357253,-0.00307367,-0
 .00927212,-0.00042921,-0.00073060,0.00118390,-0.00198027,0.07161250,0.
 06557266,-0.08516980,-0.02189909,-0.08241167,0.02075217,0.02011004,0.0
 1226086,0.00173977,-0.00726411,0.00478672,0.12236982,0.03393984,0.0991
 9785,-0.01216029,-0.02044008,0.05500626,-0.12128446,-0.05003030,0.0243
 6875,0.02108683,0.00482434,-0.01526510,-0.02468491,-0.00809966,-0.0423
 5156,0.18672412,-0.01520567,-0.01654679,0.02545389,-0.06718517,-0.1421
 4052,0.06658428,0.00926216,-0.04238518,0.02314182,-0.00257083,0.000408
 20,-0.01358810,0.10090174,0.21669189,0.01443930,0.00867454,-0.01552027
 ,0.03342616,0.04444960,-0.12567951,-0.00925835,0.03933371,-0.02008622,
 -0.00863127,-0.00193011,-0.04378597,-0.03453951,-0.12385242,0.20679115
 ,0.00189428,-0.00155840,0.00591857,-0.05717117,0.02858272,-0.01035289,
 -0.76040009,-0.00749601,0.13700278,-0.00387997,0.00079282,-0.00280069,
 -0.00165301,-0.01153270,0.01042628,0.85221549,0.00208668,-0.00023318,0
 .00146684,0.02162146,0.01260802,0.00263160,-0.00392590,-0.08249823,0.0
 2152646,-0.00156116,-0.00002218,0.00090748,0.00318576,0.00319588,-0.00
 389229,-0.00374299,0.05479004,-0.00107375,0.00001723,-0.00217720,-0.01
 090002,0.00199075,0.02455527,0.13588229,0.02135675,-0.10597923,0.00158
 466,-0.00016675,0.00049246,-0.00091630,0.00029543,-0.00010298,-0.15235
 203,-0.02866429,0.07630272,-0.04330363,0.00918165,-0.06176778,0.017139
 40,-0.00851144,0.01940037,-0.00890184,-0.00076439,0.00404596,0.0192984
 8,0.02039821,-0.02941802,-0.01932576,0.00301640,-0.00766865,0.00241258
 ,0.00136393,-0.00137149,0.02672924,-0.03282451,-0.01902628,-0.01494386
 ,0.00244597,-0.00325362,0.00564289,-0.00516890,0.00047080,0.00269092,0
 .03483246,0.01506078,-0.01363144,0.01369396,-0.00061876,0.00578469,0.0
 0174583,0.00126858,-0.00176225,-0.02354252,0.02123905,0.05548594,0.026
 12144,-0.03668130,-0.01428695,0.00798206,-0.02166509,0.01035453,0.0013
 4723,-0.00381520,-0.07894166,-0.02774510,-0.00610495,-0.01689704,-0.00
 906135,0.00452910,-0.00326699,-0.00277660,0.00135940,0.05318234,0.0013
 6138,0.09018091,-0.13977726,0.09326969,0.07389690,-0.00090204,-0.00103
 382,-0.00071544,-0.00097049,0.00078526,-0.00016341,-0.04768570,0.01017
 796,0.01118784,0.00089552,0.00190371,-0.00187436,0.00072321,-0.0001544
 1,-0.00022202,0.00088072,0.00155305,-0.00048583,0.18058316,0.08021086,
 -0.14762696,-0.07255773,0.00166031,-0.00070638,0.00137122,-0.00228688,
 0.00048269,0.00029925,0.00658091,0.01649881,0.00344154,0.00051648,0.00
 254614,0.00136147,0.00115090,0.00015888,-0.00021387,-0.00280922,-0.003
 40935,0.00440628,-0.10350547,0.14518027,0.08761308,-0.07808084,-0.0761
 3589,-0.00257513,0.00057662,-0.00269219,0.00337473,-0.00037589,-0.0006
 3990,-0.02099194,0.00564039,0.01334375,-0.00159577,-0.00161158,-0.0013
 7452,-0.00174635,-0.00034324,0.00062869,0.01823230,-0.00645854,-0.0203
 6065,-0.07981205,0.07690634,0.08628255,-0.05547264,-0.03175643,0.00590
 253,0.00049202,-0.00173786,0.00024668,-0.00184830,0.00072765,0.0000335
 7,-0.02230667,-0.04084604,-0.00315949,0.00027310,-0.00009324,-0.002967
 31,0.00107897,0.00001139,-0.00031776,0.00076310,0.00342152,0.00005855,
 0.00657192,0.01844933,-0.00182612,0.07072137,-0.02716856,-0.28705007,-
 0.01225270,0.00007659,-0.00045999,0.00034668,-0.00021392,0.00014710,-0
 .00012741,-0.02106916,-0.00199717,-0.00114411,-0.00021406,0.00112420,-
 0.00125925,0.00010187,0.00000937,0.00013912,-0.00054395,-0.01072072,0.
 00038725,-0.00280261,-0.01263586,0.00329872,0.05186782,0.31152242,0.01
 645599,-0.00053134,-0.02599961,-0.00320786,0.00059399,-0.00334562,0.00
 277540,-0.00020144,-0.00070303,-0.02116725,-0.02002964,0.00436807,-0.0
 0031298,0.00314994,0.00089781,-0.00125166,-0.00021238,0.00032692,0.007
 91556,0.02149990,-0.00977752,-0.00222436,-0.01520801,0.00094764,0.0015
 9691,0.01063787,0.03373584,0.00139724,-0.00020846,0.00206677,0.0095856
 3,0.01405146,-0.01172686,-0.07420230,-0.04541808,0.04432355,-0.0016459
 8,-0.00012144,0.00065312,-0.00337279,0.00193564,-0.00187906,-0.0357790
 7,-0.02484034,0.03306884,0.00091520,0.00082801,-0.00160708,0.00002934,
 0.00014192,-0.00038271,0.00012703,-0.00000533,-0.00034888,0.10129266,-
 0.00085923,0.00065808,-0.00192804,-0.00808104,-0.00642423,0.02071741,-
 0.04323839,-0.15316970,0.09634389,0.00169289,-0.00031275,0.00003269,0.
 00480111,0.00139198,0.00055987,-0.00983914,0.01539316,0.00451858,-0.00
 132149,0.00007718,0.00096587,-0.00007102,-0.00032580,0.00028198,-0.000
 25753,-0.00007099,0.00037452,0.05609332,0.14240378,-0.00094638,-0.0003
 0390,-0.00012149,0.00774016,0.01353967,0.00074009,0.04083059,0.0984495
 9,-0.15398212,-0.00016582,0.00120273,-0.00083303,-0.00044757,0.0035426
 1,-0.00029284,0.01986260,0.00704387,0.00792818,-0.00027109,-0.00126281
 ,0.00076800,0.00003667,-0.00000511,0.00008932,0.00013266,0.00002582,-0
 .00003043,-0.06644114,-0.12154120,0.14504680,0.00196191,0.00074905,0.0
 0005147,-0.10307172,-0.08232423,-0.07504117,-0.02214403,-0.01154592,-0
 .01750979,0.00013594,-0.00075197,0.00344804,-0.01235576,-0.01294404,-0
 .00590650,0.00285725,0.00390468,0.00047314,0.00096568,0.00016675,-0.00
 168470,-0.00029464,-0.00023602,0.00006703,-0.00026656,0.00003597,-0.00
 004842,0.00132448,0.00196903,0.00232238,0.12065305,0.00179530,-0.00000
 945,0.00171905,-0.07182939,-0.11014258,-0.08929847,0.01400217,0.011314
 56,0.01060101,-0.00097336,0.00222705,0.00032187,-0.02678916,-0.0315857
 4,0.00332288,-0.00038509,-0.00358788,-0.00110644,0.00310124,-0.0008622
 3,-0.00353199,-0.00009492,-0.00000056,-0.00010348,0.00020210,0.0001602
 5,-0.00041886,-0.00168945,-0.00003558,-0.00196782,0.08970141,0.1399811
 8,-0.00359010,0.00021597,-0.00249284,-0.07507437,-0.08662083,-0.133196
 31,-0.00963954,-0.01036769,-0.00714010,0.00220010,0.00061397,-0.003840
 20,0.01534685,0.01368572,0.01560588,0.00087415,0.00239689,-0.00020149,
 -0.00244077,-0.00027015,0.00277179,0.00033167,-0.00009141,0.00043283,0
 .00030245,-0.00008998,0.00016822,0.00090747,0.00116903,0.00081896,0.08
 175457,0.09181828,0.14088902,0.00282786,0.00014709,0.00246429,-0.12665
 574,0.06028594,0.09676784,-0.01556248,0.00936543,0.01757752,-0.0012309
 3,-0.00309493,0.00274879,-0.01414259,-0.00748800,0.01443326,-0.0022985
 0,0.00205089,-0.00385555,0.00242683,0.00284837,-0.00191110,-0.00005375
 ,0.00012689,-0.00035707,-0.00013334,-0.00006467,-0.00018248,0.00032855
 ,-0.00088851,-0.00265307,0.01023439,-0.00704085,-0.01097249,0.14425970
 ,-0.00162255,-0.00086117,-0.00010858,0.05715239,-0.08735069,-0.0655836
 5,0.00940316,-0.00410271,-0.01704635,0.00056113,0.00105509,-0.00122662
 ,-0.02235013,0.00791869,0.02744732,0.00218018,-0.00108247,0.00359575,0
 .00043159,-0.00022545,0.00054353,-0.00002743,-0.00016189,0.00026952,0.
 00001128,-0.00002856,0.00034545,-0.00076725,0.00041487,0.00127654,0.01
 127529,-0.00745903,-0.01245980,-0.05624766,0.09188332,0.00279503,0.000
 86746,0.00186478,0.09420476,-0.06754574,-0.15494424,-0.01031349,0.0054
 1772,0.01109810,-0.00155946,-0.00268839,0.00252611,0.01760396,0.012259
 74,-0.02098164,-0.00231377,-0.00008434,-0.00313276,0.00016127,0.001349
 27,-0.00120450,0.00004439,0.00029002,-0.00052164,-0.00000267,0.0000379
 9,-0.00058830,0.00136597,-0.00149460,-0.00013146,0.01207395,-0.0113560
 4,-0.01381577,-0.11405995,0.06294689,0.17983132\\-0.00000165,-0.000001
 54,0.00000216,0.00000045,0.00000062,0.00000156,0.00000016,-0.00000022,
 -0.00000019,0.00000159,0.00000103,0.00000109,0.00000118,0.00000041,-0.
 00000032,-0.00000004,-0.00000091,-0.00000098,-0.00000182,0.00000009,-0
 .00000458,-0.00000105,-0.00000095,-0.00000079,0.00000042,-0.00000061,-
 0.00000027,0.00000022,0.00000007,0.00000009,-0.00000058,0.00000114,0.0
 0000093,0.00000113,0.00000088,0.00000130\\\@


 IT WAS AN ACT OF DESPARATION. FOR SIX YEARS I HAD STRUGGLED WITH THE
 BLACKBODY THEORY. I KNEW THE PROBLEM WAS FUNDAMENTAL, AND I KNEW
 THE ANSWER. I HAD TO FIND A THEORETICAL EXPLANATION AT ANY COST,
 EXCEPT FOR THE INVIOLABLITY OF THE TWO LAWS OF THERMODYNAMICS.
   -- MAX PLANCK, 1931
 Job cpu time:       0 days  0 hours  3 minutes 46.6 seconds.
 Elapsed time:       0 days  0 hours  0 minutes 14.4 seconds.
 File lengths (MBytes):  RWF=     27 Int=      0 D2E=      0 Chk=      3 Scr=      1
 Normal termination of Gaussian 16 at Wed Dec 23 22:09:54 2020.
