 Entering Gaussian System, Link 0=g16
 Initial command:
 /apps/cent7/gaussian/g16-B.01/g16-haswell/g16/l1.exe "/scratch/bell/zhao922/YARP/paper-example/KHP-network/pp_0/TS-folder/Gau-3471.inp" -scrdir="/scratch/bell/zhao922/YARP/paper-example/KHP-network/pp_0/TS-folder/"
 Entering Link 1 = /apps/cent7/gaussian/g16-B.01/g16-haswell/g16/l1.exe PID=      3473.
  
 Copyright (c) 1988-2017, Gaussian, Inc.  All Rights Reserved.
  
 This is part of the Gaussian(R) 16 program.  It is based on
 the Gaussian(R) 09 system (copyright 2009, Gaussian, Inc.),
 the Gaussian(R) 03 system (copyright 2003, Gaussian, Inc.),
 the Gaussian(R) 98 system (copyright 1998, Gaussian, Inc.),
 the Gaussian(R) 94 system (copyright 1995, Gaussian, Inc.),
 the Gaussian 92(TM) system (copyright 1992, Gaussian, Inc.),
 the Gaussian 90(TM) system (copyright 1990, Gaussian, Inc.),
 the Gaussian 88(TM) system (copyright 1988, Gaussian, Inc.),
 the Gaussian 86(TM) system (copyright 1986, Carnegie Mellon
 University), and the Gaussian 82(TM) system (copyright 1983,
 Carnegie Mellon University). Gaussian is a federally registered
 trademark of Gaussian, Inc.
  
 This software contains proprietary and confidential information,
 including trade secrets, belonging to Gaussian, Inc.
  
 This software is provided under written license and may be
 used, copied, transmitted, or stored only in accord with that
 written license.
  
 The following legend is applicable only to US Government
 contracts under FAR:
  
                    RESTRICTED RIGHTS LEGEND
  
 Use, reproduction and disclosure by the US Government is
 subject to restrictions as set forth in subparagraphs (a)
 and (c) of the Commercial Computer Software - Restricted
 Rights clause in FAR 52.227-19.
  
 Gaussian, Inc.
 340 Quinnipiac St., Bldg. 40, Wallingford CT 06492
  
  
 ---------------------------------------------------------------
 Warning -- This program may not be used in any manner that
 competes with the business of Gaussian, Inc. or will provide
 assistance to any competitor of Gaussian, Inc.  The licensee
 of this program is prohibited from giving any competitor of
 Gaussian, Inc. access to this program.  By using this program,
 the user acknowledges that Gaussian, Inc. is engaged in the
 business of creating and licensing software in the field of
 computational chemistry and represents and warrants to the
 licensee that it is not a competitor of Gaussian, Inc. and that
 it will not use this program in any manner prohibited above.
 ---------------------------------------------------------------
  

 Cite this work as:
 Gaussian 16, Revision B.01,
 M. J. Frisch, G. W. Trucks, H. B. Schlegel, G. E. Scuseria, 
 M. A. Robb, J. R. Cheeseman, G. Scalmani, V. Barone, 
 G. A. Petersson, H. Nakatsuji, X. Li, M. Caricato, A. V. Marenich, 
 J. Bloino, B. G. Janesko, R. Gomperts, B. Mennucci, H. P. Hratchian, 
 J. V. Ortiz, A. F. Izmaylov, J. L. Sonnenberg, D. Williams-Young, 
 F. Ding, F. Lipparini, F. Egidi, J. Goings, B. Peng, A. Petrone, 
 T. Henderson, D. Ranasinghe, V. G. Zakrzewski, J. Gao, N. Rega, 
 G. Zheng, W. Liang, M. Hada, M. Ehara, K. Toyota, R. Fukuda, 
 J. Hasegawa, M. Ishida, T. Nakajima, Y. Honda, O. Kitao, H. Nakai, 
 T. Vreven, K. Throssell, J. A. Montgomery, Jr., J. E. Peralta, 
 F. Ogliaro, M. J. Bearpark, J. J. Heyd, E. N. Brothers, K. N. Kudin, 
 V. N. Staroverov, T. A. Keith, R. Kobayashi, J. Normand, 
 K. Raghavachari, A. P. Rendell, J. C. Burant, S. S. Iyengar, 
 J. Tomasi, M. Cossi, J. M. Millam, M. Klene, C. Adamo, R. Cammi, 
 J. W. Ochterski, R. L. Martin, K. Morokuma, O. Farkas, 
 J. B. Foresman, and D. J. Fox, Gaussian, Inc., Wallingford CT, 2016.
 
 ******************************************
 Gaussian 16:  ES64L-G16RevB.01 20-Dec-2017
                23-Dec-2020 
 ******************************************
 %NProcShared=16
 Will use up to   16 processors via shared memory.
 %Mem=6GB
 --------------------------------------------------------------
 # B3LYP/6-31+G* OPT=(TS, CALCALL, NOEIGEN, maxcycles=100) Freq
 --------------------------------------------------------------
 1/5=1,6=100,10=4,11=1,18=20,26=3,38=1/1,3;
 2/9=110,12=2,17=6,18=5,40=1/2;
 3/5=1,6=6,7=11,11=2,25=1,30=1,71=2,74=-5,140=1/1,2,3;
 4//1;
 5/5=2,38=5/2;
 8/6=4,10=90,11=11/1;
 11/6=1,8=1,9=11,15=111,16=1/1,2,10;
 10/6=1/2;
 6/7=2,8=2,9=2,10=2,18=1,28=1/1;
 7/10=1,25=1/1,2,3,16;
 1/5=1,6=100,10=4,11=1,18=20,26=3/3(3);
 2/9=110/2;
 7/8=1,9=1,25=1,44=-1/16;
 99//99;
 2/9=110/2;
 3/5=1,6=6,7=11,11=2,25=1,30=1,71=2,74=-5,140=1/1,2,3;
 4/5=5,16=3,69=1/1;
 5/5=2,38=5/2;
 8/6=4,10=90,11=11/1;
 11/6=1,8=1,9=11,15=111,16=1/1,2,10;
 10/6=1/2;
 7/10=1,25=1/1,2,3,16;
 1/5=1,6=100,10=4,11=1,18=20,26=3/3(-8);
 2/9=110/2;
 6/7=2,8=2,9=2,10=2,18=1,19=2,28=1/1;
 7/8=1,9=1,25=1,44=-1/16;
 99//99;
 ---------
 pp_7_0 TS
 ---------
 Symbolic Z-matrix:
 Charge =  0 Multiplicity = 1
 C                     1.90203   1.6561   -0.9113 
 C                     0.7856    1.47637  -0.04788 
 C                     0.61439  -0.5825   -2.59017 
 O                     1.08852   1.14715  -2.23793 
 O                    -0.06469   1.99847  -2.31415 
 O                     1.0409   -1.69716  -2.61957 
 H                     0.19983   2.74853  -2.82211 
 H                     2.65051   2.43986  -0.95595 
 H                     2.59437   0.8233   -1.05785 
 H                     0.10998  -0.16653  -3.44541 
 H                     1.22638   0.96007   0.79842 
 H                    -0.02333   2.10404   0.20666 
 
 Add virtual bond connecting atoms O4         and C3         Dist= 3.45D+00.

 GradGradGradGradGradGradGradGradGradGradGradGradGradGradGradGradGradGrad
 Berny optimization.
 Initialization pass.
                           ----------------------------
                           !    Initial Parameters    !
                           ! (Angstroms and Degrees)  !
 --------------------------                            --------------------------
 ! Name  Definition              Value          Derivative Info.                !
 --------------------------------------------------------------------------------
 ! R1    R(1,2)                  1.4227         calculate D2E/DX2 analytically  !
 ! R2    R(1,4)                  1.6373         calculate D2E/DX2 analytically  !
 ! R3    R(1,8)                  1.0847         calculate D2E/DX2 analytically  !
 ! R4    R(1,9)                  1.0929         calculate D2E/DX2 analytically  !
 ! R5    R(2,11)                 1.0849         calculate D2E/DX2 analytically  !
 ! R6    R(2,12)                 1.055          calculate D2E/DX2 analytically  !
 ! R7    R(3,4)                  1.8277         calculate D2E/DX2 analytically  !
 ! R8    R(3,6)                  1.1938         calculate D2E/DX2 analytically  !
 ! R9    R(3,10)                 1.0765         calculate D2E/DX2 analytically  !
 ! R10   R(4,5)                  1.4354         calculate D2E/DX2 analytically  !
 ! R11   R(5,7)                  0.9437         calculate D2E/DX2 analytically  !
 ! A1    A(2,1,4)               93.5867         calculate D2E/DX2 analytically  !
 ! A2    A(2,1,8)              131.1286         calculate D2E/DX2 analytically  !
 ! A3    A(2,1,9)              118.831          calculate D2E/DX2 analytically  !
 ! A4    A(4,1,8)              122.2841         calculate D2E/DX2 analytically  !
 ! A5    A(4,1,9)               88.237          calculate D2E/DX2 analytically  !
 ! A6    A(8,1,9)               96.1975         calculate D2E/DX2 analytically  !
 ! A7    A(1,2,11)             102.3978         calculate D2E/DX2 analytically  !
 ! A8    A(1,2,12)             132.2913         calculate D2E/DX2 analytically  !
 ! A9    A(11,2,12)            113.98           calculate D2E/DX2 analytically  !
 ! A10   A(4,3,6)              142.7168         calculate D2E/DX2 analytically  !
 ! A11   A(4,3,10)              84.7781         calculate D2E/DX2 analytically  !
 ! A12   A(6,3,10)             120.5708         calculate D2E/DX2 analytically  !
 ! A13   A(1,4,3)              125.395          calculate D2E/DX2 analytically  !
 ! A14   A(1,4,5)              104.9421         calculate D2E/DX2 analytically  !
 ! A15   A(3,4,5)              110.0363         calculate D2E/DX2 analytically  !
 ! A16   A(4,5,7)              105.9485         calculate D2E/DX2 analytically  !
 ! D1    D(4,1,2,11)           133.6265         calculate D2E/DX2 analytically  !
 ! D2    D(4,1,2,12)           -86.6889         calculate D2E/DX2 analytically  !
 ! D3    D(8,1,2,11)           -86.4464         calculate D2E/DX2 analytically  !
 ! D4    D(8,1,2,12)            53.2382         calculate D2E/DX2 analytically  !
 ! D5    D(9,1,2,11)            43.6656         calculate D2E/DX2 analytically  !
 ! D6    D(9,1,2,12)          -176.6498         calculate D2E/DX2 analytically  !
 ! D7    D(2,1,4,3)            -72.667          calculate D2E/DX2 analytically  !
 ! D8    D(2,1,4,5)             55.9874         calculate D2E/DX2 analytically  !
 ! D9    D(8,1,4,3)            142.3327         calculate D2E/DX2 analytically  !
 ! D10   D(8,1,4,5)            -89.0129         calculate D2E/DX2 analytically  !
 ! D11   D(9,1,4,3)             46.1147         calculate D2E/DX2 analytically  !
 ! D12   D(9,1,4,5)            174.7691         calculate D2E/DX2 analytically  !
 ! D13   D(6,3,4,1)            -48.3497         calculate D2E/DX2 analytically  !
 ! D14   D(6,3,4,5)           -174.9196         calculate D2E/DX2 analytically  !
 ! D15   D(10,3,4,1)           175.3413         calculate D2E/DX2 analytically  !
 ! D16   D(10,3,4,5)            48.7715         calculate D2E/DX2 analytically  !
 ! D17   D(1,4,5,7)             88.7012         calculate D2E/DX2 analytically  !
 ! D18   D(3,4,5,7)           -133.9557         calculate D2E/DX2 analytically  !
 --------------------------------------------------------------------------------
 Trust Radius=3.00D-01 FncErr=1.00D-07 GrdErr=1.00D-06 EigMax=2.50D+02 EigMin=1.00D-04
 Number of steps in this run=    100 maximum allowed number of steps=    100.
 Search for a saddle point of order  1.
 GradGradGradGradGradGradGradGradGradGradGradGradGradGradGradGradGradGrad

                          Input orientation:                          
 ---------------------------------------------------------------------
 Center     Atomic      Atomic             Coordinates (Angstroms)
 Number     Number       Type             X           Y           Z
 ---------------------------------------------------------------------
      1          6           0        1.902026    1.656098   -0.911299
      2          6           0        0.785595    1.476365   -0.047881
      3          6           0        0.614392   -0.582500   -2.590167
      4          8           0        1.088516    1.147146   -2.237926
      5          8           0       -0.064693    1.998467   -2.314153
      6          8           0        1.040905   -1.697160   -2.619573
      7          1           0        0.199830    2.748534   -2.822114
      8          1           0        2.650505    2.439864   -0.955952
      9          1           0        2.594370    0.823297   -1.057853
     10          1           0        0.109984   -0.166532   -3.445408
     11          1           0        1.226378    0.960073    0.798424
     12          1           0       -0.023333    2.104038    0.206655
 ---------------------------------------------------------------------
                    Distance matrix (angstroms):
                    1          2          3          4          5
     1  C    0.000000
     2  C    1.422748   0.000000
     3  C    3.080247   3.275890   0.000000
     4  O    1.637306   2.235273   1.827715   0.000000
     5  O    2.439918   2.476201   2.683045   1.435426   0.000000
     6  O    3.860579   4.092682   1.193836   2.870191   3.869533
     7  H    2.782463   3.107717   3.364736   1.922364   0.943715
     8  H    1.084668   2.287097   3.993883   2.398830   3.067872
     9  H    1.092875   2.172144   2.871335   1.940373   3.167007
    10  H    3.599320   3.833895   1.076519   2.035015   2.448973
    11  H    1.965732   1.084933   3.773143   3.045230   3.526083
    12  H    2.271008   1.055048   3.930190   2.850934   2.523357
                    6          7          8          9         10
     6  O    0.000000
     7  H    4.529087   0.000000
     8  H    4.740613   3.095746   0.000000
     9  H    3.347376   3.543018   1.620748   0.000000
    10  H    1.972673   2.982311   4.409642   3.585018   0.000000
    11  H    4.333358   4.166616   2.701065   2.309951   4.530528
    12  H    4.854820   3.104612   2.934935   3.176735   4.302421
                   11         12
    11  H    0.000000
    12  H    1.794610   0.000000
 Stoichiometry    C3H6O3
 Framework group  C1[X(C3H6O3)]
 Deg. of freedom    30
 Full point group                 C1      NOp   1
 Largest Abelian subgroup         C1      NOp   1
 Largest concise Abelian subgroup C1      NOp   1
                         Standard orientation:                         
 ---------------------------------------------------------------------
 Center     Atomic      Atomic             Coordinates (Angstroms)
 Number     Number       Type             X           Y           Z
 ---------------------------------------------------------------------
      1          6           0       -1.261897   -0.776263    0.644628
      2          6           0       -1.500846   -0.872466   -0.754608
      3          6           0        1.558915    0.146637   -0.179506
      4          8           0       -0.129573    0.394130    0.474940
      5          8           0       -0.788383    1.444390   -0.248504
      6          8           0        2.523145   -0.550354   -0.080973
      7          1           0       -1.191698    1.994833    0.403376
      8          1           0       -1.942890   -0.805552    1.488366
      9          1           0       -0.491823   -1.409317    1.092517
     10          1           0        1.644684    1.215908   -0.088960
     11          1           0       -1.493204   -1.944840   -0.919031
     12          1           0       -2.143620   -0.343810   -1.403060
 ---------------------------------------------------------------------
 Rotational constants (GHZ):           5.4632078           2.2396061           1.8616229
 Standard basis: 6-31+G(d) (6D, 7F)
 There are   126 symmetry adapted cartesian basis functions of A   symmetry.
 There are   126 symmetry adapted basis functions of A   symmetry.
   126 basis functions,   216 primitive gaussians,   126 cartesian basis functions
    24 alpha electrons       24 beta electrons
       nuclear repulsion energy       236.1524057803 Hartrees.
 NAtoms=   12 NActive=   12 NUniq=   12 SFac= 1.00D+00 NAtFMM=   60 NAOKFM=F Big=F
 Integral buffers will be    131072 words long.
 Raffenetti 2 integral format.
 Two-electron integral symmetry is turned on.
 One-electron integrals computed using PRISM.
 NBasis=   126 RedAO= T EigKep=  1.52D-04  NBF=   126
 NBsUse=   126 1.00D-06 EigRej= -1.00D+00 NBFU=   126
 ExpMin= 4.38D-02 ExpMax= 5.48D+03 ExpMxC= 8.25D+02 IAcc=3 IRadAn=         5 AccDes= 0.00D+00
 Harris functional with IExCor=  402 and IRadAn=       5 diagonalized for initial guess.
 HarFok:  IExCor=  402 AccDes= 0.00D+00 IRadAn=         5 IDoV= 1 UseB2=F ITyADJ=14
 ICtDFT=  3500011 ScaDFX=  1.000000  1.000000  1.000000  1.000000
 FoFCou: FMM=F IPFlag=           0 FMFlag=      100000 FMFlg1=           0
         NFxFlg=           0 DoJE=T BraDBF=F KetDBF=T FulRan=T
         wScrn=  0.000000 ICntrl=       500 IOpCl=  0 I1Cent=   200000004 NGrid=           0
         NMat0=    1 NMatS0=      1 NMatT0=    0 NMatD0=    1 NMtDS0=    0 NMtDT0=    0
 Petite list used in FoFCou.
 Keep R1 ints in memory in canonical form, NReq=47237537.
 Requested convergence on RMS density matrix=1.00D-08 within 128 cycles.
 Requested convergence on MAX density matrix=1.00D-06.
 Requested convergence on             energy=1.00D-06.
 No special actions if energy rises.
 EnCoef did     2 forward-backward iterations
 EnCoef did     3 forward-backward iterations
 SCF Done:  E(RB3LYP) =  -343.240057076     A.U. after   18 cycles
            NFock= 18  Conv=0.10D-07     -V/T= 2.0081
 DoSCS=F DFT=T ScalE2(SS,OS)=  1.000000  1.000000
 Range of M.O.s used for correlation:     1   126
 NBasis=   126 NAE=    24 NBE=    24 NFC=     0 NFV=     0
 NROrb=    126 NOA=    24 NOB=    24 NVA=   102 NVB=   102

 **** Warning!!: The largest alpha MO coefficient is  0.28129200D+02


 **** Warning!!: The smallest alpha delta epsilon is  0.56235862D-01

 Symmetrizing basis deriv contribution to polar:
 IMax=3 JMax=2 DiffMx= 0.00D+00
 G2DrvN: will do    13 centers at a time, making    1 passes.
 Calling FoFCou, ICntrl=  3107 FMM=F I1Cent=   0 AccDes= 0.00D+00.
 End of G2Drv F.D. properties file   721 does not exist.
 End of G2Drv F.D. properties file   722 does not exist.
 End of G2Drv F.D. properties file   788 does not exist.
          IDoAtm=111111111111
          Differentiating once with respect to electric field.
                with respect to dipole field.
          Differentiating once with respect to nuclear coordinates.
 Keep R1 ints in memory in canonical form, NReq=47193559.
          There are    39 degrees of freedom in the 1st order CPHF.  IDoFFX=6 NUNeed=     3.
     36 vectors produced by pass  0 Test12= 6.28D-15 2.56D-09 XBig12= 1.61D+03 3.92D+01.
 AX will form    36 AO Fock derivatives at one time.
     36 vectors produced by pass  1 Test12= 6.28D-15 2.56D-09 XBig12= 5.06D+02 6.79D+00.
     36 vectors produced by pass  2 Test12= 6.28D-15 2.56D-09 XBig12= 6.20D+00 4.74D-01.
     36 vectors produced by pass  3 Test12= 6.28D-15 2.56D-09 XBig12= 3.02D-02 3.03D-02.
     36 vectors produced by pass  4 Test12= 6.28D-15 2.56D-09 XBig12= 4.87D-05 8.73D-04.
     31 vectors produced by pass  5 Test12= 6.28D-15 2.56D-09 XBig12= 4.72D-08 3.04D-05.
      6 vectors produced by pass  6 Test12= 6.28D-15 2.56D-09 XBig12= 4.07D-11 7.10D-07.
      3 vectors produced by pass  7 Test12= 6.28D-15 2.56D-09 XBig12= 2.80D-14 2.18D-08.
 InvSVY:  IOpt=1 It=  1 EMax= 1.42D-14
 Solved reduced A of dimension   220 with    39 vectors.
 Isotropic polarizability for W=    0.000000       85.08 Bohr**3.
 End of Minotr F.D. properties file   721 does not exist.
 End of Minotr F.D. properties file   722 does not exist.
 End of Minotr F.D. properties file   788 does not exist.

 **********************************************************************

            Population analysis using the SCF Density.

 **********************************************************************

 Orbital symmetries:
       Occupied  (A) (A) (A) (A) (A) (A) (A) (A) (A) (A) (A) (A)
                 (A) (A) (A) (A) (A) (A) (A) (A) (A) (A) (A) (A)
       Virtual   (A) (A) (A) (A) (A) (A) (A) (A) (A) (A) (A) (A)
                 (A) (A) (A) (A) (A) (A) (A) (A) (A) (A) (A) (A)
                 (A) (A) (A) (A) (A) (A) (A) (A) (A) (A) (A) (A)
                 (A) (A) (A) (A) (A) (A) (A) (A) (A) (A) (A) (A)
                 (A) (A) (A) (A) (A) (A) (A) (A) (A) (A) (A) (A)
                 (A) (A) (A) (A) (A) (A) (A) (A) (A) (A) (A) (A)
                 (A) (A) (A) (A) (A) (A) (A) (A) (A) (A) (A) (A)
                 (A) (A) (A) (A) (A) (A) (A) (A) (A) (A) (A) (A)
                 (A) (A) (A) (A) (A) (A)
 The electronic state is 1-A.
 Alpha  occ. eigenvalues --  -19.25317 -19.24206 -19.23329 -10.34293 -10.25435
 Alpha  occ. eigenvalues --  -10.15993  -1.15731  -1.11575  -0.93258  -0.76293
 Alpha  occ. eigenvalues --   -0.64805  -0.62123  -0.55399  -0.51681  -0.50426
 Alpha  occ. eigenvalues --   -0.49117  -0.44900  -0.44067  -0.42632  -0.38422
 Alpha  occ. eigenvalues --   -0.34610  -0.33225  -0.30743  -0.16063
 Alpha virt. eigenvalues --   -0.10440  -0.06234  -0.00397   0.00448   0.01949
 Alpha virt. eigenvalues --    0.02603   0.04048   0.04327   0.06487   0.07583
 Alpha virt. eigenvalues --    0.07770   0.08254   0.09434   0.12555   0.13119
 Alpha virt. eigenvalues --    0.14052   0.15968   0.17660   0.18172   0.20140
 Alpha virt. eigenvalues --    0.21346   0.23274   0.23538   0.25047   0.26094
 Alpha virt. eigenvalues --    0.26900   0.27638   0.28839   0.29056   0.31275
 Alpha virt. eigenvalues --    0.33282   0.34227   0.36097   0.38839   0.43543
 Alpha virt. eigenvalues --    0.45654   0.64009   0.64860   0.67485   0.72122
 Alpha virt. eigenvalues --    0.75366   0.77665   0.79911   0.80632   0.87138
 Alpha virt. eigenvalues --    0.91591   0.95656   0.99109   1.01476   1.03760
 Alpha virt. eigenvalues --    1.06811   1.07799   1.11029   1.13168   1.15827
 Alpha virt. eigenvalues --    1.19149   1.20328   1.21067   1.24140   1.24788
 Alpha virt. eigenvalues --    1.29157   1.33440   1.36121   1.39356   1.48547
 Alpha virt. eigenvalues --    1.50601   1.53150   1.54661   1.58130   1.61123
 Alpha virt. eigenvalues --    1.69142   1.70638   1.72853   1.78578   1.81663
 Alpha virt. eigenvalues --    1.82393   1.87905   1.94866   2.00383   2.07105
 Alpha virt. eigenvalues --    2.07993   2.14460   2.18269   2.23607   2.29800
 Alpha virt. eigenvalues --    2.39432   2.40746   2.46496   2.53539   2.56820
 Alpha virt. eigenvalues --    2.61288   2.63974   2.78758   2.81098   3.08254
 Alpha virt. eigenvalues --    3.13490   3.92737   4.10166   4.23843   4.27642
 Alpha virt. eigenvalues --    4.30701   4.44967
          Condensed to atoms (all electrons):
               1          2          3          4          5          6
     1  C    5.744590  -0.028623  -0.032326  -0.003446   0.020589   0.009105
     2  C   -0.028623   6.216544   0.161294  -0.396214  -0.052370  -0.028174
     3  C   -0.032326   0.161294   5.075487  -0.185132   0.027610   0.418140
     4  O   -0.003446  -0.396214  -0.185132   8.671121  -0.035888  -0.008605
     5  O    0.020589  -0.052370   0.027610  -0.035888   8.469629   0.001875
     6  O    0.009105  -0.028174   0.418140  -0.008605   0.001875   7.926338
     7  H    0.003396  -0.001300   0.000005   0.004139   0.154356  -0.000073
     8  H    0.320109  -0.005964   0.005164  -0.007338  -0.011972  -0.000195
     9  H    0.398405  -0.036155  -0.011236  -0.059403   0.015499   0.000871
    10  H    0.008544  -0.035009   0.367233  -0.083545   0.027104  -0.066164
    11  H   -0.015926   0.317375   0.002543   0.024123  -0.002533   0.000179
    12  H   -0.087488   0.455080  -0.004970  -0.011758   0.003415   0.000155
               7          8          9         10         11         12
     1  C    0.003396   0.320109   0.398405   0.008544  -0.015926  -0.087488
     2  C   -0.001300  -0.005964  -0.036155  -0.035009   0.317375   0.455080
     3  C    0.000005   0.005164  -0.011236   0.367233   0.002543  -0.004970
     4  O    0.004139  -0.007338  -0.059403  -0.083545   0.024123  -0.011758
     5  O    0.154356  -0.011972   0.015499   0.027104  -0.002533   0.003415
     6  O   -0.000073  -0.000195   0.000871  -0.066164   0.000179   0.000155
     7  H    0.347430   0.001529  -0.000317  -0.002127  -0.000009   0.000033
     8  H    0.001529   0.527030  -0.061867  -0.000218   0.004428  -0.001537
     9  H   -0.000317  -0.061867   0.564260   0.000313  -0.012971   0.003234
    10  H   -0.002127  -0.000218   0.000313   0.586560   0.000039   0.000066
    11  H   -0.000009   0.004428  -0.012971   0.000039   0.541184  -0.034453
    12  H    0.000033  -0.001537   0.003234   0.000066  -0.034453   0.468533
 Mulliken charges:
               1
     1  C   -0.336931
     2  C   -0.566483
     3  C    0.176188
     4  O    0.091946
     5  O   -0.617315
     6  O   -0.253452
     7  H    0.492938
     8  H    0.230829
     9  H    0.199366
    10  H    0.197204
    11  H    0.176020
    12  H    0.209689
 Sum of Mulliken charges =  -0.00000
 Mulliken charges with hydrogens summed into heavy atoms:
               1
     1  C    0.093265
     2  C   -0.180774
     3  C    0.373392
     4  O    0.091946
     5  O   -0.124377
     6  O   -0.253452
 APT charges:
               1
     1  C    0.026469
     2  C   -0.246132
     3  C    1.141488
     4  O    0.121748
     5  O   -0.300431
     6  O   -1.003177
     7  H    0.264862
     8  H    0.079427
     9  H   -0.017592
    10  H   -0.055146
    11  H    0.024055
    12  H   -0.035571
 Sum of APT charges =  -0.00000
 APT charges with hydrogens summed into heavy atoms:
               1
     1  C    0.088304
     2  C   -0.257648
     3  C    1.086342
     4  O    0.121748
     5  O   -0.035569
     6  O   -1.003177
 Electronic spatial extent (au):  <R**2>=            668.1088
 Charge=             -0.0000 electrons
 Dipole moment (field-independent basis, Debye):
    X=             -1.1269    Y=              2.1853    Z=              2.6240  Tot=              3.5959
 Quadrupole moment (field-independent basis, Debye-Ang):
   XX=            -39.2527   YY=            -33.4790   ZZ=            -37.3929
   XY=              0.4988   XZ=             -2.8431   YZ=             -0.4690
 Traceless Quadrupole moment (field-independent basis, Debye-Ang):
   XX=             -2.5445   YY=              3.2292   ZZ=             -0.6847
   XY=              0.4988   XZ=             -2.8431   YZ=             -0.4690
 Octapole moment (field-independent basis, Debye-Ang**2):
  XXX=             -1.4397  YYY=             18.9372  ZZZ=              6.1866  XYY=             -2.8334
  XXY=             17.0444  XXZ=              4.6801  XZZ=              0.4479  YZZ=              2.1248
  YYZ=              7.8654  XYZ=             -0.4216
 Hexadecapole moment (field-independent basis, Debye-Ang**3):
 XXXX=           -598.2193 YYYY=           -195.8235 ZZZZ=           -117.7626 XXXY=            -13.4892
 XXXZ=            -10.6339 YYYX=            -29.0897 YYYZ=              5.1416 ZZZX=             -4.2836
 ZZZY=             -8.0861 XXYY=           -121.4840 XXZZ=           -100.0467 YYZZ=            -54.9931
 XXYZ=             -3.2323 YYXZ=             -7.6635 ZZXY=             -3.3143
 N-N= 2.361524057803D+02 E-N=-1.276412890923D+03  KE= 3.404764805346D+02
  Exact polarizability: 133.800  19.767  63.215   3.895   3.228  58.239
 Approx polarizability: 448.359  90.305 106.808  43.106  11.747  88.708
 Calling FoFJK, ICntrl=    100127 FMM=F ISym2X=0 I1Cent= 0 IOpClX= 0 NMat=1 NMatS=1 NMatT=0.
 ***** Axes restored to original set *****
 -------------------------------------------------------------------
 Center     Atomic                   Forces (Hartrees/Bohr)
 Number     Number              X              Y              Z
 -------------------------------------------------------------------
      1        6          -0.010145251   -0.041441238   -0.016692836
      2        6           0.042561451   -0.022986779    0.065043139
      3        6          -0.018329846   -0.038383083   -0.025879387
      4        8           0.051831585    0.059483843   -0.036383917
      5        8          -0.028970764   -0.036400609    0.008761298
      6        8           0.009916228    0.028380170    0.023466187
      7        1           0.019544291    0.019543995   -0.023149159
      8        1          -0.019822006    0.033051372   -0.023695569
      9        1          -0.000481380   -0.013957730    0.026182314
     10        1          -0.021139056    0.002946873   -0.007382221
     11        1          -0.014949653   -0.013658334    0.012569250
     12        1          -0.010015598    0.023421520   -0.002839098
 -------------------------------------------------------------------
 Cartesian Forces:  Max     0.065043139 RMS     0.028064774
 FormGI is forming the generalized inverse of G from B-inverse, IUseBI=4.

 GradGradGradGradGradGradGradGradGradGradGradGradGradGradGradGradGradGrad
 Berny optimization.
 Internal  Forces:  Max     0.095821303 RMS     0.026824974
 Search for a saddle point.
 Step number   1 out of a maximum of  100
 All quantities printed in internal units (Hartrees-Bohrs-Radians)
 Swapping is turned off.
 Second derivative matrix not updated -- analytic derivatives used.
 ITU=  0
     Eigenvalues ---   -0.12648  -0.05923  -0.00429   0.00051   0.00556
     Eigenvalues ---    0.01231   0.01286   0.01874   0.03755   0.04003
     Eigenvalues ---    0.05145   0.06867   0.08084   0.09846   0.10253
     Eigenvalues ---    0.11221   0.14083   0.15471   0.16694   0.20805
     Eigenvalues ---    0.29180   0.33239   0.33464   0.36116   0.36413
     Eigenvalues ---    0.36783   0.43510   0.55392   0.60944   0.86950
 Eigenvectors required to have negative eigenvalues:
                          R2        A13       R7        D3        D13
   1                   -0.62956  -0.38236   0.30748   0.19496  -0.18487
                          D17       D16       D18       D7        R1
   1                    0.17671   0.17627  -0.17528   0.16446   0.15956
 RFO step:  Lambda0=8.385785664D-06 Lambda=-1.02757891D-01.
 Linear search not attempted -- option 19 set.
 Maximum step size (   0.300) exceeded in Quadratic search.
    -- Step size scaled by   0.307
 Iteration  1 RMS(Cart)=  0.09473116 RMS(Int)=  0.00545949
 Iteration  2 RMS(Cart)=  0.00590123 RMS(Int)=  0.00089952
 Iteration  3 RMS(Cart)=  0.00001619 RMS(Int)=  0.00089941
 Iteration  4 RMS(Cart)=  0.00000003 RMS(Int)=  0.00089941
 Variable       Old X    -DE/DX   Delta X   Delta X   Delta X     New X
                                 (Linear)    (Quad)   (Total)
    R1        2.68860   0.03324   0.00000   0.01102   0.01102   2.69962
    R2        3.09406   0.03163   0.00000  -0.02478  -0.02478   3.06928
    R3        2.04972   0.01118   0.00000   0.00780   0.00780   2.05753
    R4        2.06523   0.00682   0.00000   0.00367   0.00367   2.06890
    R5        2.05023   0.01023   0.00000   0.00380   0.00380   2.05403
    R6        1.99375   0.02093   0.00000   0.01415   0.01415   2.00790
    R7        3.45388   0.01623   0.00000  -0.15362  -0.15362   3.30026
    R8        2.25602  -0.02353   0.00000  -0.01309  -0.01309   2.24294
    R9        2.03433   0.01691   0.00000   0.00977   0.00977   2.04410
   R10        2.71256  -0.00166   0.00000  -0.01156  -0.01156   2.70100
   R11        1.78336   0.03347   0.00000   0.01524   0.01524   1.79860
    A1        1.63340   0.09582   0.00000   0.06919   0.06960   1.70300
    A2        2.28863  -0.02403   0.00000   0.00044   0.00053   2.28916
    A3        2.07399  -0.01973   0.00000  -0.03027  -0.03179   2.04221
    A4        2.13426  -0.07236   0.00000  -0.09477  -0.09475   2.03951
    A5        1.54003  -0.01026   0.00000   0.02938   0.03091   1.57094
    A6        1.67896   0.02206   0.00000   0.02243   0.02379   1.70275
    A7        1.78718   0.03626   0.00000   0.03426   0.03413   1.82131
    A8        2.30892  -0.03227   0.00000  -0.05451  -0.05462   2.25430
    A9        1.98933  -0.00398   0.00000  -0.00289  -0.00305   1.98627
   A10        2.49088  -0.04748   0.00000  -0.16766  -0.16578   2.32509
   A11        1.47966   0.02497   0.00000   0.09251   0.09496   1.57462
   A12        2.10436   0.01535   0.00000   0.04832   0.05130   2.15566
   A13        2.18856  -0.02068   0.00000  -0.05740  -0.05738   2.13117
   A14        1.83159   0.03691   0.00000   0.03303   0.03265   1.86423
   A15        1.92050  -0.02022   0.00000  -0.00402  -0.00390   1.91659
   A16        1.84915  -0.02241   0.00000  -0.03083  -0.03083   1.81832
    D1        2.33222   0.01180   0.00000   0.07868   0.07807   2.41029
    D2       -1.51301   0.01884   0.00000   0.05311   0.05256  -1.46045
    D3       -1.50878  -0.00478   0.00000   0.01265   0.01269  -1.49609
    D4        0.92918   0.00226   0.00000  -0.01291  -0.01282   0.91636
    D5        0.76211  -0.02799   0.00000   0.00890   0.00938   0.77149
    D6       -3.08312  -0.02094   0.00000  -0.01667  -0.01612  -3.09924
    D7       -1.26828   0.01795   0.00000  -0.00028  -0.00104  -1.26932
    D8        0.97716   0.00972   0.00000  -0.02156  -0.02263   0.95453
    D9        2.48417   0.01444   0.00000   0.01248   0.01212   2.49629
   D10       -1.55357   0.00620   0.00000  -0.00880  -0.00948  -1.56305
   D11        0.80485  -0.00244   0.00000  -0.02905  -0.02745   0.77740
   D12        3.05030  -0.01068   0.00000  -0.05033  -0.04904   3.00125
   D13       -0.84386   0.01465   0.00000   0.02096   0.02045  -0.82341
   D14       -3.05292   0.00032   0.00000   0.03005   0.02887  -3.02405
   D15        3.06028  -0.00315   0.00000  -0.03760  -0.03642   3.02386
   D16        0.85122  -0.01748   0.00000  -0.02851  -0.02800   0.82322
   D17        1.54813   0.01039   0.00000   0.02421   0.02438   1.57250
   D18       -2.33797  -0.00242   0.00000  -0.02770  -0.02787  -2.36584
         Item               Value     Threshold  Converged?
 Maximum Force            0.095821     0.000450     NO 
 RMS     Force            0.026825     0.000300     NO 
 Maximum Displacement     0.316545     0.001800     NO 
 RMS     Displacement     0.095838     0.001200     NO 
 Predicted change in Energy=-3.286698D-02
 GradGradGradGradGradGradGradGradGradGradGradGradGradGradGradGradGradGrad

                          Input orientation:                          
 ---------------------------------------------------------------------
 Center     Atomic      Atomic             Coordinates (Angstroms)
 Number     Number       Type             X           Y           Z
 ---------------------------------------------------------------------
      1          6           0        1.869321    1.586844   -0.926748
      2          6           0        0.785619    1.438337   -0.007850
      3          6           0        0.612509   -0.498832   -2.592177
      4          8           0        1.069061    1.156359   -2.272954
      5          8           0       -0.080704    2.001140   -2.358401
      6          8           0        1.197654   -1.529652   -2.530733
      7          1           0        0.218797    2.752575   -2.859927
      8          1           0        2.619627    2.369123   -1.029512
      9          1           0        2.538076    0.728782   -1.049714
     10          1           0        0.052239   -0.181055   -3.461184
     11          1           0        1.231922    0.959822    0.860072
     12          1           0        0.010352    2.124247    0.231879
 ---------------------------------------------------------------------
                    Distance matrix (angstroms):
                    1          2          3          4          5
     1  C    0.000000
     2  C    1.428580   0.000000
     3  C    2.950131   3.234399   0.000000
     4  O    1.624194   2.300120   1.746425   0.000000
     5  O    2.454358   2.567558   2.604814   1.429307   0.000000
     6  O    3.568817   3.917100   1.186911   2.701415   3.759041
     7  H    2.796487   3.191058   3.286084   1.901418   0.951779
     8  H    1.088798   2.296464   3.833486   2.328347   3.032020
     9  H    1.094817   2.158717   2.755728   1.958863   3.192111
    10  H    3.584776   3.884043   1.081692   2.057788   2.448629
    11  H    1.998039   1.086946   3.798600   3.143406   3.628485
    12  H    2.255435   1.062535   3.901081   2.886497   2.594802
                    6          7          8          9         10
     6  O    0.000000
     7  H    4.404997   0.000000
     8  H    4.413176   3.043261   0.000000
     9  H    3.015074   3.570948   1.642492   0.000000
    10  H    1.999106   2.999240   4.359807   3.580835   0.000000
    11  H    4.206686   4.251915   2.735395   2.325231   4.622391
    12  H    4.732091   3.161884   2.908503   3.158986   4.353721
                   11         12
    11  H    0.000000
    12  H    1.800763   0.000000
 Stoichiometry    C3H6O3
 Framework group  C1[X(C3H6O3)]
 Deg. of freedom    30
 Full point group                 C1      NOp   1
 Largest Abelian subgroup         C1      NOp   1
 Largest concise Abelian subgroup C1      NOp   1
                         Standard orientation:                         
 ---------------------------------------------------------------------
 Center     Atomic      Atomic             Coordinates (Angstroms)
 Number     Number       Type             X           Y           Z
 ---------------------------------------------------------------------
      1          6           0       -1.140006   -0.773240    0.653613
      2          6           0       -1.495969   -0.933093   -0.720642
      3          6           0        1.500501    0.187743   -0.245003
      4          8           0       -0.077380    0.439724    0.459836
      5          8           0       -0.761100    1.480109   -0.242334
      6          8           0        2.352672   -0.618144   -0.063043
      7          1           0       -1.141295    2.015573    0.446589
      8          1           0       -1.751209   -0.752480    1.554435
      9          1           0       -0.339282   -1.413597    1.037552
     10          1           0        1.677150    1.254907   -0.241303
     11          1           0       -1.535290   -2.009647   -0.865337
     12          1           0       -2.210761   -0.396725   -1.295414
 ---------------------------------------------------------------------
 Rotational constants (GHZ):           5.2014400           2.4690380           1.9704421
 Standard basis: 6-31+G(d) (6D, 7F)
 There are   126 symmetry adapted cartesian basis functions of A   symmetry.
 There are   126 symmetry adapted basis functions of A   symmetry.
   126 basis functions,   216 primitive gaussians,   126 cartesian basis functions
    24 alpha electrons       24 beta electrons
       nuclear repulsion energy       238.8858954051 Hartrees.
 NAtoms=   12 NActive=   12 NUniq=   12 SFac= 1.00D+00 NAtFMM=   60 NAOKFM=F Big=F
 Integral buffers will be    131072 words long.
 Raffenetti 2 integral format.
 Two-electron integral symmetry is turned on.
 One-electron integrals computed using PRISM.
 NBasis=   126 RedAO= T EigKep=  1.47D-04  NBF=   126
 NBsUse=   126 1.00D-06 EigRej= -1.00D+00 NBFU=   126
 Initial guess from the checkpoint file:  "/scratch/bell/zhao922/YARP/paper-example/KHP-network/pp_0/TS-folder/Gau-3473.chk"
 B after Tr=     0.000000    0.000000   -0.000000
         Rot=    0.999875    0.010158   -0.011592    0.003597 Ang=   1.81 deg.
 ExpMin= 4.38D-02 ExpMax= 5.48D+03 ExpMxC= 8.25D+02 IAcc=3 IRadAn=         5 AccDes= 0.00D+00
 Harris functional with IExCor=  402 and IRadAn=       5 diagonalized for initial guess.
 HarFok:  IExCor=  402 AccDes= 0.00D+00 IRadAn=         5 IDoV= 1 UseB2=F ITyADJ=14
 ICtDFT=  3500011 ScaDFX=  1.000000  1.000000  1.000000  1.000000
 FoFCou: FMM=F IPFlag=           0 FMFlag=      100000 FMFlg1=           0
         NFxFlg=           0 DoJE=T BraDBF=F KetDBF=T FulRan=T
         wScrn=  0.000000 ICntrl=       500 IOpCl=  0 I1Cent=   200000004 NGrid=           0
         NMat0=    1 NMatS0=      1 NMatT0=    0 NMatD0=    1 NMtDS0=    0 NMtDT0=    0
 Petite list used in FoFCou.
 Keep R1 ints in memory in canonical form, NReq=47237537.
 Requested convergence on RMS density matrix=1.00D-08 within 128 cycles.
 Requested convergence on MAX density matrix=1.00D-06.
 Requested convergence on             energy=1.00D-06.
 No special actions if energy rises.
 SCF Done:  E(RB3LYP) =  -343.272285449     A.U. after   15 cycles
            NFock= 15  Conv=0.53D-08     -V/T= 2.0085
 DoSCS=F DFT=T ScalE2(SS,OS)=  1.000000  1.000000
 Range of M.O.s used for correlation:     1   126
 NBasis=   126 NAE=    24 NBE=    24 NFC=     0 NFV=     0
 NROrb=    126 NOA=    24 NOB=    24 NVA=   102 NVB=   102

 **** Warning!!: The largest alpha MO coefficient is  0.26328150D+02


 **** Warning!!: The smallest alpha delta epsilon is  0.58776200D-01

 Symmetrizing basis deriv contribution to polar:
 IMax=3 JMax=2 DiffMx= 0.00D+00
 G2DrvN: will do    13 centers at a time, making    1 passes.
 Calling FoFCou, ICntrl=  3107 FMM=F I1Cent=   0 AccDes= 0.00D+00.
 End of G2Drv F.D. properties file   721 does not exist.
 End of G2Drv F.D. properties file   722 does not exist.
 End of G2Drv F.D. properties file   788 does not exist.
          IDoAtm=111111111111
          Differentiating once with respect to electric field.
                with respect to dipole field.
          Differentiating once with respect to nuclear coordinates.
 Keep R1 ints in memory in canonical form, NReq=47193559.
          There are    39 degrees of freedom in the 1st order CPHF.  IDoFFX=6 NUNeed=     3.
     36 vectors produced by pass  0 Test12= 6.28D-15 2.56D-09 XBig12= 1.24D+03 3.42D+01.
 AX will form    36 AO Fock derivatives at one time.
     36 vectors produced by pass  1 Test12= 6.28D-15 2.56D-09 XBig12= 3.26D+02 5.93D+00.
     36 vectors produced by pass  2 Test12= 6.28D-15 2.56D-09 XBig12= 3.68D+00 4.28D-01.
     36 vectors produced by pass  3 Test12= 6.28D-15 2.56D-09 XBig12= 1.77D-02 3.02D-02.
     36 vectors produced by pass  4 Test12= 6.28D-15 2.56D-09 XBig12= 2.83D-05 7.15D-04.
     30 vectors produced by pass  5 Test12= 6.28D-15 2.56D-09 XBig12= 2.91D-08 2.13D-05.
      5 vectors produced by pass  6 Test12= 6.28D-15 2.56D-09 XBig12= 2.34D-11 4.62D-07.
      3 vectors produced by pass  7 Test12= 6.28D-15 2.56D-09 XBig12= 1.65D-14 1.91D-08.
 InvSVY:  IOpt=1 It=  1 EMax= 7.11D-15
 Solved reduced A of dimension   218 with    39 vectors.
 Isotropic polarizability for W=    0.000000       83.50 Bohr**3.
 End of Minotr F.D. properties file   721 does not exist.
 End of Minotr F.D. properties file   722 does not exist.
 End of Minotr F.D. properties file   788 does not exist.
 Calling FoFJK, ICntrl=    100127 FMM=F ISym2X=0 I1Cent= 0 IOpClX= 0 NMat=1 NMatS=1 NMatT=0.
 ***** Axes restored to original set *****
 -------------------------------------------------------------------
 Center     Atomic                   Forces (Hartrees/Bohr)
 Number     Number              X              Y              Z
 -------------------------------------------------------------------
      1        6          -0.009537767   -0.040519188   -0.006033726
      2        6           0.033792448   -0.019331393    0.046038497
      3        6          -0.010823162   -0.016617272   -0.019382439
      4        8           0.046533329    0.040916259   -0.033346529
      5        8          -0.024433202   -0.027336154    0.007593110
      6        8           0.006681748    0.022370321    0.018834501
      7        1           0.015724277    0.014060154   -0.017038322
      8        1          -0.019490293    0.027997061   -0.021999102
      9        1          -0.000452299   -0.009895964    0.021674891
     10        1          -0.020052236   -0.000655701   -0.003157984
     11        1          -0.012256610   -0.010533245    0.009665496
     12        1          -0.005686235    0.019545123   -0.002848392
 -------------------------------------------------------------------
 Cartesian Forces:  Max     0.046533329 RMS     0.022090034
 FormGI is forming the generalized inverse of G from B-inverse, IUseBI=4.

 GradGradGradGradGradGradGradGradGradGradGradGradGradGradGradGradGradGrad
 Berny optimization.
 Internal  Forces:  Max     0.072007824 RMS     0.020983058
 Search for a saddle point.
 Step number   2 out of a maximum of  100
 All quantities printed in internal units (Hartrees-Bohrs-Radians)
 Swapping is turned off.
 Second derivative matrix not updated -- analytic derivatives used.
 ITU=  0  0
     Eigenvalues ---   -0.12260  -0.04127  -0.00112   0.00292   0.00552
     Eigenvalues ---    0.01276   0.01507   0.02283   0.04067   0.05255
     Eigenvalues ---    0.06448   0.07093   0.08441   0.09828   0.11538
     Eigenvalues ---    0.12808   0.13830   0.16483   0.17371   0.20640
     Eigenvalues ---    0.29897   0.31539   0.33046   0.35373   0.35767
     Eigenvalues ---    0.35941   0.41608   0.51009   0.57654   0.90780
 Eigenvectors required to have negative eigenvalues:
                          R2        A13       R7        D13       D3
   1                    0.63658   0.35217  -0.33451   0.20623  -0.20122
                          D17       D16       R1        D18       D7
   1                   -0.17630  -0.16797  -0.16320   0.16288  -0.16149
 RFO step:  Lambda0=1.935868649D-04 Lambda=-7.86705271D-02.
 Linear search not attempted -- option 19 set.
 Maximum step size (   0.300) exceeded in Quadratic search.
    -- Step size scaled by   0.454
 Iteration  1 RMS(Cart)=  0.14835591 RMS(Int)=  0.00968875
 Iteration  2 RMS(Cart)=  0.01305069 RMS(Int)=  0.00177741
 Iteration  3 RMS(Cart)=  0.00009853 RMS(Int)=  0.00177579
 Iteration  4 RMS(Cart)=  0.00000013 RMS(Int)=  0.00177579
 Variable       Old X    -DE/DX   Delta X   Delta X   Delta X     New X
                                 (Linear)    (Quad)   (Total)
    R1        2.69962   0.02305   0.00000  -0.00086  -0.00086   2.69876
    R2        3.06928   0.02315   0.00000   0.04503   0.04503   3.11431
    R3        2.05753   0.00876   0.00000   0.00687   0.00687   2.06440
    R4        2.06890   0.00505   0.00000   0.00097   0.00097   2.06987
    R5        2.05403   0.00732   0.00000   0.00002   0.00002   2.05405
    R6        2.00790   0.01612   0.00000   0.01652   0.01652   2.02442
    R7        3.30026   0.00217   0.00000  -0.10916  -0.10916   3.19111
    R8        2.24294  -0.01516   0.00000  -0.00910  -0.00910   2.23384
    R9        2.04410   0.01273   0.00000   0.01048   0.01048   2.05458
   R10        2.70100  -0.00028   0.00000  -0.00274  -0.00274   2.69826
   R11        1.79860   0.02503   0.00000   0.01723   0.01723   1.81583
    A1        1.70300   0.07201   0.00000   0.04471   0.04484   1.74783
    A2        2.28916  -0.01580   0.00000   0.00870   0.00823   2.29739
    A3        2.04221  -0.01777   0.00000  -0.03180  -0.03238   2.00983
    A4        2.03951  -0.05749   0.00000  -0.09059  -0.09052   1.94898
    A5        1.57094  -0.00360   0.00000   0.01900   0.02004   1.59098
    A6        1.70275   0.01833   0.00000   0.04274   0.04374   1.74649
    A7        1.82131   0.02940   0.00000   0.06189   0.06215   1.88345
    A8        2.25430  -0.02689   0.00000  -0.05341  -0.05317   2.20112
    A9        1.98627  -0.00238   0.00000   0.01313   0.01344   1.99971
   A10        2.32509  -0.04011   0.00000  -0.11089  -0.10960   2.21549
   A11        1.57462   0.02508   0.00000   0.08816   0.08968   1.66430
   A12        2.15566   0.01459   0.00000   0.04414   0.04601   2.20166
   A13        2.13117  -0.02098   0.00000  -0.17077  -0.17264   1.95854
   A14        1.86423   0.02824   0.00000   0.03507   0.02812   1.89235
   A15        1.91659  -0.01398   0.00000  -0.00457  -0.00977   1.90682
   A16        1.81832  -0.01753   0.00000  -0.03296  -0.03296   1.78536
    D1        2.41029   0.00949   0.00000  -0.05484  -0.05503   2.35526
    D2       -1.46045   0.01467   0.00000  -0.00666  -0.00695  -1.46739
    D3       -1.49609  -0.00630   0.00000  -0.13901  -0.13908  -1.63516
    D4        0.91636  -0.00112   0.00000  -0.09082  -0.09100   0.82536
    D5        0.77149  -0.02088   0.00000  -0.09431  -0.09389   0.67760
    D6       -3.09924  -0.01570   0.00000  -0.04612  -0.04582   3.13813
    D7       -1.26932   0.01395   0.00000   0.12913   0.12821  -1.14111
    D8        0.95453   0.00431   0.00000   0.01132   0.01205   0.96658
    D9        2.49629   0.01478   0.00000   0.15378   0.15222   2.64851
   D10       -1.56305   0.00515   0.00000   0.03597   0.03607  -1.52698
   D11        0.77740   0.00039   0.00000   0.10289   0.10289   0.88030
   D12        3.00125  -0.00924   0.00000  -0.01492  -0.01326   2.98799
   D13       -0.82341   0.01130   0.00000  -0.04510  -0.04287  -0.86628
   D14       -3.02405   0.00280   0.00000   0.06176   0.05846  -2.96560
   D15        3.02386  -0.00641   0.00000  -0.12814  -0.12483   2.89903
   D16        0.82322  -0.01491   0.00000  -0.02128  -0.02351   0.79971
   D17        1.57250   0.01117   0.00000   0.12913   0.13178   1.70428
   D18       -2.36584  -0.00468   0.00000  -0.07099  -0.07364  -2.43948
         Item               Value     Threshold  Converged?
 Maximum Force            0.072008     0.000450     NO 
 RMS     Force            0.020983     0.000300     NO 
 Maximum Displacement     0.449031     0.001800     NO 
 RMS     Displacement     0.151788     0.001200     NO 
 Predicted change in Energy=-3.547842D-02
 GradGradGradGradGradGradGradGradGradGradGradGradGradGradGradGradGradGrad

                          Input orientation:                          
 ---------------------------------------------------------------------
 Center     Atomic      Atomic             Coordinates (Angstroms)
 Number     Number       Type             X           Y           Z
 ---------------------------------------------------------------------
      1          6           0        1.862509    1.554282   -0.946449
      2          6           0        0.794190    1.331400   -0.025279
      3          6           0        0.617964   -0.380994   -2.488463
      4          8           0        1.091552    1.235391   -2.367683
      5          8           0       -0.062600    2.071762   -2.452539
      6          8           0        1.289004   -1.334354   -2.293116
      7          1           0        0.250775    2.798150   -2.997956
      8          1           0        2.572573    2.378149   -1.048753
      9          1           0        2.534982    0.702451   -1.094476
     10          1           0       -0.049087   -0.228468   -3.333367
     11          1           0        1.182005    0.739125    0.799516
     12          1           0        0.040609    2.040797    0.251318
 ---------------------------------------------------------------------
                    Distance matrix (angstroms):
                    1          2          3          4          5
     1  C    0.000000
     2  C    1.428123   0.000000
     3  C    2.769836   3.005099   0.000000
     4  O    1.648021   2.363154   1.688661   0.000000
     5  O    2.498426   2.678398   2.545677   1.427859   0.000000
     6  O    3.238307   3.534709   1.182095   2.578398   3.667952
     7  H    2.890255   3.359086   3.240581   1.883179   0.960897
     8  H    1.092435   2.303438   3.675070   2.288864   3.001437
     9  H    1.095330   2.137549   2.606149   1.997141   3.235240
    10  H    3.539742   3.753365   1.087237   2.092005   2.463148
    11  H    2.043517   1.086958   3.519036   3.207119   3.728381
    12  H    2.233979   1.071277   3.702001   2.934677   2.706003
                    6          7          8          9         10
     6  O    0.000000
     7  H    4.318831   0.000000
     8  H    4.120518   3.060480   0.000000
     9  H    2.671661   3.637690   1.676744   0.000000
    10  H    2.023757   3.059875   4.345920   3.543537   0.000000
    11  H    3.724934   4.419000   2.834815   2.327895   4.419564
    12  H    4.407298   3.342983   2.866153   3.134363   4.243533
                   11         12
    11  H    0.000000
    12  H    1.815945   0.000000
 Stoichiometry    C3H6O3
 Framework group  C1[X(C3H6O3)]
 Deg. of freedom    30
 Full point group                 C1      NOp   1
 Largest Abelian subgroup         C1      NOp   1
 Largest concise Abelian subgroup C1      NOp   1
                         Standard orientation:                         
 ---------------------------------------------------------------------
 Center     Atomic      Atomic             Coordinates (Angstroms)
 Number     Number       Type             X           Y           Z
 ---------------------------------------------------------------------
      1          6           0       -0.984259   -0.821306    0.669782
      2          6           0       -1.246837   -1.138022   -0.697799
      3          6           0        1.375990    0.269439   -0.284939
      4          8           0       -0.099781    0.556779    0.483898
      5          8           0       -0.862655    1.481417   -0.291893
      6          8           0        2.171459   -0.560056   -0.008325
      7          1           0       -1.253006    2.042177    0.383752
      8          1           0       -1.641357   -0.764478    1.540648
      9          1           0       -0.125866   -1.339143    1.111092
     10          1           0        1.586503    1.315278   -0.494679
     11          1           0       -1.068559   -2.201461   -0.834886
     12          1           0       -2.039271   -0.738161   -1.297627
 ---------------------------------------------------------------------
 Rotational constants (GHZ):           4.7351004           2.8629268           2.1434137
 Standard basis: 6-31+G(d) (6D, 7F)
 There are   126 symmetry adapted cartesian basis functions of A   symmetry.
 There are   126 symmetry adapted basis functions of A   symmetry.
   126 basis functions,   216 primitive gaussians,   126 cartesian basis functions
    24 alpha electrons       24 beta electrons
       nuclear repulsion energy       242.0374055769 Hartrees.
 NAtoms=   12 NActive=   12 NUniq=   12 SFac= 1.00D+00 NAtFMM=   60 NAOKFM=F Big=F
 Integral buffers will be    131072 words long.
 Raffenetti 2 integral format.
 Two-electron integral symmetry is turned on.
 One-electron integrals computed using PRISM.
 NBasis=   126 RedAO= T EigKep=  1.39D-04  NBF=   126
 NBsUse=   126 1.00D-06 EigRej= -1.00D+00 NBFU=   126
 Initial guess from the checkpoint file:  "/scratch/bell/zhao922/YARP/paper-example/KHP-network/pp_0/TS-folder/Gau-3473.chk"
 B after Tr=    -0.000000   -0.000000   -0.000000
         Rot=    0.999032    0.026925    0.002878   -0.034662 Ang=   5.04 deg.
 ExpMin= 4.38D-02 ExpMax= 5.48D+03 ExpMxC= 8.25D+02 IAcc=3 IRadAn=         5 AccDes= 0.00D+00
 Harris functional with IExCor=  402 and IRadAn=       5 diagonalized for initial guess.
 HarFok:  IExCor=  402 AccDes= 0.00D+00 IRadAn=         5 IDoV= 1 UseB2=F ITyADJ=14
 ICtDFT=  3500011 ScaDFX=  1.000000  1.000000  1.000000  1.000000
 FoFCou: FMM=F IPFlag=           0 FMFlag=      100000 FMFlg1=           0
         NFxFlg=           0 DoJE=T BraDBF=F KetDBF=T FulRan=T
         wScrn=  0.000000 ICntrl=       500 IOpCl=  0 I1Cent=   200000004 NGrid=           0
         NMat0=    1 NMatS0=      1 NMatT0=    0 NMatD0=    1 NMtDS0=    0 NMtDT0=    0
 Petite list used in FoFCou.
 Keep R1 ints in memory in canonical form, NReq=47237537.
 Requested convergence on RMS density matrix=1.00D-08 within 128 cycles.
 Requested convergence on MAX density matrix=1.00D-06.
 Requested convergence on             energy=1.00D-06.
 No special actions if energy rises.
 SCF Done:  E(RB3LYP) =  -343.307222611     A.U. after   15 cycles
            NFock= 15  Conv=0.59D-08     -V/T= 2.0088
 DoSCS=F DFT=T ScalE2(SS,OS)=  1.000000  1.000000
 Range of M.O.s used for correlation:     1   126
 NBasis=   126 NAE=    24 NBE=    24 NFC=     0 NFV=     0
 NROrb=    126 NOA=    24 NOB=    24 NVA=   102 NVB=   102

 **** Warning!!: The largest alpha MO coefficient is  0.26883754D+02


 **** Warning!!: The smallest alpha delta epsilon is  0.71831669D-01

 Symmetrizing basis deriv contribution to polar:
 IMax=3 JMax=2 DiffMx= 0.00D+00
 G2DrvN: will do    13 centers at a time, making    1 passes.
 Calling FoFCou, ICntrl=  3107 FMM=F I1Cent=   0 AccDes= 0.00D+00.
 End of G2Drv F.D. properties file   721 does not exist.
 End of G2Drv F.D. properties file   722 does not exist.
 End of G2Drv F.D. properties file   788 does not exist.
          IDoAtm=111111111111
          Differentiating once with respect to electric field.
                with respect to dipole field.
          Differentiating once with respect to nuclear coordinates.
 Keep R1 ints in memory in canonical form, NReq=47193559.
          There are    39 degrees of freedom in the 1st order CPHF.  IDoFFX=6 NUNeed=     3.
     36 vectors produced by pass  0 Test12= 6.28D-15 2.56D-09 XBig12= 5.64D+02 2.23D+01.
 AX will form    36 AO Fock derivatives at one time.
     36 vectors produced by pass  1 Test12= 6.28D-15 2.56D-09 XBig12= 1.18D+02 3.55D+00.
     36 vectors produced by pass  2 Test12= 6.28D-15 2.56D-09 XBig12= 1.25D+00 2.75D-01.
     36 vectors produced by pass  3 Test12= 6.28D-15 2.56D-09 XBig12= 5.91D-03 1.80D-02.
     36 vectors produced by pass  4 Test12= 6.28D-15 2.56D-09 XBig12= 8.38D-06 3.92D-04.
     30 vectors produced by pass  5 Test12= 6.28D-15 2.56D-09 XBig12= 7.95D-09 1.31D-05.
      4 vectors produced by pass  6 Test12= 6.28D-15 2.56D-09 XBig12= 7.43D-12 2.94D-07.
      3 vectors produced by pass  7 Test12= 6.28D-15 2.56D-09 XBig12= 5.96D-15 1.20D-08.
 InvSVY:  IOpt=1 It=  1 EMax= 3.55D-15
 Solved reduced A of dimension   217 with    39 vectors.
 Isotropic polarizability for W=    0.000000       77.78 Bohr**3.
 End of Minotr F.D. properties file   721 does not exist.
 End of Minotr F.D. properties file   722 does not exist.
 End of Minotr F.D. properties file   788 does not exist.
 Calling FoFJK, ICntrl=    100127 FMM=F ISym2X=0 I1Cent= 0 IOpClX= 0 NMat=1 NMatS=1 NMatT=0.
 ***** Axes restored to original set *****
 -------------------------------------------------------------------
 Center     Atomic                   Forces (Hartrees/Bohr)
 Number     Number              X              Y              Z
 -------------------------------------------------------------------
      1        6          -0.002107358   -0.033333793    0.004675715
      2        6           0.021815173   -0.014974485    0.025445359
      3        6          -0.008235883    0.000417876   -0.010718439
      4        8           0.037814023    0.022997986   -0.029375936
      5        8          -0.017493241   -0.015933944    0.006330297
      6        8           0.006485524    0.014709182    0.010269194
      7        1           0.009876934    0.007438503   -0.011351991
      8        1          -0.019834530    0.022138588   -0.017193363
      9        1           0.000016188   -0.006383983    0.015363650
     10        1          -0.016921257   -0.002454769    0.002766719
     11        1          -0.009779743   -0.008592068    0.004233741
     12        1          -0.001635831    0.013970908   -0.000444945
 -------------------------------------------------------------------
 Cartesian Forces:  Max     0.037814023 RMS     0.015702702
 FormGI is forming the generalized inverse of G from B-inverse, IUseBI=4.

 GradGradGradGradGradGradGradGradGradGradGradGradGradGradGradGradGradGrad
 Berny optimization.
 Internal  Forces:  Max     0.044660491 RMS     0.014549802
 Search for a saddle point.
 Step number   3 out of a maximum of  100
 All quantities printed in internal units (Hartrees-Bohrs-Radians)
 Swapping is turned off.
 Second derivative matrix not updated -- analytic derivatives used.
 ITU=  0  0  0
     Eigenvalues ---   -0.15648  -0.02003   0.00383   0.00500   0.00833
     Eigenvalues ---    0.01322   0.01810   0.03354   0.04282   0.05606
     Eigenvalues ---    0.07334   0.07760   0.08579   0.09589   0.11815
     Eigenvalues ---    0.13253   0.13955   0.17459   0.17558   0.19594
     Eigenvalues ---    0.26294   0.32879   0.33252   0.34694   0.35152
     Eigenvalues ---    0.35891   0.39559   0.47459   0.54168   0.93900
 Eigenvectors required to have negative eigenvalues:
                          R2        R7        A13       D13       R1
   1                   -0.65529   0.34798  -0.33144  -0.22604   0.17754
                          D17       D3        D18       D7        D16
   1                    0.17666   0.16819  -0.16660   0.15626   0.15221
 RFO step:  Lambda0=5.910078984D-04 Lambda=-5.53623928D-02.
 Linear search not attempted -- option 19 set.
 Maximum step size (   0.300) exceeded in Quadratic search.
    -- Step size scaled by   0.428
 Iteration  1 RMS(Cart)=  0.15854257 RMS(Int)=  0.01162337
 Iteration  2 RMS(Cart)=  0.01541497 RMS(Int)=  0.00221075
 Iteration  3 RMS(Cart)=  0.00018722 RMS(Int)=  0.00220470
 Iteration  4 RMS(Cart)=  0.00000015 RMS(Int)=  0.00220470
 Variable       Old X    -DE/DX   Delta X   Delta X   Delta X     New X
                                 (Linear)    (Quad)   (Total)
    R1        2.69876   0.01257   0.00000  -0.00607  -0.00607   2.69269
    R2        3.11431   0.01702   0.00000   0.08223   0.08223   3.19653
    R3        2.06440   0.00541   0.00000   0.00398   0.00398   2.06839
    R4        2.06987   0.00290   0.00000  -0.00206  -0.00206   2.06781
    R5        2.05405   0.00441   0.00000   0.00115   0.00115   2.05520
    R6        2.02442   0.01029   0.00000   0.01130   0.01130   2.03572
    R7        3.19111  -0.00706   0.00000  -0.13273  -0.13273   3.05838
    R8        2.23384  -0.00648   0.00000   0.00304   0.00304   2.23687
    R9        2.05458   0.00789   0.00000   0.00549   0.00549   2.06007
   R10        2.69826   0.00148   0.00000   0.00373   0.00373   2.70199
   R11        1.81583   0.01529   0.00000   0.01071   0.01071   1.82654
    A1        1.74783   0.04466   0.00000   0.00094   0.00086   1.74869
    A2        2.29739  -0.00826   0.00000   0.02137   0.02016   2.31755
    A3        2.00983  -0.01272   0.00000  -0.02328  -0.02360   1.98623
    A4        1.94898  -0.03914   0.00000  -0.06450  -0.06428   1.88470
    A5        1.59098   0.00116   0.00000   0.02201   0.02237   1.61335
    A6        1.74649   0.01361   0.00000   0.03678   0.03719   1.78368
    A7        1.88345   0.02081   0.00000   0.04208   0.04224   1.92569
    A8        2.20112  -0.01908   0.00000  -0.04277  -0.04262   2.15850
    A9        1.99971  -0.00102   0.00000   0.00397   0.00417   2.00388
   A10        2.21549  -0.02807   0.00000  -0.07939  -0.07899   2.13650
   A11        1.66430   0.02156   0.00000   0.08892   0.08935   1.75365
   A12        2.20166   0.01084   0.00000   0.02190   0.02243   2.22409
   A13        1.95854  -0.02083   0.00000  -0.19449  -0.19759   1.76095
   A14        1.89235   0.01730   0.00000   0.01001   0.00160   1.89395
   A15        1.90682  -0.00794   0.00000  -0.01033  -0.01800   1.88882
   A16        1.78536  -0.01154   0.00000  -0.02438  -0.02438   1.76097
    D1        2.35526   0.00648   0.00000  -0.00465  -0.00439   2.35087
    D2       -1.46739   0.01000   0.00000   0.00789   0.00808  -1.45931
    D3       -1.63516  -0.00791   0.00000  -0.09013  -0.09046  -1.72563
    D4        0.82536  -0.00439   0.00000  -0.07759  -0.07799   0.74737
    D5        0.67760  -0.01385   0.00000  -0.02459  -0.02441   0.65319
    D6        3.13813  -0.01034   0.00000  -0.01204  -0.01194   3.12619
    D7       -1.14111   0.01182   0.00000   0.11934   0.11801  -1.02310
    D8        0.96658   0.00040   0.00000  -0.00951  -0.00708   0.95951
    D9        2.64851   0.01519   0.00000   0.14254   0.13973   2.78824
   D10       -1.52698   0.00377   0.00000   0.01369   0.01464  -1.51234
   D11        0.88030   0.00393   0.00000   0.10024   0.09874   0.97903
   D12        2.98799  -0.00749   0.00000  -0.02861  -0.02635   2.96164
   D13       -0.86628   0.00572   0.00000  -0.10544  -0.10228  -0.96856
   D14       -2.96560   0.00275   0.00000   0.01401   0.01055  -2.95504
   D15        2.89903  -0.00984   0.00000  -0.17384  -0.17039   2.72864
   D16        0.79971  -0.01281   0.00000  -0.05439  -0.05756   0.74215
   D17        1.70428   0.01226   0.00000   0.13171   0.13378   1.83806
   D18       -2.43948  -0.00735   0.00000  -0.10696  -0.10903  -2.54851
         Item               Value     Threshold  Converged?
 Maximum Force            0.044660     0.000450     NO 
 RMS     Force            0.014550     0.000300     NO 
 Maximum Displacement     0.487157     0.001800     NO 
 RMS     Displacement     0.163162     0.001200     NO 
 Predicted change in Energy=-2.602636D-02
 GradGradGradGradGradGradGradGradGradGradGradGradGradGradGradGradGradGrad

                          Input orientation:                          
 ---------------------------------------------------------------------
 Center     Atomic      Atomic             Coordinates (Angstroms)
 Number     Number       Type             X           Y           Z
 ---------------------------------------------------------------------
      1          6           0        1.874691    1.511973   -0.967609
      2          6           0        0.785187    1.214078   -0.098927
      3          6           0        0.643586   -0.240484   -2.356388
      4          8           0        1.126417    1.300073   -2.469763
      5          8           0       -0.036437    2.130596   -2.518958
      6          8           0        1.393054   -1.124097   -2.114151
      7          1           0        0.268444    2.837404   -3.103518
      8          1           0        2.551113    2.369009   -1.044881
      9          1           0        2.551118    0.667920   -1.133078
     10          1           0       -0.175655   -0.244892   -3.075574
     11          1           0        1.110202    0.554561    0.702449
     12          1           0        0.032756    1.931551    0.183151
 ---------------------------------------------------------------------
                    Distance matrix (angstroms):
                    1          2          3          4          5
     1  C    0.000000
     2  C    1.424911   0.000000
     3  C    2.552535   2.689225   0.000000
     4  O    1.691532   2.396809   1.618424   0.000000
     5  O    2.538068   2.715073   2.472020   1.429831   0.000000
     6  O    2.914687   3.146060   1.183702   2.464580   3.577756
     7  H    2.983103   3.453951   3.189409   1.871136   0.966561
     8  H    1.094544   2.312398   3.488289   2.280937   2.987500
     9  H    1.094239   2.118082   2.441385   2.053319   3.279562
    10  H    3.425495   3.451412   1.090140   2.109340   2.443797
    11  H    2.071274   1.087566   3.194732   3.258677   3.765119
    12  H    2.212017   1.077259   3.397074   2.938165   2.710314
                    6          7          8          9         10
     6  O    0.000000
     7  H    4.235220   0.000000
     8  H    3.832262   3.109334   0.000000
     9  H    2.348392   3.714821   1.703374   0.000000
    10  H    2.039162   3.114250   4.288526   3.470131   0.000000
    11  H    3.291069   4.517224   2.902000   2.336289   4.070137
    12  H    4.057708   3.417355   2.835763   3.109882   3.924237
                   11         12
    11  H    0.000000
    12  H    1.823913   0.000000
 Stoichiometry    C3H6O3
 Framework group  C1[X(C3H6O3)]
 Deg. of freedom    30
 Full point group                 C1      NOp   1
 Largest Abelian subgroup         C1      NOp   1
 Largest concise Abelian subgroup C1      NOp   1
                         Standard orientation:                         
 ---------------------------------------------------------------------
 Center     Atomic      Atomic             Coordinates (Angstroms)
 Number     Number       Type             X           Y           Z
 ---------------------------------------------------------------------
      1          6           0       -0.655856   -1.004136    0.677914
      2          6           0       -0.743026   -1.379304   -0.693954
      3          6           0        1.143808    0.501430   -0.327032
      4          8           0       -0.231984    0.625428    0.516245
      5          8           0       -1.206216    1.268220   -0.309653
      6          8           0        2.058419   -0.152248    0.043564
      7          1           0       -1.703004    1.769882    0.350483
      8          1           0       -1.352146   -1.090495    1.518002
      9          1           0        0.301577   -1.255212    1.144436
     10          1           0        1.179100    1.485577   -0.794594
     11          1           0       -0.239182   -2.328917   -0.858808
     12          1           0       -1.617654   -1.219973   -1.302333
 ---------------------------------------------------------------------
 Rotational constants (GHZ):           4.5747698           3.2899649           2.3662057
 Standard basis: 6-31+G(d) (6D, 7F)
 There are   126 symmetry adapted cartesian basis functions of A   symmetry.
 There are   126 symmetry adapted basis functions of A   symmetry.
   126 basis functions,   216 primitive gaussians,   126 cartesian basis functions
    24 alpha electrons       24 beta electrons
       nuclear repulsion energy       246.7997884228 Hartrees.
 NAtoms=   12 NActive=   12 NUniq=   12 SFac= 1.00D+00 NAtFMM=   60 NAOKFM=F Big=F
 Integral buffers will be    131072 words long.
 Raffenetti 2 integral format.
 Two-electron integral symmetry is turned on.
 One-electron integrals computed using PRISM.
 NBasis=   126 RedAO= T EigKep=  1.25D-04  NBF=   126
 NBsUse=   126 1.00D-06 EigRej= -1.00D+00 NBFU=   126
 Initial guess from the checkpoint file:  "/scratch/bell/zhao922/YARP/paper-example/KHP-network/pp_0/TS-folder/Gau-3473.chk"
 B after Tr=     0.000000    0.000000    0.000000
         Rot=    0.992725    0.012540    0.003452   -0.119698 Ang=  13.83 deg.
 ExpMin= 4.38D-02 ExpMax= 5.48D+03 ExpMxC= 8.25D+02 IAcc=3 IRadAn=         5 AccDes= 0.00D+00
 Harris functional with IExCor=  402 and IRadAn=       5 diagonalized for initial guess.
 HarFok:  IExCor=  402 AccDes= 0.00D+00 IRadAn=         5 IDoV= 1 UseB2=F ITyADJ=14
 ICtDFT=  3500011 ScaDFX=  1.000000  1.000000  1.000000  1.000000
 FoFCou: FMM=F IPFlag=           0 FMFlag=      100000 FMFlg1=           0
         NFxFlg=           0 DoJE=T BraDBF=F KetDBF=T FulRan=T
         wScrn=  0.000000 ICntrl=       500 IOpCl=  0 I1Cent=   200000004 NGrid=           0
         NMat0=    1 NMatS0=      1 NMatT0=    0 NMatD0=    1 NMtDS0=    0 NMtDT0=    0
 Petite list used in FoFCou.
 Keep R1 ints in memory in canonical form, NReq=47237537.
 Requested convergence on RMS density matrix=1.00D-08 within 128 cycles.
 Requested convergence on MAX density matrix=1.00D-06.
 Requested convergence on             energy=1.00D-06.
 No special actions if energy rises.
 SCF Done:  E(RB3LYP) =  -343.332095079     A.U. after   14 cycles
            NFock= 14  Conv=0.75D-08     -V/T= 2.0088
 DoSCS=F DFT=T ScalE2(SS,OS)=  1.000000  1.000000
 Range of M.O.s used for correlation:     1   126
 NBasis=   126 NAE=    24 NBE=    24 NFC=     0 NFV=     0
 NROrb=    126 NOA=    24 NOB=    24 NVA=   102 NVB=   102

 **** Warning!!: The largest alpha MO coefficient is  0.30530978D+02


 **** Warning!!: The smallest alpha delta epsilon is  0.97431056D-01

 Symmetrizing basis deriv contribution to polar:
 IMax=3 JMax=2 DiffMx= 0.00D+00
 G2DrvN: will do    13 centers at a time, making    1 passes.
 Calling FoFCou, ICntrl=  3107 FMM=F I1Cent=   0 AccDes= 0.00D+00.
 End of G2Drv F.D. properties file   721 does not exist.
 End of G2Drv F.D. properties file   722 does not exist.
 End of G2Drv F.D. properties file   788 does not exist.
          IDoAtm=111111111111
          Differentiating once with respect to electric field.
                with respect to dipole field.
          Differentiating once with respect to nuclear coordinates.
 Keep R1 ints in memory in canonical form, NReq=47193559.
          There are    39 degrees of freedom in the 1st order CPHF.  IDoFFX=6 NUNeed=     3.
     36 vectors produced by pass  0 Test12= 6.28D-15 2.56D-09 XBig12= 1.93D+02 1.17D+01.
 AX will form    36 AO Fock derivatives at one time.
     36 vectors produced by pass  1 Test12= 6.28D-15 2.56D-09 XBig12= 4.35D+01 1.61D+00.
     36 vectors produced by pass  2 Test12= 6.28D-15 2.56D-09 XBig12= 5.10D-01 1.51D-01.
     36 vectors produced by pass  3 Test12= 6.28D-15 2.56D-09 XBig12= 2.85D-03 7.17D-03.
     36 vectors produced by pass  4 Test12= 6.28D-15 2.56D-09 XBig12= 4.30D-06 2.89D-04.
     28 vectors produced by pass  5 Test12= 6.28D-15 2.56D-09 XBig12= 4.52D-09 1.01D-05.
      4 vectors produced by pass  6 Test12= 6.28D-15 2.56D-09 XBig12= 4.10D-12 3.60D-07.
      3 vectors produced by pass  7 Test12= 6.28D-15 2.56D-09 XBig12= 3.31D-15 6.77D-09.
 InvSVY:  IOpt=1 It=  1 EMax= 2.66D-15
 Solved reduced A of dimension   215 with    39 vectors.
 Isotropic polarizability for W=    0.000000       69.47 Bohr**3.
 End of Minotr F.D. properties file   721 does not exist.
 End of Minotr F.D. properties file   722 does not exist.
 End of Minotr F.D. properties file   788 does not exist.
 Calling FoFJK, ICntrl=    100127 FMM=F ISym2X=0 I1Cent= 0 IOpClX= 0 NMat=1 NMatS=1 NMatT=0.
 ***** Axes restored to original set *****
 -------------------------------------------------------------------
 Center     Atomic                   Forces (Hartrees/Bohr)
 Number     Number              X              Y              Z
 -------------------------------------------------------------------
      1        6           0.006539274   -0.024405440    0.012141791
      2        6           0.012218680   -0.009092159    0.013544761
      3        6          -0.012210106    0.003600577   -0.001605248
      4        8           0.031564295    0.013945884   -0.026015626
      5        8          -0.011971103   -0.008358061    0.004175480
      6        8           0.007825568    0.005067916   -0.000157237
      7        1           0.005589459    0.003939011   -0.007711102
      8        1          -0.019522877    0.018107570   -0.013090162
      9        1           0.000361355   -0.003172417    0.010549939
     10        1          -0.012701477   -0.001445148    0.006958913
     11        1          -0.007928080   -0.007938514    0.000117920
     12        1           0.000235010    0.009750780    0.001090572
 -------------------------------------------------------------------
 Cartesian Forces:  Max     0.031564295 RMS     0.011894399
 FormGI is forming the generalized inverse of G from B-inverse, IUseBI=4.

 GradGradGradGradGradGradGradGradGradGradGradGradGradGradGradGradGradGrad
 Berny optimization.
 Internal  Forces:  Max     0.024566961 RMS     0.009743773
 Search for a saddle point.
 Step number   4 out of a maximum of  100
 All quantities printed in internal units (Hartrees-Bohrs-Radians)
 Swapping is turned off.
 Second derivative matrix not updated -- analytic derivatives used.
 ITU=  0  0  0  0
     Eigenvalues ---   -0.20045  -0.01186   0.00438   0.00976   0.01368
     Eigenvalues ---    0.01885   0.02372   0.04310   0.05863   0.06604
     Eigenvalues ---    0.07582   0.08794   0.09318   0.11672   0.12812
     Eigenvalues ---    0.13716   0.14994   0.18038   0.18803   0.21356
     Eigenvalues ---    0.27217   0.33255   0.34277   0.34626   0.34961
     Eigenvalues ---    0.35871   0.38184   0.46746   0.52216   0.94078
 Eigenvectors required to have negative eigenvalues:
                          R2        R7        A13       D13       R1
   1                   -0.64035   0.35059  -0.32051  -0.24520   0.17866
                          D17       D18       A1        D7        D16
   1                    0.17595  -0.17053  -0.16714   0.16658   0.13574
 RFO step:  Lambda0=3.154854423D-04 Lambda=-4.15506460D-02.
 Linear search not attempted -- option 19 set.
 Maximum step size (   0.300) exceeded in Quadratic search.
    -- Step size scaled by   0.545
 Iteration  1 RMS(Cart)=  0.15329266 RMS(Int)=  0.01295729
 Iteration  2 RMS(Cart)=  0.01879398 RMS(Int)=  0.00245816
 Iteration  3 RMS(Cart)=  0.00026807 RMS(Int)=  0.00244740
 Iteration  4 RMS(Cart)=  0.00000036 RMS(Int)=  0.00244740
 Variable       Old X    -DE/DX   Delta X   Delta X   Delta X     New X
                                 (Linear)    (Quad)   (Total)
    R1        2.69269   0.00705   0.00000  -0.02385  -0.02385   2.66884
    R2        3.19653   0.01595   0.00000   0.19406   0.19406   3.39060
    R3        2.06839   0.00304   0.00000  -0.00323  -0.00323   2.06516
    R4        2.06781   0.00108   0.00000  -0.00518  -0.00518   2.06263
    R5        2.05520   0.00253   0.00000  -0.00087  -0.00087   2.05434
    R6        2.03572   0.00662   0.00000   0.00888   0.00888   2.04460
    R7        3.05838  -0.00141   0.00000  -0.01133  -0.01133   3.04705
    R8        2.23687   0.00114   0.00000   0.00877   0.00877   2.24564
    R9        2.06007   0.00496   0.00000   0.00527   0.00527   2.06534
   R10        2.70199   0.00274   0.00000   0.01067   0.01067   2.71266
   R11        1.82654   0.00931   0.00000   0.00658   0.00658   1.83311
    A1        1.74869   0.02438   0.00000  -0.02898  -0.02984   1.71886
    A2        2.31755  -0.00447   0.00000   0.00817   0.00513   2.32268
    A3        1.98623  -0.00792   0.00000  -0.00522  -0.00584   1.98039
    A4        1.88470  -0.02457   0.00000  -0.05538  -0.05599   1.82871
    A5        1.61335   0.00323   0.00000   0.01599   0.01625   1.62960
    A6        1.78368   0.01011   0.00000   0.05392   0.05368   1.83736
    A7        1.92569   0.01482   0.00000   0.05504   0.05461   1.98030
    A8        2.15850  -0.01308   0.00000  -0.02863  -0.02904   2.12945
    A9        2.00388  -0.00040   0.00000   0.01068   0.01017   2.01406
   A10        2.13650  -0.01645   0.00000  -0.04869  -0.04855   2.08796
   A11        1.75365   0.01450   0.00000   0.04836   0.04852   1.80217
   A12        2.22409   0.00549   0.00000   0.00502   0.00521   2.22930
   A13        1.76095  -0.01472   0.00000  -0.17567  -0.17990   1.58105
   A14        1.89395   0.00649   0.00000  -0.02414  -0.03251   1.86144
   A15        1.88882  -0.00610   0.00000  -0.03631  -0.04474   1.84408
   A16        1.76097  -0.00698   0.00000  -0.01278  -0.01278   1.74820
    D1        2.35087   0.00345   0.00000  -0.05495  -0.05491   2.29596
    D2       -1.45931   0.00672   0.00000   0.00879   0.00900  -1.45031
    D3       -1.72563  -0.00953   0.00000  -0.17536  -0.17578  -1.90140
    D4        0.74737  -0.00626   0.00000  -0.11162  -0.11187   0.63551
    D5        0.65319  -0.00968   0.00000  -0.05804  -0.05792   0.59527
    D6        3.12619  -0.00641   0.00000   0.00570   0.00599   3.13218
    D7       -1.02310   0.01024   0.00000   0.13289   0.13157  -0.89153
    D8        0.95951  -0.00086   0.00000   0.00490   0.00854   0.96805
    D9        2.78824   0.01478   0.00000   0.18305   0.17918   2.96742
   D10       -1.51234   0.00368   0.00000   0.05507   0.05616  -1.45618
   D11        0.97903   0.00598   0.00000   0.12726   0.12501   1.10404
   D12        2.96164  -0.00511   0.00000  -0.00072   0.00198   2.96362
   D13       -0.96856  -0.00306   0.00000  -0.19799  -0.19434  -1.16290
   D14       -2.95504  -0.00156   0.00000  -0.08011  -0.08387  -3.03891
   D15        2.72864  -0.01221   0.00000  -0.21284  -0.20909   2.51955
   D16        0.74215  -0.01070   0.00000  -0.09497  -0.09862   0.64354
   D17        1.83806   0.01040   0.00000   0.13922   0.13951   1.97756
   D18       -2.54851  -0.00639   0.00000  -0.09093  -0.09122  -2.63973
         Item               Value     Threshold  Converged?
 Maximum Force            0.024567     0.000450     NO 
 RMS     Force            0.009744     0.000300     NO 
 Maximum Displacement     0.639304     0.001800     NO 
 RMS     Displacement     0.159051     0.001200     NO 
 Predicted change in Energy=-2.391130D-02
 GradGradGradGradGradGradGradGradGradGradGradGradGradGradGradGradGradGrad

                          Input orientation:                          
 ---------------------------------------------------------------------
 Center     Atomic      Atomic             Coordinates (Angstroms)
 Number     Number       Type             X           Y           Z
 ---------------------------------------------------------------------
      1          6           0        1.914260    1.495439   -0.953083
      2          6           0        0.794130    1.120189   -0.179096
      3          6           0        0.657686   -0.142186   -2.224977
      4          8           0        1.174410    1.343238   -2.580568
      5          8           0        0.002310    2.171953   -2.578739
      6          8           0        1.447136   -1.014416   -2.057226
      7          1           0        0.271409    2.850486   -3.217612
      8          1           0        2.514770    2.407074   -1.004025
      9          1           0        2.617003    0.678237   -1.125404
     10          1           0       -0.305908   -0.201672   -2.737269
     11          1           0        1.021768    0.374751    0.578735
     12          1           0        0.015502    1.824596    0.082018
 ---------------------------------------------------------------------
[...]
    D2       -2.12691  -0.00000   0.00000   0.00002   0.00002  -2.12688
    D3       -2.87288   0.00000   0.00000   0.00001   0.00001  -2.87288
    D4       -0.36850   0.00000   0.00000   0.00001   0.00001  -0.36849
    D5        0.04391  -0.00000   0.00000   0.00000   0.00000   0.04392
    D6        2.54830  -0.00000   0.00000   0.00001   0.00001   2.54831
    D7        0.32139  -0.00000   0.00000  -0.00002  -0.00002   0.32136
    D8        2.32207   0.00000   0.00000   0.00001   0.00001   2.32208
    D9       -1.79446  -0.00000   0.00000  -0.00002  -0.00002  -1.79448
   D10        0.20623   0.00000   0.00000   0.00000   0.00000   0.20623
   D11        2.45331  -0.00000   0.00000  -0.00002  -0.00002   2.45329
   D12       -1.82919   0.00000   0.00000   0.00001   0.00001  -1.82918
   D13       -2.32399  -0.00000   0.00000   0.00003   0.00003  -2.32396
   D14        1.59839  -0.00000   0.00000   0.00004   0.00004   1.59843
   D15        1.54828   0.00000   0.00000   0.00002   0.00002   1.54830
   D16       -0.81253   0.00000   0.00000   0.00004   0.00004  -0.81249
   D17        2.52290  -0.00000   0.00000  -0.00002  -0.00002   2.52288
   D18       -1.94709   0.00000   0.00000  -0.00000  -0.00000  -1.94709
         Item               Value     Threshold  Converged?
 Maximum Force            0.000005     0.000450     YES
 RMS     Force            0.000001     0.000300     YES
 Maximum Displacement     0.000081     0.001800     YES
 RMS     Displacement     0.000031     0.001200     YES
 Predicted change in Energy=-1.554314D-10
 Optimization completed.
    -- Stationary point found.
                           ----------------------------
                           !   Optimized Parameters   !
                           ! (Angstroms and Degrees)  !
 --------------------------                            --------------------------
 ! Name  Definition              Value          Derivative Info.                !
 --------------------------------------------------------------------------------
 ! R1    R(1,2)                  1.4116         -DE/DX =    0.0                 !
 ! R2    R(1,4)                  1.9531         -DE/DX =    0.0                 !
 ! R3    R(1,8)                  1.0864         -DE/DX =    0.0                 !
 ! R4    R(1,9)                  1.0844         -DE/DX =    0.0                 !
 ! R5    R(2,11)                 1.0873         -DE/DX =    0.0                 !
 ! R6    R(2,12)                 1.0887         -DE/DX =    0.0                 !
 ! R7    R(3,4)                  1.6292         -DE/DX =    0.0                 !
 ! R8    R(3,6)                  1.2143         -DE/DX =    0.0                 !
 ! R9    R(3,10)                 1.1034         -DE/DX =    0.0                 !
 ! R10   R(4,5)                  1.4498         -DE/DX =    0.0                 !
 ! R11   R(5,7)                  0.9756         -DE/DX =    0.0                 !
 ! A1    A(2,1,4)               87.9351         -DE/DX =    0.0                 !
 ! A2    A(2,1,8)              121.0809         -DE/DX =    0.0                 !
 ! A3    A(2,1,9)              122.2043         -DE/DX =    0.0                 !
 ! A4    A(4,1,8)              100.267          -DE/DX =    0.0                 !
 ! A5    A(4,1,9)               92.9027         -DE/DX =    0.0                 !
 ! A6    A(8,1,9)              115.5511         -DE/DX =    0.0                 !
 ! A7    A(1,2,11)             117.6423         -DE/DX =    0.0                 !
 ! A8    A(1,2,12)             118.0412         -DE/DX =    0.0                 !
 ! A9    A(11,2,12)            114.2255         -DE/DX =    0.0                 !
 ! A10   A(4,3,6)              116.9452         -DE/DX =    0.0                 !
 ! A11   A(4,3,10)             101.3485         -DE/DX =    0.0                 !
 ! A12   A(6,3,10)             124.1758         -DE/DX =    0.0                 !
 ! A13   A(1,4,3)               84.9766         -DE/DX =    0.0                 !
 ! A14   A(1,4,5)              133.7595         -DE/DX =    0.0                 !
 ! A15   A(3,4,5)              111.1257         -DE/DX =    0.0                 !
 ! A16   A(4,5,7)              100.8535         -DE/DX =    0.0                 !
 ! D1    D(4,1,2,11)            94.6466         -DE/DX =    0.0                 !
 ! D2    D(4,1,2,12)          -121.8628         -DE/DX =    0.0                 !
 ! D3    D(8,1,2,11)          -164.604          -DE/DX =    0.0                 !
 ! D4    D(8,1,2,12)           -21.1134         -DE/DX =    0.0                 !
 ! D5    D(9,1,2,11)             2.5161         -DE/DX =    0.0                 !
 ! D6    D(9,1,2,12)           146.0066         -DE/DX =    0.0                 !
 ! D7    D(2,1,4,3)             18.4141         -DE/DX =    0.0                 !
 ! D8    D(2,1,4,5)            133.0448         -DE/DX =    0.0                 !
 ! D9    D(8,1,4,3)           -102.8148         -DE/DX =    0.0                 !
 ! D10   D(8,1,4,5)             11.8159         -DE/DX =    0.0                 !
 ! D11   D(9,1,4,3)            140.5645         -DE/DX =    0.0                 !
 ! D12   D(9,1,4,5)           -104.8048         -DE/DX =    0.0                 !
 ! D13   D(6,3,4,1)           -133.1546         -DE/DX =    0.0                 !
 ! D14   D(6,3,4,5)             91.5811         -DE/DX =    0.0                 !
 ! D15   D(10,3,4,1)            88.7097         -DE/DX =    0.0                 !
 ! D16   D(10,3,4,5)           -46.5546         -DE/DX =    0.0                 !
 ! D17   D(1,4,5,7)            144.5515         -DE/DX =    0.0                 !
 ! D18   D(3,4,5,7)           -111.56           -DE/DX =    0.0                 !
 --------------------------------------------------------------------------------
 GradGradGradGradGradGradGradGradGradGradGradGradGradGradGradGradGradGrad


 ----------------------------------------------------------------------

 Electric dipole moment (input orientation):
 (Debye = 10**-18 statcoulomb cm , SI units = C m)
                  (au)            (Debye)         (10**-30 SI)
   Tot        0.147172D+01      0.374074D+01      0.124778D+02
   x          0.696878D+00      0.177129D+01      0.590838D+01
   y          0.107737D+01      0.273840D+01      0.913433D+01
   z          0.720826D+00      0.183216D+01      0.611142D+01

 Dipole polarizability, Alpha (input orientation).
 (esu units = cm**3 , SI units = C**2 m**2 J**-1)
 Alpha(0;0):
               (au)            (10**-24 esu)      (10**-40 SI)
   iso        0.614175D+02      0.910113D+01      0.101264D+02
   aniso      0.285955D+02      0.423741D+01      0.471476D+01
   xx         0.513882D+02      0.761495D+01      0.847277D+01
   yx         0.972268D+01      0.144075D+01      0.160305D+01
   yy         0.634067D+02      0.939590D+01      0.104544D+02
   zx         0.965989D+01      0.143145D+01      0.159270D+01
   zy        -0.360864D+00     -0.534745D-01     -0.594984D-01
   zz         0.694576D+02      0.102926D+02      0.114520D+02

 ----------------------------------------------------------------------

 Dipole orientation:
     6          2.70672038          2.18820120          3.45136835
     6          1.92407376          0.47753721          1.56019560
     6          1.81059910          2.80629124         -1.01236459
     8          3.65009023          4.52767477          0.75721368
     8          3.21567230          7.19864061          0.32855075
     8          2.63205653          2.17296221         -3.05925136
     1          4.79708894          7.68103928         -0.48713409
     1          1.34430066          3.33578599          4.47210325
     1          4.60095092          2.16062897          4.23286060
     1         -0.02891102          3.74616166         -0.72829820
     1          3.27073277         -0.94847669          0.94825874
     1         -0.03099342         -0.16270639          1.58421798

 Electric dipole moment (dipole orientation):
 (Debye = 10**-18 statcoulomb cm , SI units = C m)
                  (au)            (Debye)         (10**-30 SI)
   Tot        0.147172D+01      0.374074D+01      0.124778D+02
   x          0.000000D+00      0.000000D+00      0.000000D+00
   y          0.000000D+00      0.000000D+00      0.000000D+00
   z          0.147172D+01      0.374074D+01      0.124778D+02

 Dipole polarizability, Alpha (dipole orientation).
 (esu units = cm**3 , SI units = C**2 m**2 J**-1)
 Alpha(0;0):
               (au)            (10**-24 esu)      (10**-40 SI)
   iso        0.614175D+02      0.910113D+01      0.101264D+02
   aniso      0.285955D+02      0.423741D+01      0.471476D+01
   xx         0.443959D+02      0.657879D+01      0.731990D+01
   yx         0.539269D+01      0.799115D+00      0.889135D+00
   yy         0.667308D+02      0.988848D+01      0.110024D+02
   zx         0.756895D+00      0.112160D+00      0.124795D+00
   zy        -0.392277D+01     -0.581295D+00     -0.646778D+00
   zz         0.731258D+02      0.108361D+02      0.120568D+02

 ----------------------------------------------------------------------
 1\1\GINC-BELL-A096\Freq\RB3LYP\6-31+G(d)\C3H6O3\ZHAO922\23-Dec-2020\0\
 \#N Geom=AllCheck Guess=TCheck SCRF=Check GenChk RB3LYP/6-31+G(d) Freq
 \\pp_7_0 TS\\0,1\C,1.8121593098,1.7451536081,-0.6313665015\C,1.1970837
 226,0.529292518,-0.262733405\C,0.2147305189,0.3357359026,-1.80318541\O
 ,1.2731070459,1.3780002908,-2.4723022209\O,0.6415444912,2.1704210667,-
 3.5092401986\O,0.1490909178,-0.7729252567,-2.2941968244\H,1.0886634236
 ,1.8231731783,-4.3037844537\H,1.3141737882,2.6971493251,-0.4699804729\
 H,2.8628980908,1.8053198939,-0.8927775268\H,-0.6567376793,0.9907215977
 ,-1.6327205843\H,1.8246995551,-0.3567396215,-0.2063577807\H,0.40306181
 54,0.5623874972,0.4813983788\\Version=ES64L-G16RevB.01\State=1-A\HF=-3
 43.4099686\RMSD=4.045e-09\RMSF=9.237e-07\ZeroPoint=0.0897122\Thermal=0
 .0964329\Dipole=0.6968781,1.077371,0.720826\DipoleDeriv=0.230681,-0.01
 11091,-0.0003665,0.2128407,0.5118906,-0.0621749,-0.2818659,-0.4880588,
 0.3742504,-0.4049819,-0.5245094,-0.2219826,-0.3541352,-0.3667203,-0.10
 44713,-0.435415,-0.3428018,-0.4363645,1.079635,0.5691549,0.1566376,0.3
 884417,1.5789959,0.2925441,0.5744295,0.7918158,1.0208616,-0.4234117,-0
 .1995463,0.2197451,-0.1120661,-0.3467246,-0.0490208,0.2884187,0.067630
 4,0.0709591,-0.188276,-0.0209908,-0.1562285,-0.0654724,-0.3095863,0.29
 8156,-0.0450119,0.4285948,-0.8537607,-0.5599983,-0.1453345,-0.0550383,
 -0.4210332,-1.3837259,-0.3888114,-0.2835702,-0.5663661,-0.6007957,0.26
 38387,0.1305881,-0.0635851,0.0719015,0.2193264,0.0031594,0.0305219,-0.
 0115344,0.2467988,0.0444666,0.0575585,-0.0064301,0.0230439,-0.0070892,
 -0.0161501,0.0138557,0.0221312,0.0313491,0.008642,-0.0053227,0.0209391
 ,-0.0009494,0.0674066,-0.0153314,0.0470355,0.0435924,0.0780544,-0.1445
 314,0.0180048,0.0330534,0.1592408,-0.0514877,-0.0168722,-0.0477477,-0.
 067882,-0.0353795,0.0425019,0.0623419,0.0061698,0.0491134,-0.0000851,0
 .0312109,0.0363216,0.0269975,0.0594368,0.0514343,0.0691647,0.0670861,0
 .0490742,0.0877996,0.0277616,0.103028,0.095881,0.0445901\Polar=51.3882
 106,9.7226791,63.4066987,9.659887,-0.3608638,69.457578\Quadrupole=0.62
 81838,-5.2767413,4.6485574,-0.696185,-1.375628,-0.6133546\PG=C01 [X(C3
 H6O3)]\NImag=1\\0.62990000,0.00307208,0.67007061,-0.14901317,-0.001945
 04,0.12957456,-0.14077842,-0.06266405,0.01447775,0.47691481,-0.0917971
 7,-0.28428444,0.03784197,-0.08186418,0.63513342,0.06680172,0.10052304,
 -0.10242611,-0.24031072,-0.13381811,0.30856049,-0.01858853,-0.01800305
 ,-0.00660541,-0.01334748,0.02482761,0.02180347,0.38588029,-0.02027849,
 -0.00610109,-0.04289587,0.01677038,-0.03561047,0.00764368,-0.15989210,
 0.74843113,-0.02204008,-0.06695347,0.06549526,0.08170012,0.06555872,0.
 05419599,-0.04185875,0.28023428,0.19865088,-0.01157614,-0.01070765,0.0
 2297720,0.01414640,0.01216229,-0.00136517,-0.06944845,0.05125503,-0.01
 947380,0.17271024,0.00205737,-0.03358046,-0.00778703,0.00096628,-0.004
 86625,0.03262243,-0.00201538,0.01223879,-0.02073491,-0.01768581,0.1627
 2136,0.00383374,-0.02129544,0.02130677,0.00950937,0.02715436,-0.028518
 69,0.00805424,-0.00913182,-0.04162462,0.05089986,-0.07044969,0.1937043
 9,-0.00552238,-0.00203838,-0.00139100,0.00264380,-0.00159118,0.0094388
 6,0.01368065,-0.00081904,-0.00337277,-0.08059492,0.05027125,-0.0345038
 3,0.19394909,0.00172485,0.00231663,0.02427425,0.00531863,0.01072034,-0
 .00096830,0.01348045,-0.00890625,-0.00076541,0.03637769,-0.08987668,0.
 03452462,-0.15389930,0.17454147,-0.00218621,0.00328843,0.00009901,0.01
 143868,0.00649473,-0.00042509,-0.01184082,0.00953017,-0.03387691,-0.05
 954712,0.07348880,-0.11027497,-0.13091124,0.06308604,0.44827633,0.0011
 7571,0.00172685,-0.00512616,-0.00096086,-0.01489786,-0.01263792,-0.089
 12391,-0.01371535,-0.00426151,0.00410453,-0.02190605,-0.00399904,0.000
 66554,-0.00327971,0.00261392,0.06723644,0.00417807,0.01339203,-0.00382
 524,-0.02752452,-0.02133506,-0.03026601,0.02356432,-0.59442909,-0.2270
 7812,-0.03563105,-0.04497461,0.00325459,0.00167060,-0.00020673,0.00439
 981,0.03052659,0.68030552,0.00375445,0.01690657,-0.02056620,-0.0273037
 6,-0.03782882,-0.02820395,0.01103447,-0.24164362,-0.16065367,-0.007132
 52,0.00302959,0.01900667,0.00286264,0.00201755,0.00878299,0.01088032,0
 .27339097,0.16715676,0.00102400,-0.00077967,0.00464326,0.00287858,0.00
 243821,0.00029615,-0.00128149,0.00247442,-0.00316154,0.00387148,-0.005
 89151,-0.02909656,-0.13039745,0.10150465,0.19198951,0.00022028,0.00038
 525,0.00060822,0.12441681,-0.00031158,-0.00104700,-0.00099053,-0.00124
 691,-0.00133772,0.00166215,0.00369142,0.00483699,0.00478530,-0.0097546
 3,-0.00028779,0.03117204,0.10706742,-0.08977494,-0.15434816,0.00005802
 ,-0.00215188,-0.00228582,-0.09977836,0.08931096,0.00074843,0.00094285,
 0.00124131,0.00141211,0.00192049,-0.00090906,0.00021107,0.00099607,-0.
 00516927,0.00511099,-0.00369974,-0.02474761,0.15797388,-0.11866389,-0.
 31160325,-0.00045683,-0.00071079,0.00087968,-0.16370504,0.11939480,0.3
 4053945,-0.12394837,0.12074407,0.02865796,0.01202700,-0.01252182,-0.00
 170303,0.00094396,0.00170743,-0.00185638,0.00004234,-0.00640344,-0.004
 44518,0.00039071,0.00022904,0.00054877,-0.00015535,-0.00026683,0.00069
 902,-0.00016340,0.00003343,0.00005984,0.11888356,0.11834446,-0.2780645
 3,-0.03657272,0.01479440,-0.01746865,-0.00262552,0.00077217,-0.0003389
 6,0.00003780,-0.00086476,0.00022500,-0.00053880,-0.00004439,0.00003734
 ,-0.00104325,-0.00021381,0.00037436,0.00007706,-0.00015126,0.00004335,
 -0.00010740,-0.12655814,0.29102288,0.02488746,-0.03564363,-0.04315237,
 -0.00308687,0.00901634,0.00626429,0.00183623,0.00426506,-0.00403340,0.
 00033706,-0.01354777,-0.01010315,0.00009955,0.00128415,0.00060671,0.00
 051348,-0.00057403,0.00230258,-0.00031168,-0.00000720,0.00020976,-0.02
 761581,0.03875374,0.04053192,-0.33491496,-0.01277109,0.07694092,-0.004
 06139,0.00211439,0.00647275,0.00010496,0.00001661,-0.00200687,-0.00331
 884,0.00046791,-0.00337795,0.00036145,-0.00093651,-0.00044163,0.000133
 74,0.00058252,0.00061224,-0.00027259,0.00002079,-0.00017140,-0.0073704
 5,-0.00205988,0.00403883,0.34755708,-0.00983156,-0.06036761,0.00490618
 ,-0.02432033,0.00458108,0.00976013,-0.00011744,-0.00045045,-0.00128035
 ,-0.00255852,-0.00002625,-0.00228007,-0.00045881,-0.00035970,-0.000924
 16,-0.00025680,-0.00015495,-0.00004230,-0.00014465,0.00017554,-0.00004
 441,0.02542154,0.00498548,-0.00477567,0.01442065,0.05399606,0.07858461
 ,0.00138234,-0.04908088,0.01087081,0.00284774,0.00929779,0.00083330,0.
 00240534,-0.01018781,-0.01399343,-0.00161361,-0.01025190,-0.00145288,-
 0.00174449,-0.00131873,-0.00011169,0.00053203,0.00267607,-0.00064259,-
 0.00003139,-0.00002677,0.00512722,0.00181985,0.00426747,-0.08108226,-0
 .00498943,0.05336734,0.00225128,0.00317203,-0.00047931,-0.01027918,0.0
 0128670,-0.00505204,-0.20229567,0.11295887,0.03390033,-0.02757426,-0.0
 0038775,0.00582418,0.00460477,0.00012968,0.00135642,0.01461506,0.00260
 803,-0.00003042,0.00015481,-0.00026799,-0.00071130,-0.00042287,-0.0005
 6541,-0.00046398,0.00040162,-0.00009148,0.00048125,0.21783913,0.000127
 00,-0.00181174,0.00559759,0.00534438,0.00563748,0.00280378,0.11381809,
 -0.12138850,-0.02778150,-0.02207348,-0.00038575,0.00758156,0.00032411,
 0.00128636,-0.00379089,0.02298803,-0.03267654,-0.01500982,-0.00024874,
 0.00015226,0.00000158,-0.00014696,0.00002813,0.00006259,-0.00012112,-0
 .00007223,-0.00064596,-0.11880793,0.14899704,-0.00016965,0.00797597,-0
 .00900931,-0.02346630,-0.00119593,-0.01155872,0.01831436,-0.02396043,-
 0.03547022,0.02719810,0.00704653,-0.00471518,0.00061775,-0.00162795,0.
 00471881,0.01259371,-0.02062489,0.00346232,0.00032284,-0.00007476,0.00
 043082,0.00001497,-0.00024225,0.00073360,0.00039985,0.00005857,0.00100
 568,-0.03362298,0.03172974,0.05022128,0.01277693,-0.01892240,0.0012277
 0,-0.14885538,0.14357418,0.00374567,-0.00892312,0.01095831,-0.00225740
 ,-0.00022413,-0.00028263,-0.00013890,-0.00011600,-0.00025938,-0.000554
 26,0.00249952,-0.00167234,0.00203076,0.00000599,0.00012727,-0.00012605
 ,-0.00061202,-0.00329104,0.00278405,0.00068729,0.00040148,-0.00197358,
 -0.00037608,-0.00064337,-0.00206687,0.15344049,0.01684773,-0.02235432,
 0.00136801,0.13695535,-0.23868511,0.01587439,-0.00340399,0.00237124,-0
 .00192861,-0.00021707,-0.00023690,-0.00044583,-0.00002021,-0.00013820,
 0.00006437,-0.00006796,0.00113373,0.00067812,0.00007247,0.00003765,-0.
 00003471,-0.00237370,-0.00226040,0.00246590,-0.00022090,0.00153037,-0.
 00117917,-0.00035107,-0.00010431,-0.00055869,-0.14591128,0.25669366,-0
 .00477632,0.00087789,0.00279641,0.00362797,0.01878247,-0.04038717,-0.0
 1117771,0.01479665,-0.00565872,-0.00132881,0.00047722,-0.00116779,0.00
 016419,-0.00070310,-0.00187234,0.00243069,-0.00060303,0.00277049,-0.00
 030680,0.00023584,-0.00039856,0.00123454,0.00048325,0.00450077,-0.0011
 1768,0.00000710,-0.00306529,-0.00109268,-0.00041655,-0.00189363,0.0013
 0133,-0.01613314,0.04140823,-0.01179913,-0.00282874,0.01369026,-0.1903
 2789,0.01626881,0.15251026,0.00239879,-0.00143606,-0.01531135,-0.00213
 826,0.00080976,-0.00255992,0.00033473,-0.00039009,-0.00246602,-0.00041
 070,0.00157936,0.00198457,-0.00045701,0.00036112,-0.00034569,0.0003848
 8,-0.00016236,-0.00301832,0.00069209,-0.00246409,0.00335925,0.00108138
 ,-0.00056001,-0.00013577,-0.01030351,-0.00130936,0.01104127,0.21054463
 ,-0.02413276,0.00183192,0.02002842,0.01747056,-0.05248462,-0.00321166,
 0.00327790,-0.00065333,-0.00409375,-0.00030203,-0.00095046,0.00045447,
 -0.00046207,0.00036035,-0.00024590,-0.00096195,0.00072321,0.00071053,0
 .00011918,0.00004259,0.00000516,0.00013537,0.00141601,-0.00129947,-0.0
 0151336,-0.00383734,0.00121676,0.00031633,0.00033780,0.00147408,0.0159
 2119,0.00201259,-0.01780459,-0.00986835,0.05120127,-0.00042497,-0.0060
 5951,0.00372156,0.16113084,0.00322604,-0.16588978,0.00939556,-0.002239
 51,-0.02166752,-0.00368235,0.00116817,-0.00261391,0.00047485,-0.000713
 47,-0.00311255,-0.00243897,0.00210472,0.00238627,-0.00063577,0.0004877
 3,-0.00044650,-0.00072193,-0.00004176,-0.00212818,-0.00026681,-0.00039
 560,0.00331705,-0.00010948,-0.00013212,0.00207454,-0.00397243,-0.00017
 065,0.00296760,-0.15874855,0.00276595,0.18139140\\-0.00000213,-0.00000
 094,-0.00000011,-0.00000049,-0.00000033,-0.00000110,0.00000088,0.00000
 030,-0.00000176,0.00000207,0.00000150,0.00000096,-0.00000017,-0.000001
 43,0.00000062,0.00000123,0.00000127,0.00000053,0.00000089,0.00000063,0
 .00000006,-0.00000088,-0.00000006,0.00000070,-0.00000062,0.00000049,0.
 00000078,0.00000040,-0.00000064,0.00000016,-0.00000017,-0.00000009,-0.
 00000005,-0.00000100,-0.00000068,-0.00000080\\\@


 THERE IS MUCH PLEASURE TO BE GAINED FROM USELESS KNOWLEDGE

                                       -- BERTRAND RUSSELL
 Job cpu time:       0 days  0 hours  4 minutes 12.8 seconds.
 Elapsed time:       0 days  0 hours  0 minutes 16.0 seconds.
 File lengths (MBytes):  RWF=     27 Int=      0 D2E=      0 Chk=      3 Scr=      1
 Normal termination of Gaussian 16 at Wed Dec 23 22:06:43 2020.
