 Entering Gaussian System, Link 0=g16
 Initial command:
 /apps/cent7/gaussian/g16-B.01/g16-haswell/g16/l1.exe "/scratch/bell/zhao922/YARP/paper-example/KHP-network/pp_0/TS-folder/Gau-4201.inp" -scrdir="/scratch/bell/zhao922/YARP/paper-example/KHP-network/pp_0/TS-folder/"
 Entering Link 1 = /apps/cent7/gaussian/g16-B.01/g16-haswell/g16/l1.exe PID=      4203.
  
 Copyright (c) 1988-2017, Gaussian, Inc.  All Rights Reserved.
  
 This is part of the Gaussian(R) 16 program.  It is based on
 the Gaussian(R) 09 system (copyright 2009, Gaussian, Inc.),
 the Gaussian(R) 03 system (copyright 2003, Gaussian, Inc.),
 the Gaussian(R) 98 system (copyright 1998, Gaussian, Inc.),
 the Gaussian(R) 94 system (copyright 1995, Gaussian, Inc.),
 the Gaussian 92(TM) system (copyright 1992, Gaussian, Inc.),
 the Gaussian 90(TM) system (copyright 1990, Gaussian, Inc.),
 the Gaussian 88(TM) system (copyright 1988, Gaussian, Inc.),
 the Gaussian 86(TM) system (copyright 1986, Carnegie Mellon
 University), and the Gaussian 82(TM) system (copyright 1983,
 Carnegie Mellon University). Gaussian is a federally registered
 trademark of Gaussian, Inc.
  
 This software contains proprietary and confidential information,
 including trade secrets, belonging to Gaussian, Inc.
  
 This software is provided under written license and may be
 used, copied, transmitted, or stored only in accord with that
 written license.
  
 The following legend is applicable only to US Government
 contracts under FAR:
  
                    RESTRICTED RIGHTS LEGEND
  
 Use, reproduction and disclosure by the US Government is
 subject to restrictions as set forth in subparagraphs (a)
 and (c) of the Commercial Computer Software - Restricted
 Rights clause in FAR 52.227-19.
  
 Gaussian, Inc.
 340 Quinnipiac St., Bldg. 40, Wallingford CT 06492
  
  
 ---------------------------------------------------------------
 Warning -- This program may not be used in any manner that
 competes with the business of Gaussian, Inc. or will provide
 assistance to any competitor of Gaussian, Inc.  The licensee
 of this program is prohibited from giving any competitor of
 Gaussian, Inc. access to this program.  By using this program,
 the user acknowledges that Gaussian, Inc. is engaged in the
 business of creating and licensing software in the field of
 computational chemistry and represents and warrants to the
 licensee that it is not a competitor of Gaussian, Inc. and that
 it will not use this program in any manner prohibited above.
 ---------------------------------------------------------------
  

 Cite this work as:
 Gaussian 16, Revision B.01,
 M. J. Frisch, G. W. Trucks, H. B. Schlegel, G. E. Scuseria, 
 M. A. Robb, J. R. Cheeseman, G. Scalmani, V. Barone, 
 G. A. Petersson, H. Nakatsuji, X. Li, M. Caricato, A. V. Marenich, 
 J. Bloino, B. G. Janesko, R. Gomperts, B. Mennucci, H. P. Hratchian, 
 J. V. Ortiz, A. F. Izmaylov, J. L. Sonnenberg, D. Williams-Young, 
 F. Ding, F. Lipparini, F. Egidi, J. Goings, B. Peng, A. Petrone, 
 T. Henderson, D. Ranasinghe, V. G. Zakrzewski, J. Gao, N. Rega, 
 G. Zheng, W. Liang, M. Hada, M. Ehara, K. Toyota, R. Fukuda, 
 J. Hasegawa, M. Ishida, T. Nakajima, Y. Honda, O. Kitao, H. Nakai, 
 T. Vreven, K. Throssell, J. A. Montgomery, Jr., J. E. Peralta, 
 F. Ogliaro, M. J. Bearpark, J. J. Heyd, E. N. Brothers, K. N. Kudin, 
 V. N. Staroverov, T. A. Keith, R. Kobayashi, J. Normand, 
 K. Raghavachari, A. P. Rendell, J. C. Burant, S. S. Iyengar, 
 J. Tomasi, M. Cossi, J. M. Millam, M. Klene, C. Adamo, R. Cammi, 
 J. W. Ochterski, R. L. Martin, K. Morokuma, O. Farkas, 
 J. B. Foresman, and D. J. Fox, Gaussian, Inc., Wallingford CT, 2016.
 
 ******************************************
 Gaussian 16:  ES64L-G16RevB.01 20-Dec-2017
                23-Dec-2020 
 ******************************************
 %NProcShared=16
 Will use up to   16 processors via shared memory.
 %Mem=6GB
 --------------------------------------------------------------
 # B3LYP/6-31+G* OPT=(TS, CALCALL, NOEIGEN, maxcycles=100) Freq
 --------------------------------------------------------------
 1/5=1,6=100,10=4,11=1,18=20,26=3,38=1/1,3;
 2/9=110,12=2,17=6,18=5,40=1/2;
 3/5=1,6=6,7=11,11=2,25=1,30=1,71=2,74=-5,140=1/1,2,3;
 4//1;
 5/5=2,38=5/2;
 8/6=4,10=90,11=11/1;
 11/6=1,8=1,9=11,15=111,16=1/1,2,10;
 10/6=1/2;
 6/7=2,8=2,9=2,10=2,18=1,28=1/1;
 7/10=1,25=1/1,2,3,16;
 1/5=1,6=100,10=4,11=1,18=20,26=3/3(3);
 2/9=110/2;
 7/8=1,9=1,25=1,44=-1/16;
 99//99;
 2/9=110/2;
 3/5=1,6=6,7=11,11=2,25=1,30=1,71=2,74=-5,140=1/1,2,3;
 4/5=5,16=3,69=1/1;
 5/5=2,38=5/2;
 8/6=4,10=90,11=11/1;
 11/6=1,8=1,9=11,15=111,16=1/1,2,10;
 10/6=1/2;
 7/10=1,25=1/1,2,3,16;
 1/5=1,6=100,10=4,11=1,18=20,26=3/3(-8);
 2/9=110/2;
 6/7=2,8=2,9=2,10=2,18=1,19=2,28=1/1;
 7/8=1,9=1,25=1,44=-1/16;
 99//99;
 ---------
 pp_8_0 TS
 ---------
 Symbolic Z-matrix:
 Charge =  0 Multiplicity = 1
 C                     1.78009   1.08783  -2.32416 
 C                     0.96787   0.72323  -1.20064 
 C                     1.13449  -0.71696  -0.80778 
 O                    -0.05902   2.8142   -1.82385 
 O                     0.98211   3.56852  -1.32502 
 O                     0.3498   -1.33071  -0.14136 
 H                     0.62193   4.46748  -1.29536 
 H                     2.52043   1.85857  -2.33078 
 H                     1.81121   0.25505  -3.01557 
 H                     2.05396  -1.19232  -1.17826 
 H                    -0.18602   0.89157  -1.03407 
 H                     1.00315   1.58353  -0.50623 
 
 Add virtual bond connecting atoms H11        and O4         Dist= 3.94D+00.
 Add virtual bond connecting atoms H12        and O4         Dist= 3.95D+00.
 Add virtual bond connecting atoms H12        and O5         Dist= 4.06D+00.

 GradGradGradGradGradGradGradGradGradGradGradGradGradGradGradGradGradGrad
 Berny optimization.
 Initialization pass.
                           ----------------------------
                           !    Initial Parameters    !
                           ! (Angstroms and Degrees)  !
 --------------------------                            --------------------------
 ! Name  Definition              Value          Derivative Info.                !
 --------------------------------------------------------------------------------
 ! R1    R(1,2)                  1.4335         calculate D2E/DX2 analytically  !
 ! R2    R(1,8)                  1.0687         calculate D2E/DX2 analytically  !
 ! R3    R(1,9)                  1.0828         calculate D2E/DX2 analytically  !
 ! R4    R(2,3)                  1.5021         calculate D2E/DX2 analytically  !
 ! R5    R(2,11)                 1.1779         calculate D2E/DX2 analytically  !
 ! R6    R(2,12)                 1.1061         calculate D2E/DX2 analytically  !
 ! R7    R(3,6)                  1.1986         calculate D2E/DX2 analytically  !
 ! R8    R(3,10)                 1.0994         calculate D2E/DX2 analytically  !
 ! R9    R(4,5)                  1.379          calculate D2E/DX2 analytically  !
 ! R10   R(4,11)                 2.0824         calculate D2E/DX2 analytically  !
 ! R11   R(4,12)                 2.0926         calculate D2E/DX2 analytically  !
 ! R12   R(5,7)                  0.9689         calculate D2E/DX2 analytically  !
 ! R13   R(5,12)                 2.1473         calculate D2E/DX2 analytically  !
 ! A1    A(2,1,8)              125.5057         calculate D2E/DX2 analytically  !
 ! A2    A(2,1,9)              108.7304         calculate D2E/DX2 analytically  !
 ! A3    A(8,1,9)              122.0571         calculate D2E/DX2 analytically  !
 ! A4    A(1,2,3)              112.7057         calculate D2E/DX2 analytically  !
 ! A5    A(1,2,11)             129.0139         calculate D2E/DX2 analytically  !
 ! A6    A(1,2,12)             106.0296         calculate D2E/DX2 analytically  !
 ! A7    A(3,2,11)             102.0461         calculate D2E/DX2 analytically  !
 ! A8    A(3,2,12)             125.3082         calculate D2E/DX2 analytically  !
 ! A9    A(11,2,12)             80.2892         calculate D2E/DX2 analytically  !
 ! A10   A(2,3,6)              124.317          calculate D2E/DX2 analytically  !
 ! A11   A(2,3,10)             114.7848         calculate D2E/DX2 analytically  !
 ! A12   A(6,3,10)             120.8979         calculate D2E/DX2 analytically  !
 ! A13   A(5,4,11)             114.4485         calculate D2E/DX2 analytically  !
 ! A14   A(11,4,12)             41.3366         calculate D2E/DX2 analytically  !
 ! A15   A(4,5,7)              103.764          calculate D2E/DX2 analytically  !
 ! A16   A(7,5,12)             148.1735         calculate D2E/DX2 analytically  !
 ! A17   A(2,11,4)              91.064          calculate D2E/DX2 analytically  !
 ! A18   A(2,12,4)              92.6326         calculate D2E/DX2 analytically  !
 ! A19   A(2,12,5)             118.6372         calculate D2E/DX2 analytically  !
 ! D1    D(8,1,2,3)           -121.4706         calculate D2E/DX2 analytically  !
 ! D2    D(8,1,2,11)           109.467          calculate D2E/DX2 analytically  !
 ! D3    D(8,1,2,12)            19.0716         calculate D2E/DX2 analytically  !
 ! D4    D(9,1,2,3)             37.0217         calculate D2E/DX2 analytically  !
 ! D5    D(9,1,2,11)           -92.0407         calculate D2E/DX2 analytically  !
 ! D6    D(9,1,2,12)           177.5639         calculate D2E/DX2 analytically  !
 ! D7    D(1,2,3,6)           -160.7592         calculate D2E/DX2 analytically  !
 ! D8    D(1,2,3,10)            19.43           calculate D2E/DX2 analytically  !
 ! D9    D(11,2,3,6)           -18.8484         calculate D2E/DX2 analytically  !
 ! D10   D(11,2,3,10)          161.3408         calculate D2E/DX2 analytically  !
 ! D11   D(12,2,3,6)            67.6997         calculate D2E/DX2 analytically  !
 ! D12   D(12,2,3,10)         -112.1111         calculate D2E/DX2 analytically  !
 ! D13   D(1,2,11,4)           -41.8889         calculate D2E/DX2 analytically  !
 ! D14   D(3,2,11,4)          -174.7999         calculate D2E/DX2 analytically  !
 ! D15   D(12,2,11,4)           60.9323         calculate D2E/DX2 analytically  !
 ! D16   D(1,2,12,4)            67.4511         calculate D2E/DX2 analytically  !
 ! D17   D(1,2,12,5)            38.4357         calculate D2E/DX2 analytically  !
 ! D18   D(3,2,12,4)          -158.4718         calculate D2E/DX2 analytically  !
 ! D19   D(3,2,12,5)           172.5127         calculate D2E/DX2 analytically  !
 ! D20   D(11,2,12,4)          -60.5248         calculate D2E/DX2 analytically  !
 ! D21   D(11,2,12,5)          -89.5403         calculate D2E/DX2 analytically  !
 ! D22   D(11,4,5,7)          -144.9547         calculate D2E/DX2 analytically  !
 ! D23   D(5,4,11,2)           -47.2425         calculate D2E/DX2 analytically  !
 ! D24   D(12,4,11,2)          -43.5912         calculate D2E/DX2 analytically  !
 ! D25   D(11,4,12,2)           47.2995         calculate D2E/DX2 analytically  !
 ! D26   D(4,5,7,12)            72.0146         calculate D2E/DX2 analytically  !
 ! D27   D(7,5,12,2)           134.0446         calculate D2E/DX2 analytically  !
 --------------------------------------------------------------------------------
 Trust Radius=3.00D-01 FncErr=1.00D-07 GrdErr=1.00D-06 EigMax=2.50D+02 EigMin=1.00D-04
 Number of steps in this run=    100 maximum allowed number of steps=    100.
 Search for a saddle point of order  1.
 GradGradGradGradGradGradGradGradGradGradGradGradGradGradGradGradGradGrad

                          Input orientation:                          
 ---------------------------------------------------------------------
 Center     Atomic      Atomic             Coordinates (Angstroms)
 Number     Number       Type             X           Y           Z
 ---------------------------------------------------------------------
      1          6           0        1.780090    1.087834   -2.324158
      2          6           0        0.967869    0.723231   -1.200639
      3          6           0        1.134490   -0.716960   -0.807783
      4          8           0       -0.059015    2.814204   -1.823849
      5          8           0        0.982112    3.568517   -1.325020
      6          8           0        0.349801   -1.330708   -0.141359
      7          1           0        0.621927    4.467483   -1.295356
      8          1           0        2.520434    1.858569   -2.330783
      9          1           0        1.811210    0.255048   -3.015570
     10          1           0        2.053956   -1.192320   -1.178260
     11          1           0       -0.186021    0.891568   -1.034072
     12          1           0        1.003146    1.583533   -0.506233
 ---------------------------------------------------------------------
                    Distance matrix (angstroms):
                    1          2          3          4          5
     1  C    0.000000
     2  C    1.433504   0.000000
     3  C    2.444069   1.502081   0.000000
     4  O    2.571569   2.411441   3.863413   0.000000
     5  O    2.790848   2.848039   4.319267   1.379045   0.000000
     6  O    3.558045   2.392226   1.198559   4.492015   5.079693
     7  H    3.717768   3.761392   5.232485   1.864489   0.968893
     8  H    1.068731   2.230846   3.297532   2.797102   2.510362
     9  H    1.082844   2.055333   2.505409   3.386328   3.811094
    10  H    2.566552   2.202140   1.099381   4.575332   4.882208
    11  H    2.359753   1.177941   2.093399   2.082404   2.935173
    12  H    2.038188   1.106148   2.323887   2.092570   2.147328
                    6          7          8          9         10
     6  O    0.000000
     7  H    5.918174   0.000000
     8  H    4.435844   3.388638   0.000000
     9  H    3.593247   4.702993   1.882342   0.000000
    10  H    1.999615   5.839331   3.294516   2.351491   0.000000
    11  H    2.454089   3.675353   3.153006   2.884514   3.062822
    12  H    3.008786   3.014168   2.388889   2.952052   3.043219
                   11         12
    11  H    0.000000
    12  H    1.473617   0.000000
 Stoichiometry    C3H6O3
 Framework group  C1[X(C3H6O3)]
 Deg. of freedom    30
 Full point group                 C1      NOp   1
 Largest Abelian subgroup         C1      NOp   1
 Largest concise Abelian subgroup C1      NOp   1
                         Standard orientation:                         
 ---------------------------------------------------------------------
 Center     Atomic      Atomic             Coordinates (Angstroms)
 Number     Number       Type             X           Y           Z
 ---------------------------------------------------------------------
      1          6           0        0.169229    1.364129    0.197914
      2          6           0       -0.430168    0.085191   -0.046986
      3          6           0       -1.926518    0.157545   -0.156312
      4          8           0        1.776558   -0.591332    0.651388
      5          8           0        2.361240   -0.200199   -0.534751
      6          8           0       -2.659577   -0.782074   -0.028700
      7          1           0        3.236791   -0.614244   -0.507712
      8          1           0        0.898629    1.837046   -0.423786
      9          1           0       -0.475264    1.929215    0.859622
     10          1           0       -2.325004    1.159347   -0.371343
     11          1           0       -0.274669   -0.929466    0.530798
     12          1           0        0.238494   -0.434253   -0.758766
 ---------------------------------------------------------------------
 Rotational constants (GHZ):           8.0385454           1.5247409           1.3820576
 Standard basis: 6-31+G(d) (6D, 7F)
 There are   126 symmetry adapted cartesian basis functions of A   symmetry.
 There are   126 symmetry adapted basis functions of A   symmetry.
   126 basis functions,   216 primitive gaussians,   126 cartesian basis functions
    24 alpha electrons       24 beta electrons
       nuclear repulsion energy       225.0558292735 Hartrees.
 NAtoms=   12 NActive=   12 NUniq=   12 SFac= 1.00D+00 NAtFMM=   60 NAOKFM=F Big=F
 Integral buffers will be    131072 words long.
 Raffenetti 2 integral format.
 Two-electron integral symmetry is turned on.
 One-electron integrals computed using PRISM.
 NBasis=   126 RedAO= T EigKep=  8.16D-05  NBF=   126
 NBsUse=   126 1.00D-06 EigRej= -1.00D+00 NBFU=   126
 ExpMin= 4.38D-02 ExpMax= 5.48D+03 ExpMxC= 8.25D+02 IAcc=3 IRadAn=         5 AccDes= 0.00D+00
 Harris functional with IExCor=  402 and IRadAn=       5 diagonalized for initial guess.
 HarFok:  IExCor=  402 AccDes= 0.00D+00 IRadAn=         5 IDoV= 1 UseB2=F ITyADJ=14
 ICtDFT=  3500011 ScaDFX=  1.000000  1.000000  1.000000  1.000000
 FoFCou: FMM=F IPFlag=           0 FMFlag=      100000 FMFlg1=           0
         NFxFlg=           0 DoJE=T BraDBF=F KetDBF=T FulRan=T
         wScrn=  0.000000 ICntrl=       500 IOpCl=  0 I1Cent=   200000004 NGrid=           0
         NMat0=    1 NMatS0=      1 NMatT0=    0 NMatD0=    1 NMtDS0=    0 NMtDT0=    0
 Petite list used in FoFCou.
 Keep R1 ints in memory in canonical form, NReq=47237537.
 Requested convergence on RMS density matrix=1.00D-08 within 128 cycles.
 Requested convergence on MAX density matrix=1.00D-06.
 Requested convergence on             energy=1.00D-06.
 No special actions if energy rises.
 EnCoef did     3 forward-backward iterations
 SCF Done:  E(RB3LYP) =  -343.321485670     A.U. after   17 cycles
            NFock= 17  Conv=0.75D-08     -V/T= 2.0086
 DoSCS=F DFT=T ScalE2(SS,OS)=  1.000000  1.000000
 Range of M.O.s used for correlation:     1   126
 NBasis=   126 NAE=    24 NBE=    24 NFC=     0 NFV=     0
 NROrb=    126 NOA=    24 NOB=    24 NVA=   102 NVB=   102

 **** Warning!!: The largest alpha MO coefficient is  0.34708041D+02


 **** Warning!!: The smallest alpha delta epsilon is  0.74151427D-01

 Symmetrizing basis deriv contribution to polar:
 IMax=3 JMax=2 DiffMx= 0.00D+00
 G2DrvN: will do    13 centers at a time, making    1 passes.
 Calling FoFCou, ICntrl=  3107 FMM=F I1Cent=   0 AccDes= 0.00D+00.
 End of G2Drv F.D. properties file   721 does not exist.
 End of G2Drv F.D. properties file   722 does not exist.
 End of G2Drv F.D. properties file   788 does not exist.
          IDoAtm=111111111111
          Differentiating once with respect to electric field.
                with respect to dipole field.
          Differentiating once with respect to nuclear coordinates.
 Keep R1 ints in memory in canonical form, NReq=47193559.
          There are    39 degrees of freedom in the 1st order CPHF.  IDoFFX=6 NUNeed=     3.
     36 vectors produced by pass  0 Test12= 6.28D-15 2.56D-09 XBig12= 5.08D+02 2.00D+01.
 AX will form    36 AO Fock derivatives at one time.
     36 vectors produced by pass  1 Test12= 6.28D-15 2.56D-09 XBig12= 2.91D+02 3.69D+00.
     36 vectors produced by pass  2 Test12= 6.28D-15 2.56D-09 XBig12= 3.24D+00 4.08D-01.
     36 vectors produced by pass  3 Test12= 6.28D-15 2.56D-09 XBig12= 9.70D-03 1.94D-02.
     36 vectors produced by pass  4 Test12= 6.28D-15 2.56D-09 XBig12= 1.17D-05 4.63D-04.
     26 vectors produced by pass  5 Test12= 6.28D-15 2.56D-09 XBig12= 1.24D-08 1.53D-05.
      4 vectors produced by pass  6 Test12= 6.28D-15 2.56D-09 XBig12= 1.33D-11 5.15D-07.
      3 vectors produced by pass  7 Test12= 6.28D-15 2.56D-09 XBig12= 1.09D-14 1.50D-08.
 InvSVY:  IOpt=1 It=  1 EMax= 1.24D-14
 Solved reduced A of dimension   213 with    39 vectors.
 Isotropic polarizability for W=    0.000000       69.29 Bohr**3.
 End of Minotr F.D. properties file   721 does not exist.
 End of Minotr F.D. properties file   722 does not exist.
 End of Minotr F.D. properties file   788 does not exist.

 **********************************************************************

            Population analysis using the SCF Density.

 **********************************************************************

 Orbital symmetries:
       Occupied  (A) (A) (A) (A) (A) (A) (A) (A) (A) (A) (A) (A)
                 (A) (A) (A) (A) (A) (A) (A) (A) (A) (A) (A) (A)
       Virtual   (A) (A) (A) (A) (A) (A) (A) (A) (A) (A) (A) (A)
                 (A) (A) (A) (A) (A) (A) (A) (A) (A) (A) (A) (A)
                 (A) (A) (A) (A) (A) (A) (A) (A) (A) (A) (A) (A)
                 (A) (A) (A) (A) (A) (A) (A) (A) (A) (A) (A) (A)
                 (A) (A) (A) (A) (A) (A) (A) (A) (A) (A) (A) (A)
                 (A) (A) (A) (A) (A) (A) (A) (A) (A) (A) (A) (A)
                 (A) (A) (A) (A) (A) (A) (A) (A) (A) (A) (A) (A)
                 (A) (A) (A) (A) (A) (A) (A) (A) (A) (A) (A) (A)
                 (A) (A) (A) (A) (A) (A)
 The electronic state is 1-A.
 Alpha  occ. eigenvalues --  -19.22686 -19.18078 -19.17903 -10.30404 -10.27686
 Alpha  occ. eigenvalues --  -10.22438  -1.12604  -1.08088  -0.84183  -0.81879
 Alpha  occ. eigenvalues --   -0.67699  -0.62095  -0.53601  -0.50594  -0.49884
 Alpha  occ. eigenvalues --   -0.46488  -0.44618  -0.43236  -0.42090  -0.40513
 Alpha  occ. eigenvalues --   -0.34686  -0.28935  -0.25195  -0.22567
 Alpha virt. eigenvalues --   -0.15152  -0.05919   0.00384   0.01540   0.02420
 Alpha virt. eigenvalues --    0.03350   0.05054   0.06486   0.07430   0.08048
 Alpha virt. eigenvalues --    0.08748   0.09840   0.11234   0.13637   0.14518
 Alpha virt. eigenvalues --    0.15477   0.16800   0.17981   0.18888   0.21232
 Alpha virt. eigenvalues --    0.21608   0.22049   0.24085   0.24823   0.25188
 Alpha virt. eigenvalues --    0.26942   0.27972   0.28117   0.29336   0.30872
 Alpha virt. eigenvalues --    0.31446   0.33790   0.36145   0.37364   0.39724
 Alpha virt. eigenvalues --    0.42442   0.61157   0.63256   0.67095   0.69929
 Alpha virt. eigenvalues --    0.71249   0.73735   0.78382   0.80596   0.85703
 Alpha virt. eigenvalues --    0.89229   0.92975   0.96393   0.98568   1.01937
 Alpha virt. eigenvalues --    1.04567   1.06389   1.09802   1.12383   1.17687
 Alpha virt. eigenvalues --    1.19394   1.21640   1.23769   1.24849   1.26330
 Alpha virt. eigenvalues --    1.28850   1.30911   1.32676   1.49401   1.51160
 Alpha virt. eigenvalues --    1.53194   1.54351   1.56325   1.61846   1.65437
 Alpha virt. eigenvalues --    1.66257   1.71779   1.75492   1.80239   1.80972
 Alpha virt. eigenvalues --    1.83999   1.89259   1.91627   1.94893   2.02186
 Alpha virt. eigenvalues --    2.06591   2.11408   2.14666   2.21970   2.33215
 Alpha virt. eigenvalues --    2.41050   2.42988   2.45048   2.45920   2.52618
 Alpha virt. eigenvalues --    2.57755   2.61021   2.68881   2.93654   3.08572
 Alpha virt. eigenvalues --    3.10726   4.03726   4.11264   4.14444   4.21290
 Alpha virt. eigenvalues --    4.26737   4.46243
          Condensed to atoms (all electrons):
               1          2          3          4          5          6
     1  C    5.523392  -0.232140   0.144409   0.034963  -0.012155   0.040932
     2  C   -0.232140   7.053698  -0.489315  -0.156959   0.030429  -0.208253
     3  C    0.144409  -0.489315   5.351321   0.094996  -0.011207   0.498437
     4  O    0.034963  -0.156959   0.094996   8.378406  -0.031309  -0.001281
     5  O   -0.012155   0.030429  -0.011207  -0.031309   8.356784   0.000244
     6  O    0.040932  -0.208253   0.498437  -0.001281   0.000244   8.099628
     7  H    0.001134  -0.000659   0.000592  -0.036725   0.183852   0.000001
     8  H    0.387622  -0.019638  -0.014671  -0.007218   0.001441  -0.000427
     9  H    0.370870  -0.094534   0.033272   0.002756  -0.000297   0.001548
    10  H    0.056252  -0.208303   0.417839  -0.001290   0.000421  -0.062890
    11  H    0.003424   0.276499  -0.005497  -0.002711  -0.004968  -0.002838
    12  H   -0.068086   0.364710   0.007474  -0.015978   0.004269   0.001505
               7          8          9         10         11         12
     1  C    0.001134   0.387622   0.370870   0.056252   0.003424  -0.068086
     2  C   -0.000659  -0.019638  -0.094534  -0.208303   0.276499   0.364710
     3  C    0.000592  -0.014671   0.033272   0.417839  -0.005497   0.007474
     4  O   -0.036725  -0.007218   0.002756  -0.001290  -0.002711  -0.015978
     5  O    0.183852   0.001441  -0.000297   0.000421  -0.004968   0.004269
     6  O    0.000001  -0.000427   0.001548  -0.062890  -0.002838   0.001505
     7  H    0.355074  -0.000240  -0.000007  -0.000000  -0.000428   0.000116
     8  H   -0.000240   0.434828  -0.028958  -0.000090   0.002199  -0.008070
     9  H   -0.000007  -0.028958   0.504675   0.000766  -0.001003   0.005060
    10  H   -0.000000  -0.000090   0.000766   0.629776   0.003074   0.001332
    11  H   -0.000428   0.002199  -0.001003   0.003074   0.459590  -0.038870
    12  H    0.000116  -0.008070   0.005060   0.001332  -0.038870   0.441969
 Mulliken charges:
               1
     1  C   -0.250619
     2  C   -0.315536
     3  C   -0.027651
     4  O   -0.257652
     5  O   -0.517506
     6  O   -0.366606
     7  H    0.497288
     8  H    0.253222
     9  H    0.205851
    10  H    0.163111
    11  H    0.311528
    12  H    0.304569
 Sum of Mulliken charges =  -0.00000
 Mulliken charges with hydrogens summed into heavy atoms:
               1
     1  C    0.208454
     2  C    0.300561
     3  C    0.135461
     4  O   -0.257652
     5  O   -0.020217
     6  O   -0.366606
 APT charges:
               1
     1  C    0.248154
     2  C   -0.487063
     3  C    1.017379
     4  O   -0.134844
     5  O   -0.460505
     6  O   -0.713286
     7  H    0.312924
     8  H    0.043799
     9  H    0.051385
    10  H   -0.059509
    11  H    0.134774
    12  H    0.046792
 Sum of APT charges =  -0.00000
 APT charges with hydrogens summed into heavy atoms:
               1
     1  C    0.343337
     2  C   -0.305496
     3  C    0.957870
     4  O   -0.134844
     5  O   -0.147581
     6  O   -0.713286
 Electronic spatial extent (au):  <R**2>=            812.9756
 Charge=             -0.0000 electrons
 Dipole moment (field-independent basis, Debye):
    X=              1.2231    Y=              2.9196    Z=             -1.3189  Tot=              3.4292
 Quadrupole moment (field-independent basis, Debye-Ang):
   XX=            -39.2240   YY=            -34.0501   ZZ=            -37.7909
   XY=             -5.8401   XZ=             -3.6619   YZ=              1.0445
 Traceless Quadrupole moment (field-independent basis, Debye-Ang):
   XX=             -2.2023   YY=              2.9715   ZZ=             -0.7692
   XY=             -5.8401   XZ=             -3.6619   YZ=              1.0445
 Octapole moment (field-independent basis, Debye-Ang**2):
  XXX=             63.1102  YYY=              1.3804  ZZZ=             -1.6112  XYY=              6.4384
  XXY=              4.8252  XXZ=            -10.6719  XZZ=             -2.2727  YZZ=             -0.8504
  YYZ=             -1.0268  XYZ=              2.1281
 Hexadecapole moment (field-independent basis, Debye-Ang**3):
 XXXX=           -694.2129 YYYY=           -166.9333 ZZZZ=            -75.3233 XXXY=            -67.8690
 XXXZ=            -32.9671 YYYX=             -1.7365 YYYZ=              0.4400 ZZZX=             -6.3571
 ZZZY=             -0.1453 XXYY=           -154.7479 XXZZ=           -140.6988 YYZZ=            -39.9335
 XXYZ=              7.4343 YYXZ=             -5.9956 ZZXY=              0.7345
 N-N= 2.250558292735D+02 E-N=-1.254791266984D+03  KE= 3.403906841567D+02
  Exact polarizability: 100.916 -15.574  67.045  -2.115  -1.188  39.907
 Approx polarizability: 218.273 -93.743 169.622  -0.553  -8.312  58.728
 Calling FoFJK, ICntrl=    100127 FMM=F ISym2X=0 I1Cent= 0 IOpClX= 0 NMat=1 NMatS=1 NMatT=0.
 ***** Axes restored to original set *****
 -------------------------------------------------------------------
 Center     Atomic                   Forces (Hartrees/Bohr)
 Number     Number              X              Y              Z
 -------------------------------------------------------------------
      1        6          -0.040175459   -0.021251069   -0.005983316
      2        6          -0.026280065    0.022105327    0.032825323
      3        6           0.017490682    0.008347305    0.004135275
      4        8          -0.000325478   -0.004937516   -0.026615253
      5        8           0.006178397    0.011073480    0.016737950
      6        8          -0.015487244   -0.012555538    0.013423624
      7        1          -0.000461652    0.007219710   -0.001199863
      8        1          -0.000626749    0.013215107   -0.003115660
      9        1           0.012822949    0.006382986   -0.016594954
     10        1           0.003783426   -0.007479098   -0.002907747
     11        1           0.019284008   -0.004442011   -0.032957772
     12        1           0.023797184   -0.017678683    0.022252392
 -------------------------------------------------------------------
 Cartesian Forces:  Max     0.040175459 RMS     0.016792924
 FormGI is forming the generalized inverse of G from B-inverse, IUseBI=4.

 GradGradGradGradGradGradGradGradGradGradGradGradGradGradGradGradGradGrad
 Berny optimization.
 Internal  Forces:  Max     0.030734893 RMS     0.012068331
 Search for a saddle point.
 Step number   1 out of a maximum of  100
 All quantities printed in internal units (Hartrees-Bohrs-Radians)
 Swapping is turned off.
 Second derivative matrix not updated -- analytic derivatives used.
 ITU=  0
     Eigenvalues ---   -0.06163  -0.00338   0.00022   0.00232   0.00424
     Eigenvalues ---    0.00891   0.01103   0.01604   0.02268   0.02846
     Eigenvalues ---    0.03255   0.04775   0.05302   0.06169   0.08504
     Eigenvalues ---    0.10816   0.12700   0.15051   0.15585   0.15944
     Eigenvalues ---    0.22277   0.25978   0.28392   0.32508   0.33846
     Eigenvalues ---    0.36951   0.40867   0.41756   0.50341   0.94772
 Eigenvectors required to have negative eigenvalues:
                          D16       D18       D17       D27       A5
   1                   -0.40965  -0.31928  -0.29935  -0.25055  -0.24836
                          A17       D23       D19       A18       D20
   1                   -0.23690  -0.21178  -0.20898  -0.20357  -0.18281
 RFO step:  Lambda0=2.538490681D-02 Lambda=-4.55144806D-02.
 Linear search not attempted -- option 19 set.
 Maximum step size (   0.300) exceeded in Quadratic search.
    -- Step size scaled by   0.485
 Iteration  1 RMS(Cart)=  0.09315484 RMS(Int)=  0.00401777
 Iteration  2 RMS(Cart)=  0.00495053 RMS(Int)=  0.00148672
 Iteration  3 RMS(Cart)=  0.00000897 RMS(Int)=  0.00148670
 Iteration  4 RMS(Cart)=  0.00000001 RMS(Int)=  0.00148670
 Variable       Old X    -DE/DX   Delta X   Delta X   Delta X     New X
                                 (Linear)    (Quad)   (Total)
    R1        2.70893   0.00386   0.00000  -0.01618  -0.01618   2.69275
    R2        2.01961   0.00912   0.00000   0.01098   0.01098   2.03059
    R3        2.04628   0.00606   0.00000   0.00518   0.00518   2.05146
    R4        2.83852   0.01568   0.00000   0.02041   0.02041   2.85893
    R5        2.22599  -0.02341   0.00000  -0.01619  -0.01352   2.21246
    R6        2.09032  -0.00004   0.00000  -0.00253  -0.00457   2.08574
    R7        2.26495   0.02403   0.00000   0.00954   0.00954   2.27449
    R8        2.07753   0.00738   0.00000   0.00682   0.00682   2.08435
    R9        2.60602   0.01722   0.00000   0.01709   0.01847   2.62449
   R10        3.93517   0.00152   0.00000  -0.12468  -0.12352   3.81165
   R11        3.95438   0.00915   0.00000   0.14143   0.14017   4.09456
   R12        1.83094   0.00683   0.00000   0.00579   0.00579   1.83673
   R13        4.05786   0.00510   0.00000  -0.10746  -0.10861   3.94925
    A1        2.19049  -0.01238   0.00000  -0.01902  -0.01952   2.17096
    A2        1.89770   0.03002   0.00000   0.06788   0.06737   1.96507
    A3        2.13030  -0.01399   0.00000  -0.02983  -0.03037   2.09992
    A4        1.96709   0.02266   0.00000   0.02900   0.02913   1.99621
    A5        2.25172  -0.03073   0.00000  -0.04933  -0.04904   2.20268
    A6        1.85057  -0.00133   0.00000   0.04109   0.04168   1.89224
    A7        1.78104   0.00171   0.00000   0.01254   0.01284   1.79388
    A8        2.18704  -0.01830   0.00000  -0.06304  -0.06271   2.12433
    A9        1.40131   0.01408   0.00000   0.00000   0.00026   1.40157
   A10        2.16974  -0.00233   0.00000  -0.00464  -0.00464   2.16510
   A11        2.00337   0.00544   0.00000   0.00739   0.00738   2.01076
   A12        2.11007  -0.00311   0.00000  -0.00275  -0.00275   2.10731
   A13        1.99750  -0.00297   0.00000  -0.09949  -0.10056   1.89694
   A14        0.72146   0.00098   0.00000  -0.00541  -0.00811   0.71335
   A15        1.81102   0.00842   0.00000  -0.01451  -0.00982   1.80120
   A16        2.58612   0.00528   0.00000  -0.02877  -0.03270   2.55341
   A17        1.58937  -0.00070   0.00000   0.11148   0.11277   1.70214
   A18        1.61674  -0.01100   0.00000  -0.01498  -0.01568   1.60106
   A19        2.07061   0.00384   0.00000   0.02270   0.01935   2.08996
    D1       -2.12006  -0.00586   0.00000  -0.12756  -0.12824  -2.24830
    D2        1.91056  -0.00344   0.00000  -0.13069  -0.13146   1.77910
    D3        0.33286  -0.01194   0.00000  -0.14961  -0.14832   0.18454
    D4        0.64615   0.00257   0.00000  -0.07852  -0.07910   0.56705
    D5       -1.60641   0.00500   0.00000  -0.08165  -0.08232  -1.68873
    D6        3.09907  -0.00351   0.00000  -0.10057  -0.09918   2.99989
    D7       -2.80578   0.00901   0.00000  -0.06107  -0.06135  -2.86713
    D8        0.33912   0.00736   0.00000  -0.05776  -0.05804   0.28107
    D9       -0.32897  -0.01234   0.00000  -0.09251  -0.09208  -0.42104
   D10        2.81593  -0.01398   0.00000  -0.08920  -0.08877   2.72716
   D11        1.18158   0.00315   0.00000  -0.09455  -0.09469   1.08689
   D12       -1.95671   0.00150   0.00000  -0.09124  -0.09139  -2.04810
   D13       -0.73110  -0.00561   0.00000  -0.03401  -0.03450  -0.76560
   D14       -3.05083  -0.01330   0.00000  -0.04691  -0.04776  -3.09859
   D15        1.06347   0.00356   0.00000   0.01843   0.01734   1.08081
   D16        1.17724  -0.02795   0.00000   0.05505   0.05359   1.23084
   D17        0.67083  -0.01793   0.00000   0.08519   0.08727   0.75810
   D18       -2.76585  -0.01240   0.00000   0.08603   0.08397  -2.68189
   D19        3.01092  -0.00237   0.00000   0.11617   0.11765   3.12857
   D20       -1.05636   0.00078   0.00000   0.10609   0.10419  -0.95217
   D21       -1.56277   0.01081   0.00000   0.13623   0.13787  -1.42490
   D22       -2.52994   0.00625   0.00000   0.06419   0.06109  -2.46885
   D23       -0.82454  -0.01402   0.00000  -0.01469  -0.01327  -0.83781
   D24       -0.76081  -0.00090   0.00000   0.01959   0.01707  -0.74374
   D25        0.82553  -0.01089   0.00000  -0.03186  -0.03274   0.79279
   D26        1.25689   0.01229   0.00000   0.15403   0.15421   1.41110
   D27        2.33952  -0.01440   0.00000   0.06269   0.06026   2.39978
         Item               Value     Threshold  Converged?
 Maximum Force            0.030735     0.000450     NO 
 RMS     Force            0.012068     0.000300     NO 
 Maximum Displacement     0.315648     0.001800     NO 
 RMS     Displacement     0.093078     0.001200     NO 
 Predicted change in Energy=-1.134595D-02
 GradGradGradGradGradGradGradGradGradGradGradGradGradGradGradGradGradGrad

                          Input orientation:                          
 ---------------------------------------------------------------------
 Center     Atomic      Atomic             Coordinates (Angstroms)
 Number     Number       Type             X           Y           Z
 ---------------------------------------------------------------------
      1          6           0        1.817450    1.042011   -2.376538
      2          6           0        1.008374    0.733769   -1.244794
      3          6           0        1.112862   -0.700385   -0.774581
      4          8           0       -0.104725    2.839637   -1.864538
      5          8           0        0.930992    3.538840   -1.258548
      6          8           0        0.327539   -1.223571   -0.027440
      7          1           0        0.554057    4.425215   -1.128322
      8          1           0        2.496979    1.872775   -2.428583
      9          1           0        1.930548    0.198498   -3.050478
     10          1           0        1.981360   -1.259511   -1.161466
     11          1           0       -0.134104    0.961824   -1.128734
     12          1           0        1.058668    1.580899   -0.539063
 ---------------------------------------------------------------------
                    Distance matrix (angstroms):
                    1          2          3          4          5
     1  C    0.000000
     2  C    1.424943   0.000000
     3  C    2.469545   1.512883   0.000000
     4  O    2.681111   2.461250   3.899009   0.000000
     5  O    2.875737   2.806172   4.270635   1.388819   0.000000
     6  O    3.587612   2.403470   1.203610   4.480116   4.955839
     7  H    3.821030   3.721121   5.168091   1.868172   0.971956
     8  H    1.074541   2.216898   3.357477   2.832284   2.568477
     9  H    1.085588   2.097002   2.579982   3.538984   3.920205
    10  H    2.607733   2.219642   1.102992   4.652856   4.912929
    11  H    2.317760   1.170785   2.107910   2.017040   2.791467
    12  H    2.059724   1.103727   2.294048   2.166746   2.089855
                    6          7          8          9         10
     6  O    0.000000
     7  H    5.759517   0.000000
     8  H    4.478763   3.461296   0.000000
     9  H    3.705493   4.842989   1.873713   0.000000
    10  H    2.005600   5.861263   3.417992   2.386784   0.000000
    11  H    2.490365   3.531096   3.072790   2.922081   3.067668
    12  H    2.943019   2.948218   2.392534   2.996400   3.050684
                   11         12
    11  H    0.000000
    12  H    1.467539   0.000000
 Stoichiometry    C3H6O3
 Framework group  C1[X(C3H6O3)]
 Deg. of freedom    30
 Full point group                 C1      NOp   1
 Largest Abelian subgroup         C1      NOp   1
 Largest concise Abelian subgroup C1      NOp   1
                         Standard orientation:                         
 ---------------------------------------------------------------------
 Center     Atomic      Atomic             Coordinates (Angstroms)
 Number     Number       Type             X           Y           Z
 ---------------------------------------------------------------------
      1          6           0        0.125615    1.461782    0.141893
      2          6           0       -0.421373    0.158381   -0.038138
      3          6           0       -1.930560    0.122888   -0.137682
      4          8           0        1.816955   -0.539220    0.710856
      5          8           0        2.299088   -0.283081   -0.566155
      6          8           0       -2.590507   -0.876579   -0.018465
      7          1           0        3.139808   -0.770334   -0.587878
      8          1           0        0.914066    1.877283   -0.458391
      9          1           0       -0.526973    2.112267    0.715913
     10          1           0       -2.411080    1.095134   -0.338754
     11          1           0       -0.182168   -0.787434    0.609127
     12          1           0        0.219981   -0.394181   -0.746343
 ---------------------------------------------------------------------
 Rotational constants (GHZ):           7.1573306           1.5569091           1.3898718
 Standard basis: 6-31+G(d) (6D, 7F)
 There are   126 symmetry adapted cartesian basis functions of A   symmetry.
 There are   126 symmetry adapted basis functions of A   symmetry.
   126 basis functions,   216 primitive gaussians,   126 cartesian basis functions
    24 alpha electrons       24 beta electrons
       nuclear repulsion energy       223.8421151181 Hartrees.
 NAtoms=   12 NActive=   12 NUniq=   12 SFac= 1.00D+00 NAtFMM=   60 NAOKFM=F Big=F
 Integral buffers will be    131072 words long.
 Raffenetti 2 integral format.
 Two-electron integral symmetry is turned on.
 One-electron integrals computed using PRISM.
 NBasis=   126 RedAO= T EigKep=  7.80D-05  NBF=   126
 NBsUse=   126 1.00D-06 EigRej= -1.00D+00 NBFU=   126
 Initial guess from the checkpoint file:  "/scratch/bell/zhao922/YARP/paper-example/KHP-network/pp_0/TS-folder/Gau-4203.chk"
 B after Tr=     0.000000    0.000000   -0.000000
         Rot=    0.999616    0.026981   -0.003116   -0.005445 Ang=   3.17 deg.
 ExpMin= 4.38D-02 ExpMax= 5.48D+03 ExpMxC= 8.25D+02 IAcc=3 IRadAn=         5 AccDes= 0.00D+00
 Harris functional with IExCor=  402 and IRadAn=       5 diagonalized for initial guess.
 HarFok:  IExCor=  402 AccDes= 0.00D+00 IRadAn=         5 IDoV= 1 UseB2=F ITyADJ=14
 ICtDFT=  3500011 ScaDFX=  1.000000  1.000000  1.000000  1.000000
 FoFCou: FMM=F IPFlag=           0 FMFlag=      100000 FMFlg1=           0
         NFxFlg=           0 DoJE=T BraDBF=F KetDBF=T FulRan=T
         wScrn=  0.000000 ICntrl=       500 IOpCl=  0 I1Cent=   200000004 NGrid=           0
         NMat0=    1 NMatS0=      1 NMatT0=    0 NMatD0=    1 NMtDS0=    0 NMtDT0=    0
 Petite list used in FoFCou.
 Keep R1 ints in memory in canonical form, NReq=47237537.
 Requested convergence on RMS density matrix=1.00D-08 within 128 cycles.
 Requested convergence on MAX density matrix=1.00D-06.
 Requested convergence on             energy=1.00D-06.
 No special actions if energy rises.
 SCF Done:  E(RB3LYP) =  -343.332836151     A.U. after   15 cycles
            NFock= 15  Conv=0.38D-08     -V/T= 2.0089
 DoSCS=F DFT=T ScalE2(SS,OS)=  1.000000  1.000000
 Range of M.O.s used for correlation:     1   126
 NBasis=   126 NAE=    24 NBE=    24 NFC=     0 NFV=     0
 NROrb=    126 NOA=    24 NOB=    24 NVA=   102 NVB=   102

 **** Warning!!: The largest alpha MO coefficient is  0.37815715D+02


 **** Warning!!: The smallest alpha delta epsilon is  0.72777070D-01

 Symmetrizing basis deriv contribution to polar:
 IMax=3 JMax=2 DiffMx= 0.00D+00
 G2DrvN: will do    13 centers at a time, making    1 passes.
 Calling FoFCou, ICntrl=  3107 FMM=F I1Cent=   0 AccDes= 0.00D+00.
 End of G2Drv F.D. properties file   721 does not exist.
 End of G2Drv F.D. properties file   722 does not exist.
 End of G2Drv F.D. properties file   788 does not exist.
          IDoAtm=111111111111
          Differentiating once with respect to electric field.
                with respect to dipole field.
          Differentiating once with respect to nuclear coordinates.
 Keep R1 ints in memory in canonical form, NReq=47193559.
          There are    39 degrees of freedom in the 1st order CPHF.  IDoFFX=6 NUNeed=     3.
     36 vectors produced by pass  0 Test12= 6.28D-15 2.56D-09 XBig12= 5.56D+02 2.17D+01.
 AX will form    36 AO Fock derivatives at one time.
     36 vectors produced by pass  1 Test12= 6.28D-15 2.56D-09 XBig12= 3.12D+02 4.12D+00.
     36 vectors produced by pass  2 Test12= 6.28D-15 2.56D-09 XBig12= 3.11D+00 3.47D-01.
     36 vectors produced by pass  3 Test12= 6.28D-15 2.56D-09 XBig12= 1.05D-02 1.49D-02.
     36 vectors produced by pass  4 Test12= 6.28D-15 2.56D-09 XBig12= 1.29D-05 4.98D-04.
     27 vectors produced by pass  5 Test12= 6.28D-15 2.56D-09 XBig12= 1.21D-08 1.29D-05.
      3 vectors produced by pass  6 Test12= 6.28D-15 2.56D-09 XBig12= 9.86D-12 3.85D-07.
      3 vectors produced by pass  7 Test12= 6.28D-15 2.56D-09 XBig12= 7.77D-15 1.07D-08.
 InvSVY:  IOpt=1 It=  1 EMax= 7.11D-15
 Solved reduced A of dimension   213 with    39 vectors.
 Isotropic polarizability for W=    0.000000       70.62 Bohr**3.
 End of Minotr F.D. properties file   721 does not exist.
 End of Minotr F.D. properties file   722 does not exist.
 End of Minotr F.D. properties file   788 does not exist.
 Calling FoFJK, ICntrl=    100127 FMM=F ISym2X=0 I1Cent= 0 IOpClX= 0 NMat=1 NMatS=1 NMatT=0.
 ***** Axes restored to original set *****
 -------------------------------------------------------------------
 Center     Atomic                   Forces (Hartrees/Bohr)
 Number     Number              X              Y              Z
 -------------------------------------------------------------------
      1        6          -0.022779806   -0.015471704   -0.001516207
      2        6          -0.018528561    0.012585588    0.024956858
      3        6           0.008739155    0.004810534    0.001477812
      4        8          -0.001386439   -0.001996106   -0.018719184
      5        8           0.000656561    0.004397872    0.009470755
      6        8          -0.008004515   -0.005478267    0.009148157
      7        1           0.000160876    0.004029793    0.001240190
      8        1          -0.004103787    0.009975368   -0.004077674
      9        1           0.008527236    0.004593225   -0.009962737
     10        1           0.001495315   -0.005054991   -0.002225926
     11        1           0.012680325   -0.000080433   -0.028216986
     12        1           0.022543640   -0.012310879    0.018424942
 -------------------------------------------------------------------
 Cartesian Forces:  Max     0.028216986 RMS     0.011741702
 FormGI is forming the generalized inverse of G from B-inverse, IUseBI=4.

 GradGradGradGradGradGradGradGradGradGradGradGradGradGradGradGradGradGrad
 Berny optimization.
 Internal  Forces:  Max     0.023133062 RMS     0.008265120
 Search for a saddle point.
 Step number   2 out of a maximum of  100
 All quantities printed in internal units (Hartrees-Bohrs-Radians)
 Swapping is turned off.
 Second derivative matrix not updated -- analytic derivatives used.
 ITU=  0  0
     Eigenvalues ---   -0.04906  -0.00182   0.00079   0.00140   0.00799
     Eigenvalues ---    0.00958   0.01176   0.01602   0.02350   0.02540
     Eigenvalues ---    0.02975   0.04654   0.04962   0.06032   0.07806
     Eigenvalues ---    0.10711   0.12059   0.14435   0.14959   0.15803
     Eigenvalues ---    0.21788   0.26378   0.27327   0.31882   0.32505
     Eigenvalues ---    0.36543   0.39509   0.42443   0.49334   0.91474
 Eigenvectors required to have negative eigenvalues:
                          D16       D18       D17       A17       A16
   1                   -0.37913  -0.32409  -0.27174  -0.25633   0.24787
                          D27       D19       A5        D20       R10
   1                   -0.24554  -0.21671  -0.20448  -0.20257   0.20119
 RFO step:  Lambda0=1.241677859D-02 Lambda=-3.45060982D-02.
 Linear search not attempted -- option 19 set.
 Maximum step size (   0.300) exceeded in Quadratic search.
    -- Step size scaled by   0.475
 Iteration  1 RMS(Cart)=  0.07404498 RMS(Int)=  0.00326831
 Iteration  2 RMS(Cart)=  0.00352740 RMS(Int)=  0.00129484
 Iteration  3 RMS(Cart)=  0.00000600 RMS(Int)=  0.00129483
 Iteration  4 RMS(Cart)=  0.00000001 RMS(Int)=  0.00129483
 Variable       Old X    -DE/DX   Delta X   Delta X   Delta X     New X
                                 (Linear)    (Quad)   (Total)
    R1        2.69275   0.00174   0.00000  -0.01330  -0.01330   2.67945
    R2        2.03059   0.00531   0.00000   0.00669   0.00669   2.03728
    R3        2.05146   0.00350   0.00000   0.00315   0.00315   2.05461
    R4        2.85893   0.00819   0.00000   0.00130   0.00130   2.86023
    R5        2.21246  -0.01470   0.00000   0.00064   0.00313   2.21559
    R6        2.08574   0.00067   0.00000   0.00132   0.00070   2.08644
    R7        2.27449   0.01328   0.00000   0.00625   0.00625   2.28074
    R8        2.08435   0.00452   0.00000   0.00578   0.00578   2.09013
    R9        2.62449   0.01058   0.00000   0.01594   0.01554   2.64003
   R10        3.81165  -0.00083   0.00000  -0.17921  -0.17923   3.63242
   R11        4.09456   0.00811   0.00000   0.12987   0.12991   4.22446
   R12        1.83673   0.00378   0.00000   0.00280   0.00280   1.83953
   R13        3.94925   0.00200   0.00000  -0.03991  -0.04074   3.90852
    A1        2.17096  -0.00806   0.00000  -0.01329  -0.01392   2.15705
    A2        1.96507   0.01923   0.00000   0.04915   0.04852   2.01360
    A3        2.09992  -0.00875   0.00000  -0.01761  -0.01826   2.08166
    A4        1.99621   0.01549   0.00000   0.03272   0.03296   2.02918
    A5        2.20268  -0.02313   0.00000  -0.08880  -0.08821   2.11447
    A6        1.89224  -0.00062   0.00000   0.03038   0.03008   1.92233
    A7        1.79388   0.00292   0.00000   0.03158   0.03131   1.82519
    A8        2.12433  -0.01254   0.00000  -0.04140  -0.04135   2.08298
    A9        1.40157   0.01093   0.00000   0.00946   0.01147   1.41304
   A10        2.16510  -0.00166   0.00000  -0.00200  -0.00200   2.16310
   A11        2.01076   0.00346   0.00000   0.00357   0.00356   2.01432
   A12        2.10731  -0.00179   0.00000  -0.00159  -0.00159   2.10572
   A13        1.89694  -0.00205   0.00000  -0.05828  -0.06089   1.83605
   A14        0.71335   0.00140   0.00000   0.00169  -0.00120   0.71216
   A15        1.80120   0.00556   0.00000  -0.00762  -0.00208   1.79912
   A16        2.55341   0.00226   0.00000  -0.06782  -0.06968   2.48373
   A17        1.70214   0.00013   0.00000   0.10179   0.10386   1.80600
   A18        1.60106  -0.00906   0.00000  -0.04980  -0.04984   1.55123
   A19        2.08996   0.00068   0.00000  -0.02183  -0.02465   2.06531
    D1       -2.24830  -0.00603   0.00000  -0.12033  -0.12108  -2.36938
    D2        1.77910  -0.00404   0.00000  -0.11242  -0.11269   1.66641
    D3        0.18454  -0.00955   0.00000  -0.11596  -0.11508   0.06946
    D4        0.56705   0.00096   0.00000  -0.06134  -0.06199   0.50506
    D5       -1.68873   0.00295   0.00000  -0.05343  -0.05360  -1.74233
    D6        2.99989  -0.00256   0.00000  -0.05697  -0.05600   2.94390
    D7       -2.86713   0.00583   0.00000  -0.06758  -0.06791  -2.93504
    D8        0.28107   0.00502   0.00000  -0.06349  -0.06382   0.21725
    D9       -0.42104  -0.01021   0.00000  -0.13320  -0.13317  -0.55421
   D10        2.72716  -0.01102   0.00000  -0.12911  -0.12908   2.59808
   D11        1.08689   0.00221   0.00000  -0.11064  -0.11034   0.97655
   D12       -2.04810   0.00139   0.00000  -0.10655  -0.10625  -2.15435
   D13       -0.76560  -0.00408   0.00000  -0.00190  -0.00260  -0.76820
   D14       -3.09859  -0.00903   0.00000  -0.00316  -0.00384  -3.10243
   D15        1.08081   0.00226   0.00000   0.03988   0.03829   1.11910
   D16        1.23084  -0.01946   0.00000   0.01159   0.01126   1.24209
   D17        0.75810  -0.01078   0.00000   0.05713   0.05764   0.81574
   D18       -2.68189  -0.00910   0.00000   0.05581   0.05498  -2.62690
   D19        3.12857  -0.00043   0.00000   0.10136   0.10136  -3.05325
   D20       -0.95217   0.00181   0.00000   0.10173   0.10038  -0.85179
   D21       -1.42490   0.01049   0.00000   0.14728   0.14676  -1.27814
   D22       -2.46885   0.00478   0.00000   0.09040   0.08852  -2.38033
   D23       -0.83781  -0.00837   0.00000  -0.01802  -0.01816  -0.85597
   D24       -0.74374   0.00019   0.00000   0.00934   0.00742  -0.73631
   D25        0.79279  -0.00757   0.00000  -0.02583  -0.02628   0.76652
   D26        1.41110   0.01012   0.00000   0.10403   0.10239   1.51349
   D27        2.39978  -0.00981   0.00000   0.01360   0.01158   2.41136
         Item               Value     Threshold  Converged?
 Maximum Force            0.023133     0.000450     NO 
 RMS     Force            0.008265     0.000300     NO 
 Maximum Displacement     0.205704     0.001800     NO 
 RMS     Displacement     0.074547     0.001200     NO 
 Predicted change in Energy=-1.167559D-02
 GradGradGradGradGradGradGradGradGradGradGradGradGradGradGradGradGradGrad

                          Input orientation:                          
 ---------------------------------------------------------------------
 Center     Atomic      Atomic             Coordinates (Angstroms)
 Number     Number       Type             X           Y           Z
 ---------------------------------------------------------------------
      1          6           0        1.843810    1.025488   -2.394319
      2          6           0        1.051917    0.740077   -1.253311
      3          6           0        1.090568   -0.687274   -0.751243
      4          8           0       -0.103281    2.822876   -1.922127
      5          8           0        0.900791    3.504331   -1.229897
      6          8           0        0.326577   -1.133753    0.069502
      7          1           0        0.482926    4.357962   -1.019468
      8          1           0        2.464901    1.901985   -2.485198
      9          1           0        1.998538    0.191472   -3.074465
     10          1           0        1.888728   -1.320423   -1.181831
     11          1           0       -0.081628    1.036732   -1.212160
     12          1           0        1.116152    1.570524   -0.528564
 ---------------------------------------------------------------------
                    Distance matrix (angstroms):
                    1          2          3          4          5
     1  C    0.000000
     2  C    1.417905   0.000000
     3  C    2.490106   1.513571   0.000000
     4  O    2.691604   2.473832   3.888109   0.000000
     5  O    2.896520   2.768481   4.223112   1.397041   0.000000
     6  O    3.610365   2.405658   1.206917   4.450424   4.850771
     7  H    3.853259   3.669812   5.088770   1.874813   0.973435
     8  H    1.078081   2.205470   3.405827   2.785794   2.567048
     9  H    1.087255   2.124538   2.644611   3.559468   3.947470
    10  H    2.641106   2.225089   1.106048   4.656507   4.925097
    11  H    2.259411   1.172442   2.135107   1.922194   2.656032
    12  H    2.075474   1.104095   2.268897   2.235490   2.068298
                    6          7          8          9         10
     6  O    0.000000
     7  H    5.600824   0.000000
     8  H    4.507175   3.479714   0.000000
     9  H    3.799501   4.886689   1.868310   0.000000
    10  H    2.010223   5.852067   3.523443   2.424860   0.000000
    11  H    2.553487   3.374377   2.975583   2.917145   3.072361
    12  H    2.879970   2.900305   2.399459   3.026880   3.062875
                   11         12
    11  H    0.000000
    12  H    1.478821   0.000000
 Stoichiometry    C3H6O3
 Framework group  C1[X(C3H6O3)]
 Deg. of freedom    30
 Full point group                 C1      NOp   1
 Largest Abelian subgroup         C1      NOp   1
 Largest concise Abelian subgroup C1      NOp   1
                         Standard orientation:                         
 ---------------------------------------------------------------------
 Center     Atomic      Atomic             Coordinates (Angstroms)
 Number     Number       Type             X           Y           Z
 ---------------------------------------------------------------------
      1          6           0        0.126686    1.506055    0.076724
      2          6           0       -0.417227    0.203429   -0.056619
      3          6           0       -1.927156    0.109714   -0.103810
      4          8           0        1.820370   -0.473773    0.752334
      5          8           0        2.243156   -0.361132   -0.574425
      6          8           0       -2.541350   -0.924814   -0.008080
      7          1           0        3.027523   -0.936795   -0.605353
      8          1           0        0.965328    1.863979   -0.498452
      9          1           0       -0.500369    2.221020    0.603745
     10          1           0       -2.458075    1.069580   -0.245679
     11          1           0       -0.089795   -0.666581    0.657867
     12          1           0        0.184169   -0.388632   -0.768527
 ---------------------------------------------------------------------
 Rotational constants (GHZ):           6.7608450           1.5947155           1.4099942
 Standard basis: 6-31+G(d) (6D, 7F)
 There are   126 symmetry adapted cartesian basis functions of A   symmetry.
 There are   126 symmetry adapted basis functions of A   symmetry.
   126 basis functions,   216 primitive gaussians,   126 cartesian basis functions
    24 alpha electrons       24 beta electrons
       nuclear repulsion energy       223.8783858862 Hartrees.
 NAtoms=   12 NActive=   12 NUniq=   12 SFac= 1.00D+00 NAtFMM=   60 NAOKFM=F Big=F
 Integral buffers will be    131072 words long.
 Raffenetti 2 integral format.
 Two-electron integral symmetry is turned on.
 One-electron integrals computed using PRISM.
 NBasis=   126 RedAO= T EigKep=  7.57D-05  NBF=   126
 NBsUse=   126 1.00D-06 EigRej= -1.00D+00 NBFU=   126
 Initial guess from the checkpoint file:  "/scratch/bell/zhao922/YARP/paper-example/KHP-network/pp_0/TS-folder/Gau-4203.chk"
 B after Tr=    -0.000000    0.000000   -0.000000
         Rot=    0.999708    0.024032   -0.002517   -0.000320 Ang=   2.77 deg.
 ExpMin= 4.38D-02 ExpMax= 5.48D+03 ExpMxC= 8.25D+02 IAcc=3 IRadAn=         5 AccDes= 0.00D+00
 Harris functional with IExCor=  402 and IRadAn=       5 diagonalized for initial guess.
 HarFok:  IExCor=  402 AccDes= 0.00D+00 IRadAn=         5 IDoV= 1 UseB2=F ITyADJ=14
 ICtDFT=  3500011 ScaDFX=  1.000000  1.000000  1.000000  1.000000
 FoFCou: FMM=F IPFlag=           0 FMFlag=      100000 FMFlg1=           0
         NFxFlg=           0 DoJE=T BraDBF=F KetDBF=T FulRan=T
         wScrn=  0.000000 ICntrl=       500 IOpCl=  0 I1Cent=   200000004 NGrid=           0
         NMat0=    1 NMatS0=      1 NMatT0=    0 NMatD0=    1 NMtDS0=    0 NMtDT0=    0
 Petite list used in FoFCou.
 Keep R1 ints in memory in canonical form, NReq=47237537.
 Requested convergence on RMS density matrix=1.00D-08 within 128 cycles.
 Requested convergence on MAX density matrix=1.00D-06.
 Requested convergence on             energy=1.00D-06.
 No special actions if energy rises.
 SCF Done:  E(RB3LYP) =  -343.344534653     A.U. after   14 cycles
            NFock= 14  Conv=0.70D-08     -V/T= 2.0091
 DoSCS=F DFT=T ScalE2(SS,OS)=  1.000000  1.000000
 Range of M.O.s used for correlation:     1   126
 NBasis=   126 NAE=    24 NBE=    24 NFC=     0 NFV=     0
 NROrb=    126 NOA=    24 NOB=    24 NVA=   102 NVB=   102

 **** Warning!!: The largest alpha MO coefficient is  0.33467357D+02


 **** Warning!!: The smallest alpha delta epsilon is  0.78002429D-01

 Symmetrizing basis deriv contribution to polar:
 IMax=3 JMax=2 DiffMx= 0.00D+00
 G2DrvN: will do    13 centers at a time, making    1 passes.
 Calling FoFCou, ICntrl=  3107 FMM=F I1Cent=   0 AccDes= 0.00D+00.
 End of G2Drv F.D. properties file   721 does not exist.
 End of G2Drv F.D. properties file   722 does not exist.
 End of G2Drv F.D. properties file   788 does not exist.
          IDoAtm=111111111111
          Differentiating once with respect to electric field.
                with respect to dipole field.
          Differentiating once with respect to nuclear coordinates.
 Keep R1 ints in memory in canonical form, NReq=47193559.
          There are    39 degrees of freedom in the 1st order CPHF.  IDoFFX=6 NUNeed=     3.
     36 vectors produced by pass  0 Test12= 6.28D-15 2.56D-09 XBig12= 4.58D+02 1.94D+01.
 AX will form    36 AO Fock derivatives at one time.
     36 vectors produced by pass  1 Test12= 6.28D-15 2.56D-09 XBig12= 2.48D+02 3.73D+00.
     36 vectors produced by pass  2 Test12= 6.28D-15 2.56D-09 XBig12= 2.52D+00 2.10D-01.
     36 vectors produced by pass  3 Test12= 6.28D-15 2.56D-09 XBig12= 9.12D-03 1.47D-02.
     36 vectors produced by pass  4 Test12= 6.28D-15 2.56D-09 XBig12= 1.24D-05 4.66D-04.
     27 vectors produced by pass  5 Test12= 6.28D-15 2.56D-09 XBig12= 1.22D-08 1.45D-05.
      3 vectors produced by pass  6 Test12= 6.28D-15 2.56D-09 XBig12= 9.24D-12 4.30D-07.
      3 vectors produced by pass  7 Test12= 6.28D-15 2.56D-09 XBig12= 7.07D-15 1.03D-08.
 InvSVY:  IOpt=1 It=  1 EMax= 1.42D-14
 Solved reduced A of dimension   213 with    39 vectors.
 Isotropic polarizability for W=    0.000000       70.05 Bohr**3.
 End of Minotr F.D. properties file   721 does not exist.
 End of Minotr F.D. properties file   722 does not exist.
 End of Minotr F.D. properties file   788 does not exist.
 Calling FoFJK, ICntrl=    100127 FMM=F ISym2X=0 I1Cent= 0 IOpClX= 0 NMat=1 NMatS=1 NMatT=0.
 ***** Axes restored to original set *****
 -------------------------------------------------------------------
 Center     Atomic                   Forces (Hartrees/Bohr)
 Number     Number              X              Y              Z
 -------------------------------------------------------------------
      1        6          -0.011730562   -0.011129874    0.000770338
      2        6          -0.013345513    0.006695243    0.019422598
      3        6           0.003985216    0.002428065   -0.000675862
      4        8          -0.001790565   -0.001870840   -0.012598130
      5        8          -0.001653654    0.001629020    0.005237691
      6        8          -0.003666535   -0.002107308    0.006331585
      7        1          -0.000026991    0.002016395    0.001626696
      8        1          -0.005639690    0.007330053   -0.004136700
      9        1           0.005620139    0.003233759   -0.005922296
     10        1           0.000003239   -0.003443381   -0.001883861
     11        1           0.008863965    0.004410963   -0.022986597
     12        1           0.019380950   -0.009192096    0.014814537
 -------------------------------------------------------------------
 Cartesian Forces:  Max     0.022986597 RMS     0.008577373
 FormGI is forming the generalized inverse of G from B-inverse, IUseBI=4.

 GradGradGradGradGradGradGradGradGradGradGradGradGradGradGradGradGradGrad
 Berny optimization.
 Internal  Forces:  Max     0.016917433 RMS     0.005695052
 Search for a saddle point.
 Step number   3 out of a maximum of  100
 All quantities printed in internal units (Hartrees-Bohrs-Radians)
 Swapping is turned off.
 Second derivative matrix not updated -- analytic derivatives used.
 ITU=  0  0  0
     Eigenvalues ---   -0.04489  -0.00112   0.00083   0.00285   0.00932
     Eigenvalues ---    0.01145   0.01366   0.01561   0.02313   0.02655
     Eigenvalues ---    0.02865   0.04710   0.04886   0.06358   0.07526
     Eigenvalues ---    0.10553   0.11517   0.13918   0.14747   0.15159
     Eigenvalues ---    0.21405   0.26383   0.27281   0.31347   0.31761
     Eigenvalues ---    0.36307   0.38712   0.43320   0.48897   0.89519
 Eigenvectors required to have negative eigenvalues:
                          D16       D18       R10       A16       A17
   1                    0.34946   0.31390  -0.28801  -0.28076   0.27152
                          D17       D20       D19       D27       D23
   1                    0.24869   0.21650   0.21313   0.21162   0.17984
 RFO step:  Lambda0=4.050988036D-03 Lambda=-2.53056172D-02.
 Linear search not attempted -- option 19 set.
 Maximum step size (   0.300) exceeded in Quadratic search.
    -- Step size scaled by   0.403
 Iteration  1 RMS(Cart)=  0.06298704 RMS(Int)=  0.00307213
 Iteration  2 RMS(Cart)=  0.00320070 RMS(Int)=  0.00098009
 Iteration  3 RMS(Cart)=  0.00000625 RMS(Int)=  0.00098008
 Iteration  4 RMS(Cart)=  0.00000000 RMS(Int)=  0.00098008
 Variable       Old X    -DE/DX   Delta X   Delta X   Delta X     New X
                                 (Linear)    (Quad)   (Total)
    R1        2.67945   0.00080   0.00000  -0.00745  -0.00745   2.67200
    R2        2.03728   0.00306   0.00000   0.00336   0.00336   2.04064
    R3        2.05461   0.00202   0.00000   0.00176   0.00176   2.05637
    R4        2.86023   0.00420   0.00000  -0.00736  -0.00736   2.85287
    R5        2.21559  -0.00846   0.00000   0.01323   0.01466   2.23025
    R6        2.08644   0.00090   0.00000  -0.00044   0.00038   2.08682
    R7        2.28074   0.00741   0.00000   0.00400   0.00400   2.28474
    R8        2.09013   0.00271   0.00000   0.00383   0.00383   2.09396
    R9        2.64003   0.00619   0.00000   0.01010   0.00929   2.64931
   R10        3.63242  -0.00318   0.00000  -0.20047  -0.20124   3.43118
   R11        4.22446   0.00730   0.00000   0.11943   0.11879   4.34326
   R12        1.83953   0.00213   0.00000   0.00091   0.00091   1.84044
   R13        3.90852   0.00088   0.00000   0.04973   0.05040   3.95892
    A1        2.15705  -0.00530   0.00000  -0.00923  -0.00967   2.14738
    A2        2.01360   0.01224   0.00000   0.03109   0.03065   2.04425
    A3        2.08166  -0.00542   0.00000  -0.00934  -0.00979   2.07187
    A4        2.02918   0.00990   0.00000   0.02686   0.02717   2.05635
    A5        2.11447  -0.01692   0.00000  -0.10182  -0.10155   2.01291
    A6        1.92233   0.00002   0.00000   0.02269   0.02188   1.94420
    A7        1.82519   0.00347   0.00000   0.03808   0.03707   1.86225
    A8        2.08298  -0.00815   0.00000  -0.02134  -0.02186   2.06112
    A9        1.41304   0.00798   0.00000   0.01789   0.02082   1.43386
   A10        2.16310  -0.00138   0.00000  -0.00173  -0.00173   2.16136
   A11        2.01432   0.00238   0.00000   0.00263   0.00263   2.01695
   A12        2.10572  -0.00100   0.00000  -0.00089  -0.00089   2.10483
   A13        1.83605  -0.00165   0.00000  -0.01996  -0.02283   1.81322
   A14        0.71216   0.00126   0.00000   0.00168  -0.00091   0.71125
   A15        1.79912   0.00368   0.00000  -0.00055   0.00004   1.79916
   A16        2.48373   0.00075   0.00000  -0.02100  -0.02075   2.46298
   A17        1.80600   0.00121   0.00000   0.08030   0.08231   1.88831
   A18        1.55123  -0.00703   0.00000  -0.07506  -0.07398   1.47724
   A19        2.06531  -0.00112   0.00000  -0.05631  -0.05713   2.00818
    D1       -2.36938  -0.00590   0.00000  -0.08680  -0.08724  -2.45661
    D2        1.66641  -0.00419   0.00000  -0.06599  -0.06575   1.60066
    D3        0.06946  -0.00754   0.00000  -0.06296  -0.06284   0.00661
    D4        0.50506  -0.00010   0.00000  -0.03468  -0.03506   0.47001
    D5       -1.74233   0.00161   0.00000  -0.01387  -0.01357  -1.75591
    D6        2.94390  -0.00174   0.00000  -0.01083  -0.01067   2.93323
    D7       -2.93504   0.00372   0.00000  -0.07379  -0.07382  -3.00886
    D8        0.21725   0.00335   0.00000  -0.07376  -0.07380   0.14345
    D9       -0.55421  -0.00818   0.00000  -0.15770  -0.15854  -0.71275
   D10        2.59808  -0.00855   0.00000  -0.15768  -0.15852   2.43956
   D11        0.97655   0.00115   0.00000  -0.12079  -0.11991   0.85663
   D12       -2.15435   0.00078   0.00000  -0.12077  -0.11989  -2.27424
   D13       -0.76820  -0.00283   0.00000   0.02860   0.02806  -0.74014
   D14       -3.10243  -0.00555   0.00000   0.04256   0.04225  -3.06018
   D15        1.11910   0.00134   0.00000   0.06245   0.06079   1.17989
   D16        1.24209  -0.01297   0.00000  -0.02088  -0.02011   1.22198
   D17        0.81574  -0.00614   0.00000   0.03338   0.03287   0.84861
   D18       -2.62690  -0.00627   0.00000   0.02666   0.02688  -2.60002
   D19       -3.05325   0.00056   0.00000   0.08092   0.07986  -2.97339
   D20       -0.85179   0.00241   0.00000   0.08104   0.08067  -0.77113
   D21       -1.27814   0.00924   0.00000   0.13530   0.13365  -1.14450
   D22       -2.38033   0.00368   0.00000   0.04818   0.04819  -2.33214
   D23       -0.85597  -0.00504   0.00000  -0.04251  -0.04484  -0.90081
   D24       -0.73631   0.00076   0.00000  -0.00246  -0.00350  -0.73981
   D25        0.76652  -0.00504   0.00000  -0.00855  -0.00851   0.75801
   D26        1.51349   0.00757   0.00000   0.04811   0.04706   1.56055
   D27        2.41136  -0.00678   0.00000  -0.05351  -0.05307   2.35829
         Item               Value     Threshold  Converged?
 Maximum Force            0.016917     0.000450     NO 
 RMS     Force            0.005695     0.000300     NO 
 Maximum Displacement     0.211375     0.001800     NO 
 RMS     Displacement     0.063737     0.001200     NO 
 Predicted change in Energy=-1.000942D-02
 GradGradGradGradGradGradGradGradGradGradGradGradGradGradGradGradGradGrad

                          Input orientation:                          
 ---------------------------------------------------------------------
 Center     Atomic      Atomic             Coordinates (Angstroms)
 Number     Number       Type             X           Y           Z
 ---------------------------------------------------------------------
      1          6           0        1.859091    1.033345   -2.381617
      2          6           0        1.092919    0.741357   -1.229657
      3          6           0        1.071299   -0.686975   -0.741274
      4          8           0       -0.062779    2.773860   -1.978652
      5          8           0        0.877862    3.483956   -1.219418
      6          8           0        0.353519   -1.083971    0.146953
      7          1           0        0.411662    4.313037   -1.010130
      8          1           0        2.444872    1.934465   -2.486196
      9          1           0        2.011715    0.225040   -3.094007
     10          1           0        1.776873   -1.375835   -1.246713
     11          1           0       -0.029328    1.105009   -1.264095
     12          1           0        1.172294    1.546711   -0.478276
 ---------------------------------------------------------------------
                    Distance matrix (angstroms):
                    1          2          3          4          5
     1  C    0.000000
     2  C    1.413962   0.000000
     3  C    2.504165   1.509674   0.000000
     4  O    2.623997   2.455138   3.846377   0.000000
     5  O    2.884270   2.751037   4.202702   1.401955   0.000000
     6  O    3.625388   2.402829   1.209033   4.424292   4.796651
     7  H    3.838282   3.642692   5.050497   1.879413   0.973919
     8  H    1.079858   2.197766   3.435608   2.692676   2.541883
     9  H    1.088186   2.141628   2.692862   3.470450   3.926861
    10  H    2.664379   2.224991   1.108076   4.597828   4.942321
    11  H    2.195477   1.180198   2.167009   1.815702   2.546445
    12  H    2.087569   1.104296   2.251382   2.298353   2.094970
                    6          7          8          9         10
     6  O    0.000000
     7  H    5.519956   0.000000
     8  H    4.518649   3.459815   0.000000
     9  H    3.868713   4.859468   1.865260   0.000000
    10  H    2.013312   5.855172   3.597309   2.455697   0.000000
    11  H    2.632349   3.248140   2.881527   2.879024   3.068754
    12  H    2.825207   2.917874   2.408641   3.048523   3.081767
                   11         12
    11  H    0.000000
    12  H    1.502168   0.000000
 Stoichiometry    C3H6O3
 Framework group  C1[X(C3H6O3)]
 Deg. of freedom    30
 Full point group                 C1      NOp   1
 Largest Abelian subgroup         C1      NOp   1
 Largest concise Abelian subgroup C1      NOp   1
                         Standard orientation:                         
 ---------------------------------------------------------------------
 Center     Atomic      Atomic             Coordinates (Angstroms)
 Number     Number       Type             X           Y           Z
 ---------------------------------------------------------------------
      1          6           0        0.158700    1.504906    0.005594
      2          6           0       -0.417351    0.217277   -0.091696
      3          6           0       -1.923251    0.114999   -0.061347
      4          8           0        1.795874   -0.395174    0.776775
      5          8           0        2.212688   -0.439070   -0.561065
      6          8           0       -2.525923   -0.931517   -0.003459
      7          1           0        2.966807   -1.054897   -0.536950
      8          1           0        1.023662    1.807564   -0.565662
      9          1           0       -0.416011    2.267431    0.527524
     10          1           0       -2.468918    1.078344   -0.106582
     11          1           0       -0.007819   -0.578555    0.677592
     12          1           0        0.132587   -0.416893   -0.809237
 ---------------------------------------------------------------------
 Rotational constants (GHZ):           6.7138438           1.6202275           1.4294891
 Standard basis: 6-31+G(d) (6D, 7F)
 There are   126 symmetry adapted cartesian basis functions of A   symmetry.
 There are   126 symmetry adapted basis functions of A   symmetry.
   126 basis functions,   216 primitive gaussians,   126 cartesian basis functions
    24 alpha electrons       24 beta electrons
       nuclear repulsion energy       224.5559823610 Hartrees.
 NAtoms=   12 NActive=   12 NUniq=   12 SFac= 1.00D+00 NAtFMM=   60 NAOKFM=F Big=F
 Integral buffers will be    131072 words long.
 Raffenetti 2 integral format.
 Two-electron integral symmetry is turned on.
 One-electron integrals computed using PRISM.
 NBasis=   126 RedAO= T EigKep=  7.56D-05  NBF=   126
 NBsUse=   126 1.00D-06 EigRej= -1.00D+00 NBFU=   126
 Initial guess from the checkpoint file:  "/scratch/bell/zhao922/YARP/paper-example/KHP-network/pp_0/TS-folder/Gau-4203.chk"
 B after Tr=    -0.000000    0.000000    0.000000
         Rot=    0.999721    0.023353   -0.000859    0.003522 Ang=   2.71 deg.
 ExpMin= 4.38D-02 ExpMax= 5.48D+03 ExpMxC= 8.25D+02 IAcc=3 IRadAn=         5 AccDes= 0.00D+00
 Harris functional with IExCor=  402 and IRadAn=       5 diagonalized for initial guess.
 HarFok:  IExCor=  402 AccDes= 0.00D+00 IRadAn=         5 IDoV= 1 UseB2=F ITyADJ=14
 ICtDFT=  3500011 ScaDFX=  1.000000  1.000000  1.000000  1.000000
 FoFCou: FMM=F IPFlag=           0 FMFlag=      100000 FMFlg1=           0
         NFxFlg=           0 DoJE=T BraDBF=F KetDBF=T FulRan=T
         wScrn=  0.000000 ICntrl=       500 IOpCl=  0 I1Cent=   200000004 NGrid=           0
         NMat0=    1 NMatS0=      1 NMatT0=    0 NMatD0=    1 NMtDS0=    0 NMtDT0=    0
 Petite list used in FoFCou.
 Keep R1 ints in memory in canonical form, NReq=47237537.
 Requested convergence on RMS density matrix=1.00D-08 within 128 cycles.
 Requested convergence on MAX density matrix=1.00D-06.
 Requested convergence on             energy=1.00D-06.
 No special actions if energy rises.
 SCF Done:  E(RB3LYP) =  -343.354533777     A.U. after   14 cycles
            NFock= 14  Conv=0.78D-08     -V/T= 2.0091
 DoSCS=F DFT=T ScalE2(SS,OS)=  1.000000  1.000000
 Range of M.O.s used for correlation:     1   126
 NBasis=   126 NAE=    24 NBE=    24 NFC=     0 NFV=     0
 NROrb=    126 NOA=    24 NOB=    24 NVA=   102 NVB=   102

 **** Warning!!: The largest alpha MO coefficient is  0.33407290D+02


 **** Warning!!: The smallest alpha delta epsilon is  0.87127552D-01

 Symmetrizing basis deriv contribution to polar:
 IMax=3 JMax=2 DiffMx= 0.00D+00
 G2DrvN: will do    13 centers at a time, making    1 passes.
 Calling FoFCou, ICntrl=  3107 FMM=F I1Cent=   0 AccDes= 0.00D+00.
 End of G2Drv F.D. properties file   721 does not exist.
 End of G2Drv F.D. properties file   722 does not exist.
 End of G2Drv F.D. properties file   788 does not exist.
          IDoAtm=111111111111
          Differentiating once with respect to electric field.
                with respect to dipole field.
          Differentiating once with respect to nuclear coordinates.
 Keep R1 ints in memory in canonical form, NReq=47193559.
          There are    39 degrees of freedom in the 1st order CPHF.  IDoFFX=6 NUNeed=     3.
     36 vectors produced by pass  0 Test12= 6.28D-15 2.56D-09 XBig12= 3.38D+02 1.57D+01.
 AX will form    36 AO Fock derivatives at one time.
     36 vectors produced by pass  1 Test12= 6.28D-15 2.56D-09 XBig12= 1.72D+02 3.07D+00.
     36 vectors produced by pass  2 Test12= 6.28D-15 2.56D-09 XBig12= 1.87D+00 2.25D-01.
     36 vectors produced by pass  3 Test12= 6.28D-15 2.56D-09 XBig12= 7.21D-03 1.42D-02.
     36 vectors produced by pass  4 Test12= 6.28D-15 2.56D-09 XBig12= 9.57D-06 3.94D-04.
     26 vectors produced by pass  5 Test12= 6.28D-15 2.56D-09 XBig12= 9.31D-09 1.25D-05.
      3 vectors produced by pass  6 Test12= 6.28D-15 2.56D-09 XBig12= 7.77D-12 3.67D-07.
      3 vectors produced by pass  7 Test12= 6.28D-15 2.56D-09 XBig12= 6.34D-15 9.54D-09.
 InvSVY:  IOpt=1 It=  1 EMax= 7.11D-15
 Solved reduced A of dimension   212 with    39 vectors.
 Isotropic polarizability for W=    0.000000       68.74 Bohr**3.
 End of Minotr F.D. properties file   721 does not exist.
 End of Minotr F.D. properties file   722 does not exist.
 End of Minotr F.D. properties file   788 does not exist.
 Calling FoFJK, ICntrl=    100127 FMM=F ISym2X=0 I1Cent= 0 IOpClX= 0 NMat=1 NMatS=1 NMatT=0.
 ***** Axes restored to original set *****
 -------------------------------------------------------------------
 Center     Atomic                   Forces (Hartrees/Bohr)
 Number     Number              X              Y              Z
 -------------------------------------------------------------------
      1        6          -0.006317148   -0.008078075    0.001373579
      2        6          -0.009349649    0.003520051    0.016066997
      3        6           0.001672251    0.001216368   -0.001766342
      4        8          -0.002286898   -0.002879173   -0.009176375
      5        8          -0.001958640    0.001690331    0.003721067
      6        8          -0.001415191   -0.000881701    0.004755855
      7        1          -0.000159435    0.001163662    0.001016835
      8        1          -0.005611868    0.005508979   -0.003519474
      9        1           0.003909501    0.002343029   -0.003773170
     10        1          -0.000907821   -0.002432197   -0.001737737
     11        1           0.006828762    0.007027707   -0.018598255
     12        1           0.015596136   -0.008198979    0.011637020
 -------------------------------------------------------------------
 Cartesian Forces:  Max     0.018598255 RMS     0.006719114
 FormGI is forming the generalized inverse of G from B-inverse, IUseBI=4.

 GradGradGradGradGradGradGradGradGradGradGradGradGradGradGradGradGradGrad
 Berny optimization.
 Internal  Forces:  Max     0.012657696 RMS     0.004174205
 Search for a saddle point.
 Step number   4 out of a maximum of  100
 All quantities printed in internal units (Hartrees-Bohrs-Radians)
 Swapping is turned off.
 Second derivative matrix not updated -- analytic derivatives used.
 ITU=  0  0  0  0
     Eigenvalues ---   -0.04838  -0.00096   0.00097   0.00524   0.00927
     Eigenvalues ---    0.01162   0.01350   0.01711   0.02297   0.02861
     Eigenvalues ---    0.02873   0.04895   0.05020   0.06503   0.07557
     Eigenvalues ---    0.10417   0.11164   0.13431   0.14229   0.14717
     Eigenvalues ---    0.21168   0.26420   0.27670   0.31002   0.31649
     Eigenvalues ---    0.36184   0.38318   0.43912   0.48795   0.88368
 Eigenvectors required to have negative eigenvalues:
                          R10       D16       D18       A17       A16
   1                   -0.34824   0.33253   0.29820   0.27857  -0.26663
                          D17       D20       D19       R5        D27
   1                    0.23741   0.22428   0.20307   0.17672   0.17631
 RFO step:  Lambda0=1.028175042D-03 Lambda=-1.90323428D-02.
 Linear search not attempted -- option 19 set.
 Maximum step size (   0.300) exceeded in Quadratic search.
    -- Step size scaled by   0.372
 Iteration  1 RMS(Cart)=  0.05658120 RMS(Int)=  0.00244084
 Iteration  2 RMS(Cart)=  0.00235958 RMS(Int)=  0.00096935
 Iteration  3 RMS(Cart)=  0.00000223 RMS(Int)=  0.00096934
 Iteration  4 RMS(Cart)=  0.00000000 RMS(Int)=  0.00096934
 Variable       Old X    -DE/DX   Delta X   Delta X   Delta X     New X
                                 (Linear)    (Quad)   (Total)
    R1        2.67200   0.00043   0.00000  -0.00314  -0.00314   2.66886
    R2        2.04064   0.00189   0.00000   0.00183   0.00183   2.04246
    R3        2.05637   0.00128   0.00000   0.00120   0.00120   2.05757
    R4        2.85287   0.00240   0.00000  -0.00937  -0.00937   2.84350
    R5        2.23025  -0.00464   0.00000   0.02124   0.02248   2.25273
    R6        2.08682   0.00055   0.00000  -0.00334  -0.00227   2.08454
    R7        2.28474   0.00462   0.00000   0.00314   0.00314   2.28788
    R8        2.09396   0.00173   0.00000   0.00257   0.00257   2.09653
[...]
   D27        0.44486   0.00000   0.00000  -0.00005  -0.00005   0.44481
         Item               Value     Threshold  Converged?
 Maximum Force            0.000003     0.000450     YES
 RMS     Force            0.000001     0.000300     YES
 Maximum Displacement     0.000125     0.001800     YES
 RMS     Displacement     0.000035     0.001200     YES
 Predicted change in Energy=-3.493074D-10
 Optimization completed.
    -- Stationary point found.
                           ----------------------------
                           !   Optimized Parameters   !
                           ! (Angstroms and Degrees)  !
 --------------------------                            --------------------------
 ! Name  Definition              Value          Derivative Info.                !
 --------------------------------------------------------------------------------
 ! R1    R(1,2)                  1.455          -DE/DX =    0.0                 !
 ! R2    R(1,8)                  1.0884         -DE/DX =    0.0                 !
 ! R3    R(1,9)                  1.09           -DE/DX =    0.0                 !
 ! R4    R(2,3)                  1.4586         -DE/DX =    0.0                 !
 ! R5    R(2,11)                 1.6332         -DE/DX =    0.0                 !
 ! R6    R(2,12)                 1.0885         -DE/DX =    0.0                 !
 ! R7    R(3,6)                  1.2229         -DE/DX =    0.0                 !
 ! R8    R(3,10)                 1.1146         -DE/DX =    0.0                 !
 ! R9    R(4,5)                  1.5983         -DE/DX =    0.0                 !
 ! R10   R(4,11)                 1.1342         -DE/DX =    0.0                 !
 ! R11   R(4,12)                 2.8385         -DE/DX =    0.0                 !
 ! R12   R(5,7)                  0.9763         -DE/DX =    0.0                 !
 ! R13   R(5,12)                 4.274          -DE/DX =    0.0                 !
 ! A1    A(2,1,8)              118.122          -DE/DX =    0.0                 !
 ! A2    A(2,1,9)              117.9724         -DE/DX =    0.0                 !
 ! A3    A(8,1,9)              113.0526         -DE/DX =    0.0                 !
 ! A4    A(1,2,3)              120.4809         -DE/DX =    0.0                 !
 ! A5    A(1,2,11)              77.0115         -DE/DX =    0.0                 !
 ! A6    A(1,2,12)             119.1721         -DE/DX =    0.0                 !
 ! A7    A(3,2,11)             107.6123         -DE/DX =    0.0                 !
 ! A8    A(3,2,12)             117.7131         -DE/DX =    0.0                 !
 ! A9    A(11,2,12)            101.3053         -DE/DX =    0.0                 !
 ! A10   A(2,3,6)              125.0601         -DE/DX =    0.0                 !
 ! A11   A(2,3,10)             114.8592         -DE/DX =    0.0                 !
 ! A12   A(6,3,10)             120.0772         -DE/DX =    0.0                 !
 ! A13   A(5,4,11)             137.8539         -DE/DX =    0.0                 !
 ! A14   A(11,4,12)             41.8758         -DE/DX =    0.0                 !
 ! A15   A(4,5,7)               97.6263         -DE/DX =    0.0                 !
 ! A16   A(7,5,12)             118.4522         -DE/DX =    0.0                 !
 ! A17   A(2,11,4)             101.5007         -DE/DX =    0.0                 !
 ! A18   A(2,12,4)              42.588          -DE/DX =    0.0                 !
 ! A19   A(2,12,5)              53.2571         -DE/DX =    0.0                 !
 ! D1    D(8,1,2,3)           -153.2893         -DE/DX =    0.0                 !
 ! D2    D(8,1,2,11)           103.7341         -DE/DX =    0.0                 !
 ! D3    D(8,1,2,12)             7.9001         -DE/DX =    0.0                 !
 ! D4    D(9,1,2,3)            -11.4241         -DE/DX =    0.0                 !
 ! D5    D(9,1,2,11)          -114.4007         -DE/DX =    0.0                 !
 ! D6    D(9,1,2,12)           149.7653         -DE/DX =    0.0                 !
 ! D7    D(1,2,3,6)            170.3798         -DE/DX =    0.0                 !
 ! D8    D(1,2,3,10)           -10.2935         -DE/DX =    0.0                 !
 ! D9    D(11,2,3,6)          -104.598          -DE/DX =    0.0                 !
 ! D10   D(11,2,3,10)           74.7286         -DE/DX =    0.0                 !
 ! D11   D(12,2,3,6)             8.9233         -DE/DX =    0.0                 !
 ! D12   D(12,2,3,10)         -171.7501         -DE/DX =    0.0                 !
 ! D13   D(1,2,11,4)             8.1051         -DE/DX =    0.0                 !
 ! D14   D(3,2,11,4)          -110.1207         -DE/DX =    0.0                 !
 ! D15   D(12,2,11,4)          125.7519         -DE/DX =    0.0                 !
 ! D16   D(1,2,12,4)            53.3141         -DE/DX =    0.0                 !
 ! D17   D(1,2,12,5)            47.2225         -DE/DX =    0.0                 !
 ! D18   D(3,2,12,4)          -144.9794         -DE/DX =    0.0                 !
 ! D19   D(3,2,12,5)          -151.071          -DE/DX =    0.0                 !
 ! D20   D(11,2,12,4)          -28.007          -DE/DX =    0.0                 !
 ! D21   D(11,2,12,5)          -34.0986         -DE/DX =    0.0                 !
 ! D22   D(11,4,5,7)          -105.2821         -DE/DX =    0.0                 !
 ! D23   D(5,4,11,2)          -157.8386         -DE/DX =    0.0                 !
 ! D24   D(12,4,11,2)          -27.2059         -DE/DX =    0.0                 !
 ! D25   D(11,4,12,2)           96.6515         -DE/DX =    0.0                 !
 ! D26   D(4,5,7,12)             1.6254         -DE/DX =    0.0                 !
 ! D27   D(7,5,12,2)            25.4885         -DE/DX =    0.0                 !
 --------------------------------------------------------------------------------
 GradGradGradGradGradGradGradGradGradGradGradGradGradGradGradGradGradGrad


 ----------------------------------------------------------------------

 Electric dipole moment (input orientation):
 (Debye = 10**-18 statcoulomb cm , SI units = C m)
                  (au)            (Debye)         (10**-30 SI)
   Tot        0.140377D+01      0.356802D+01      0.119016D+02
   x          0.149574D+00      0.380178D+00      0.126814D+01
   y          0.877358D+00      0.223002D+01      0.743855D+01
   z         -0.108556D+01     -0.275921D+01     -0.920374D+01

 Dipole polarizability, Alpha (input orientation).
 (esu units = cm**3 , SI units = C**2 m**2 J**-1)
 Alpha(0;0):
               (au)            (10**-24 esu)      (10**-40 SI)
   iso        0.716531D+02      0.106179D+02      0.118140D+02
   aniso      0.785452D+02      0.116392D+02      0.129504D+02
   xx         0.469346D+02      0.695499D+01      0.773847D+01
   yx        -0.969089D+01     -0.143604D+01     -0.159781D+01
   yy         0.110775D+03      0.164151D+02      0.182643D+02
   zx         0.454516D+01      0.673523D+00      0.749395D+00
   zy        -0.277021D+02     -0.410503D+01     -0.456746D+01
   zz         0.572501D+02      0.848360D+01      0.943927D+01

 ----------------------------------------------------------------------

 Dipole orientation:
     6          3.01630892          0.30629459          4.78713479
     6          2.77502532          0.21094976          2.04982779
     6          1.39924948          2.18002618          0.69811064
     8          0.72964898         -1.56240454          5.12034192
     8          0.02255065         -3.10068389          7.62157549
     8          1.36178564          2.43560230         -1.59837833
     1         -1.55394759         -2.22456999          8.01038815
     1          4.64521011         -0.60700964          5.64920434
     1          2.46492054          2.04403488          5.74565298
     1          0.30779190          3.49902005          1.92492241
     1          0.71592772         -1.88192354          3.00097846
     1          4.07329620         -0.96287471          0.96912415

 Electric dipole moment (dipole orientation):
 (Debye = 10**-18 statcoulomb cm , SI units = C m)
                  (au)            (Debye)         (10**-30 SI)
   Tot        0.140377D+01      0.356802D+01      0.119016D+02
   x          0.000000D+00      0.000000D+00      0.000000D+00
   y          0.000000D+00      0.000000D+00      0.000000D+00
   z          0.140377D+01      0.356802D+01      0.119016D+02

 Dipole polarizability, Alpha (dipole orientation).
 (esu units = cm**3 , SI units = C**2 m**2 J**-1)
 Alpha(0;0):
               (au)            (10**-24 esu)      (10**-40 SI)
   iso        0.716531D+02      0.106179D+02      0.118140D+02
   aniso      0.785452D+02      0.116392D+02      0.129504D+02
   xx         0.490490D+02      0.726832D+01      0.808709D+01
   yx         0.755077D+01      0.111891D+01      0.124495D+01
   yy         0.631307D+02      0.935501D+01      0.104089D+02
   zx        -0.144177D+02     -0.213649D+01     -0.237716D+01
   zy        -0.318645D+02     -0.472184D+01     -0.525375D+01
   zz         0.102780D+03      0.152304D+02      0.169461D+02

 ----------------------------------------------------------------------
 1\1\GINC-BELL-A096\Freq\RB3LYP\6-31+G(d)\C3H6O3\ZHAO922\23-Dec-2020\0\
 \#N Geom=AllCheck Guess=TCheck SCRF=Check GenChk RB3LYP/6-31+G(d) Freq
 \\pp_8_0 TS\\0,1\C,1.861950521,1.3969600448,-1.8902289132\C,1.57884945
 12,0.5357667173,-0.7521341481\C,0.8183959731,-0.6964155931,-0.92780101
 2\O,0.6413009751,2.323649153,-1.5374691435\O,0.3799776391,3.7996601853
 ,-2.0921318679\O,0.6742902311,-1.5606579249,-0.0746687591\H,-0.4095944
 929,3.5980910635,-2.6298958831\H,2.7488669979,2.0265457901,-1.84909809
 26\H,1.6606155944,1.007926593,-2.8883000239\H,0.3399044764,-0.81320305
 47,-1.9276203662\H,0.508237314,1.7548067179,-0.56527659\H,2.1772043195
 ,0.6368693079,0.1515427998\\Version=ES64L-G16RevB.01\State=1-A\HF=-343
 .4090287\RMSD=6.351e-09\RMSF=1.320e-06\ZeroPoint=0.0851677\Thermal=0.0
 924568\Dipole=0.1495736,0.8773582,-1.0855578\DipoleDeriv=0.429584,-0.2
 602076,0.0074825,-0.0150742,0.5067786,-0.1066345,-0.1784005,0.0806859,
 0.3151085,-0.2634351,-0.1639063,0.2196318,0.0622907,-1.0770455,0.19229
 65,0.0752509,-0.0186781,-0.1853017,0.2768953,0.9298862,-0.0865219,0.27
 07346,1.7776472,-0.562742,0.0810232,-0.2715559,0.7919958,-0.2732277,-0
 .4968252,0.2327297,-0.3699248,0.985754,-0.6711614,0.1977516,-0.8637327
 ,0.2130585,-0.3281051,0.6636473,-0.1355332,0.4759298,-1.6372661,0.5903
 221,-0.1308136,0.9075559,-0.622338,-0.3880481,-0.3347095,0.0856171,-0.
 1048687,-1.2824413,0.450248,0.0424939,0.6316405,-0.7974065,0.2534089,-
 0.1781868,-0.0433242,-0.0377711,0.0629543,0.031769,-0.0649684,-0.05246
 35,0.294192,-0.013323,-0.006282,0.0054244,-0.0751227,-0.0111597,0.0196
 216,0.0065147,-0.0095735,0.0616759,0.0477737,-0.0145968,-0.057574,-0.0
 100187,0.0620407,-0.0523284,0.0137397,-0.0461077,-0.0424054,0.0144126,
 -0.0760569,-0.1007891,-0.0237754,0.0227696,0.0124133,-0.1135019,-0.074
 8784,-0.2279584,0.1875345,-0.033003,-0.0195927,-0.1429408,0.5966438,0.
 0317027,0.1244558,-0.2656584,0.168566,0.0565302,-0.0297594,-0.1075504,
 -0.0294588,-0.0066756,0.064493,-0.0535454,-0.0172339,0.0308133\Polar=4
 6.9345937,-9.6908903,110.7746814,4.5451558,-27.7021002,57.2501497\Quad
 rupole=5.9274719,-9.1852207,3.2577487,-2.233263,1.9693062,4.0057983\PG
 =C01 [X(C3H6O3)]\NImag=1\\0.44545281,0.24253108,0.37324050,-0.00858571
 ,0.02204777,0.63230067,-0.08829894,-0.02331131,0.00216993,0.31422136,-
 0.05717896,-0.13415155,0.09313974,0.18452601,0.45812270,0.03245420,0.0
 6592834,-0.20750166,0.17978093,-0.10920506,0.57582240,-0.00599427,-0.0
 1269356,0.00749996,-0.12238287,-0.07685884,-0.03150815,0.31576957,0.00
 132376,-0.02296514,0.00936130,-0.08844738,-0.16118884,-0.02374747,0.16
 664796,0.63872199,0.01882046,0.02846695,0.00335345,-0.04261839,-0.0458
 1225,-0.11224312,0.08340702,-0.23490852,0.72317393,-0.07454860,-0.0171
 4717,0.03925017,-0.00501002,0.01785794,-0.01616340,0.00424860,-0.00093
 114,0.00237630,0.17017919,-0.01532099,-0.00728913,-0.00989555,0.050191
 13,-0.09454546,0.00689091,0.00097124,0.00650693,-0.00629986,-0.0364953
 2,0.09828738,0.03651873,-0.00445556,-0.06475595,-0.04378202,0.05097032
 ,0.01239744,-0.00006454,-0.00486261,0.00230138,-0.09252325,0.00370669,
 0.18892883,0.01497206,-0.00648055,-0.00754885,0.01031332,0.01012693,-0
 .00749459,-0.00753969,-0.00334310,-0.00155912,-0.04073384,0.00625512,0
 .01806417,0.34963688,0.01233684,-0.02246141,0.00198418,-0.01100214,0.0
 0859637,0.01083072,0.01201120,0.00663337,0.00527864,-0.02232126,-0.024
 84056,-0.03919690,0.08889312,0.13278904,-0.01755256,0.01749167,-0.0048
 2608,0.00024374,0.00973995,0.00578829,-0.00892209,-0.00628949,-0.00165
 261,0.01907840,0.00024455,-0.02586210,0.22508566,0.04219470,0.16769437
 ,0.00191519,-0.00175784,-0.00278451,0.01000848,-0.02697840,0.01774969,
 -0.08233473,-0.06024597,0.03562066,-0.00149129,-0.00003823,0.00002438,
 0.00259266,-0.00413490,0.00284572,0.05206753,-0.00826689,0.00065208,-0
 .00633939,-0.01907214,-0.05870000,0.03872488,-0.05593123,-0.37955952,0
 .30395611,-0.00098975,-0.00220953,0.00166020,0.00300520,-0.00462266,0.
 00376909,0.08049883,0.43003229,-0.00010101,-0.00546374,0.00425671,0.01
 111111,0.03704570,0.01414741,0.03062100,0.29552708,-0.40298162,-0.0002
 4943,0.00604662,-0.00285760,-0.00138970,-0.00000560,-0.00151765,-0.044
 64412,-0.36417464,0.42290200,-0.00119988,0.00007422,-0.00067642,0.0005
 5768,-0.00108999,0.00017850,0.00099402,0.00152442,-0.00012921,-0.00094
 282,-0.00161559,0.00254515,-0.32190894,-0.08137358,-0.21754831,-0.0003
 9913,-0.00086385,0.00057219,0.32179288,-0.00165143,0.00105837,0.003497
 58,-0.00112635,-0.00538584,0.00036798,0.00256633,0.00127951,0.00054545
 ,0.02563485,-0.00337241,0.01700222,-0.10951603,-0.05933703,-0.06714038
 ,-0.00086638,-0.00087097,0.00044354,0.08259210,0.06680302,-0.00014335,
 0.00096544,0.00091736,0.00027461,0.00074354,0.00034899,-0.00004718,0.0
 0039313,0.00031283,-0.00361330,0.00111237,-0.00610395,-0.21107890,-0.0
 4806052,-0.14705188,-0.00000499,-0.00018117,-0.00005956,0.21624782,0.0
 4633180,0.15253748,-0.23072584,-0.14185428,-0.01381913,0.00445675,-0.0
 0020808,-0.00154233,0.00210968,-0.00095837,-0.00026372,-0.02605066,-0.
 00159808,0.00607476,0.00061101,-0.00093915,-0.00006697,-0.00056599,0.0
 0068193,-0.00017723,0.00017140,0.00008372,0.00025555,0.25249372,-0.146
 89294,-0.14628607,-0.00974985,-0.01633941,-0.00976910,-0.00148874,-0.0
 0274572,0.00267400,0.00426508,0.02747705,0.00604833,-0.00320375,-0.001
 78977,0.00206358,-0.00114089,0.00044509,-0.00189030,-0.00015388,-0.000
 25088,0.00022881,-0.00026558,0.14531854,0.15341566,-0.01636239,-0.0114
 2555,-0.05700830,0.01959541,0.01568299,0.00407332,0.00013355,-0.002157
 73,-0.00454492,0.00805390,0.00209066,0.00066279,0.00002013,0.00009498,
 -0.00009770,0.00036122,0.00204504,0.00027776,-0.00005000,-0.00009232,-
 0.00013402,0.01044457,0.01025248,0.05354102,-0.05893983,-0.03348680,-0
 .05568420,0.00445403,0.00199100,0.00039198,-0.00098501,0.00004731,0.00
 240508,-0.00763722,0.01486895,0.02458477,0.00016671,-0.00144302,0.0011
 6785,0.00009025,0.00044915,-0.00104751,0.00002333,-0.00002462,0.000071
 56,-0.00043535,-0.00825446,-0.02303381,0.06440927,-0.03060373,-0.08323
 293,-0.08848386,0.00475938,0.01111545,0.01872963,0.00290244,-0.0008639
 3,0.00140345,0.00804342,-0.00935569,-0.01631766,-0.00047968,0.00145568
 ,-0.00063502,-0.00063589,0.00049346,-0.00078848,0.00023236,-0.00009003
 ,-0.00031078,-0.00370868,-0.00324701,-0.01613596,0.02244466,0.08723194
 ,-0.05096537,-0.09044149,-0.28632067,-0.00647450,-0.00527274,-0.017423
 15,-0.00266417,-0.00271814,0.00045105,0.00281798,-0.00103816,-0.001551
 86,0.00040403,-0.00089782,0.00024962,0.00058348,0.00038372,0.00029289,
 -0.00009292,-0.00019476,-0.00015132,-0.00014468,0.00098048,0.00191783,
 0.05253213,0.09838422,0.30422681,0.00003443,0.00199156,-0.00207400,0.0
 0095933,-0.00707920,-0.01748690,-0.10354683,-0.02282509,-0.08022882,-0
 .00023341,0.00141776,-0.00016705,0.00073988,-0.00182694,0.00101271,0.0
 1922535,0.00300040,-0.00166473,-0.00005462,-0.00025037,-0.00003618,-0.
 00006744,0.00029870,0.00010676,-0.00003553,-0.00027754,0.00095255,0.08
 199229,0.00008245,0.00003843,-0.00137228,-0.01729787,0.00077566,-0.021
 39514,-0.01855395,-0.06713370,-0.03351849,0.00022199,0.00071805,-0.000
 00999,-0.00010260,-0.00035862,-0.00000200,0.00837851,0.00627013,0.0369
 6776,0.00000201,-0.00001112,-0.00002593,0.00008964,0.00023748,0.000355
 40,0.00010653,-0.00001887,0.00082439,0.03026023,0.06264446,-0.00025546
 ,0.00030657,0.00026934,-0.00661450,0.00058869,-0.00423931,-0.08355067,
 -0.04146641,-0.20398403,-0.00034912,0.00095968,-0.00053655,0.00090843,
 -0.00220015,0.00139963,-0.00975497,0.02429131,-0.03839001,-0.00012980,
 -0.00039349,-0.00004042,-0.00000923,-0.00020174,0.00068128,-0.00028285
 ,-0.00074090,0.00068516,0.10132166,0.01823430,0.24428847,-0.01088368,-
 0.00682249,0.02963502,-0.00105454,-0.01394595,-0.01051643,0.00563659,0
 .00331188,-0.00277749,-0.01752961,-0.01463615,0.04405512,-0.00787145,0
 .00548473,-0.00421287,-0.00133404,-0.00319186,0.00299183,0.00090557,0.
 00243100,-0.00203103,-0.00168685,0.00075766,0.00114108,-0.00258145,0.0
 0032348,0.00061388,-0.00030983,0.00028545,-0.00044156,0.04323130,-0.00
 533767,0.03761258,-0.02792046,-0.03714066,0.03167189,0.02742872,-0.002
 45385,-0.02498097,0.00078608,-0.00005604,0.02534670,-0.00326714,0.0118
 1731,-0.03539162,0.00143332,0.00138395,0.00819051,-0.00646673,0.000941
 13,-0.00017826,-0.00054620,0.00229244,-0.00323525,-0.00043256,0.004714
 01,-0.00323321,-0.00109334,-0.00095206,0.00065453,0.00117904,0.0215017
 7,-0.03345592,0.01838079,-0.02033786,-0.00367393,0.02366185,-0.0316377
 2,-0.02980797,0.00641546,0.01062142,-0.00251026,0.04069283,-0.00783197
 ,-0.10018179,-0.01604598,0.03328309,0.00515284,-0.00128029,-0.00377926
 ,0.00358332,-0.00086091,-0.00028696,-0.00047698,-0.00149162,0.00163916
 ,-0.00053141,-0.00061489,0.00160451,-0.00048384,-0.00045723,-0.0001393
 3,-0.00083379,-0.06020871,0.01055803,0.12656749,0.00821655,-0.00104286
 ,0.01261774,-0.12822458,-0.03116245,-0.14584349,-0.00597504,0.00389573
 ,-0.01505277,-0.00025032,-0.00399985,0.00466977,-0.00097859,0.00431510
 ,-0.00113129,0.00022572,0.00068021,0.00397761,0.00006052,0.00012718,0.
 00010538,-0.00031044,0.00197614,-0.00041041,0.00147081,-0.00300023,0.0
 0243759,0.00129639,-0.00347238,-0.00084193,-0.00652201,0.00328966,-0.0
 0819131,0.13099100,0.00897848,0.00378427,0.01373082,-0.02573926,-0.046
 54127,-0.01306476,-0.01586202,0.00087629,-0.02416264,-0.00129456,0.004
 70540,-0.00202582,0.00161405,-0.00452615,0.00033450,0.00395121,0.00221
 451,0.00102237,-0.00017237,-0.00012406,-0.00015612,0.00080039,-0.00024
 012,-0.00027745,-0.00141271,-0.00025486,0.00108365,-0.00375744,-0.0038
 1643,-0.00055688,0.00450047,-0.00300099,0.00630688,0.02839377,0.046923
 40,-0.01220833,-0.00308254,-0.01701096,-0.13734815,-0.01598314,-0.2413
 6262,-0.00132018,0.00024744,-0.00167607,0.00062893,0.00401406,-0.00244
 065,0.00063471,-0.00330532,0.00072328,0.00128372,-0.00035591,0.0003463
 3,-0.00005609,-0.00008065,-0.00009853,0.00074000,-0.00093279,0.0011623
 5,-0.00049011,0.00329084,-0.00189252,-0.00127877,0.00008132,0.00070023
 ,0.00175115,-0.00165877,0.00319632,0.14766311,0.01776546,0.25835284\\-
 0.00000398,0.00000354,-0.00000022,-0.00000094,-0.00000055,0.00000036,-
 0.00000003,0.00000013,0.00000005,0.00000417,-0.00000243,-0.00000161,0.
 00000104,0.00000015,0.00000052,-0.00000080,0.00000008,-0.00000021,0.00
 000053,0.00000038,0.00000044,0.00000021,-0.00000078,-0.00000030,0.0000
 0004,-0.00000015,0.00000011,-0.00000089,0.00000034,0.,0.00000054,-0.00
 000026,0.00000138,0.00000011,-0.00000045,-0.00000053\\\@


 IF AT FIRST YOU DON'T SUCCEED, TRY LOOKING IN 
 THE WASTEBASKET FOR THE DIRECTIONS.
 Job cpu time:       0 days  0 hours  3 minutes 45.6 seconds.
 Elapsed time:       0 days  0 hours  0 minutes 14.3 seconds.
 File lengths (MBytes):  RWF=     28 Int=      0 D2E=      0 Chk=      3 Scr=      1
 Normal termination of Gaussian 16 at Wed Dec 23 22:09:07 2020.
