 Entering Gaussian System, Link 0=g16
 Initial command:
 /apps/cent7/gaussian/g16-B.01/g16-haswell/g16/l1.exe "/scratch/bell/zhao922/YARP/paper-example/KHP-network/pp_0/TS-folder/Gau-4545.inp" -scrdir="/scratch/bell/zhao922/YARP/paper-example/KHP-network/pp_0/TS-folder/"
 Entering Link 1 = /apps/cent7/gaussian/g16-B.01/g16-haswell/g16/l1.exe PID=      4547.
  
 Copyright (c) 1988-2017, Gaussian, Inc.  All Rights Reserved.
  
 This is part of the Gaussian(R) 16 program.  It is based on
 the Gaussian(R) 09 system (copyright 2009, Gaussian, Inc.),
 the Gaussian(R) 03 system (copyright 2003, Gaussian, Inc.),
 the Gaussian(R) 98 system (copyright 1998, Gaussian, Inc.),
 the Gaussian(R) 94 system (copyright 1995, Gaussian, Inc.),
 the Gaussian 92(TM) system (copyright 1992, Gaussian, Inc.),
 the Gaussian 90(TM) system (copyright 1990, Gaussian, Inc.),
 the Gaussian 88(TM) system (copyright 1988, Gaussian, Inc.),
 the Gaussian 86(TM) system (copyright 1986, Carnegie Mellon
 University), and the Gaussian 82(TM) system (copyright 1983,
 Carnegie Mellon University). Gaussian is a federally registered
 trademark of Gaussian, Inc.
  
 This software contains proprietary and confidential information,
 including trade secrets, belonging to Gaussian, Inc.
  
 This software is provided under written license and may be
 used, copied, transmitted, or stored only in accord with that
 written license.
  
 The following legend is applicable only to US Government
 contracts under FAR:
  
                    RESTRICTED RIGHTS LEGEND
  
 Use, reproduction and disclosure by the US Government is
 subject to restrictions as set forth in subparagraphs (a)
 and (c) of the Commercial Computer Software - Restricted
 Rights clause in FAR 52.227-19.
  
 Gaussian, Inc.
 340 Quinnipiac St., Bldg. 40, Wallingford CT 06492
  
  
 ---------------------------------------------------------------
 Warning -- This program may not be used in any manner that
 competes with the business of Gaussian, Inc. or will provide
 assistance to any competitor of Gaussian, Inc.  The licensee
 of this program is prohibited from giving any competitor of
 Gaussian, Inc. access to this program.  By using this program,
 the user acknowledges that Gaussian, Inc. is engaged in the
 business of creating and licensing software in the field of
 computational chemistry and represents and warrants to the
 licensee that it is not a competitor of Gaussian, Inc. and that
 it will not use this program in any manner prohibited above.
 ---------------------------------------------------------------
  

 Cite this work as:
 Gaussian 16, Revision B.01,
 M. J. Frisch, G. W. Trucks, H. B. Schlegel, G. E. Scuseria, 
 M. A. Robb, J. R. Cheeseman, G. Scalmani, V. Barone, 
 G. A. Petersson, H. Nakatsuji, X. Li, M. Caricato, A. V. Marenich, 
 J. Bloino, B. G. Janesko, R. Gomperts, B. Mennucci, H. P. Hratchian, 
 J. V. Ortiz, A. F. Izmaylov, J. L. Sonnenberg, D. Williams-Young, 
 F. Ding, F. Lipparini, F. Egidi, J. Goings, B. Peng, A. Petrone, 
 T. Henderson, D. Ranasinghe, V. G. Zakrzewski, J. Gao, N. Rega, 
 G. Zheng, W. Liang, M. Hada, M. Ehara, K. Toyota, R. Fukuda, 
 J. Hasegawa, M. Ishida, T. Nakajima, Y. Honda, O. Kitao, H. Nakai, 
 T. Vreven, K. Throssell, J. A. Montgomery, Jr., J. E. Peralta, 
 F. Ogliaro, M. J. Bearpark, J. J. Heyd, E. N. Brothers, K. N. Kudin, 
 V. N. Staroverov, T. A. Keith, R. Kobayashi, J. Normand, 
 K. Raghavachari, A. P. Rendell, J. C. Burant, S. S. Iyengar, 
 J. Tomasi, M. Cossi, J. M. Millam, M. Klene, C. Adamo, R. Cammi, 
 J. W. Ochterski, R. L. Martin, K. Morokuma, O. Farkas, 
 J. B. Foresman, and D. J. Fox, Gaussian, Inc., Wallingford CT, 2016.
 
 ******************************************
 Gaussian 16:  ES64L-G16RevB.01 20-Dec-2017
                23-Dec-2020 
 ******************************************
 %NProcShared=16
 Will use up to   16 processors via shared memory.
 %Mem=6GB
 --------------------------------------------------------------
 # B3LYP/6-31+G* OPT=(TS, CALCALL, NOEIGEN, maxcycles=100) Freq
 --------------------------------------------------------------
 1/5=1,6=100,10=4,11=1,18=20,26=3,38=1/1,3;
 2/9=110,12=2,17=6,18=5,40=1/2;
 3/5=1,6=6,7=11,11=2,25=1,30=1,71=2,74=-5,140=1/1,2,3;
 4//1;
 5/5=2,38=5/2;
 8/6=4,10=90,11=11/1;
 11/6=1,8=1,9=11,15=111,16=1/1,2,10;
 10/6=1/2;
 6/7=2,8=2,9=2,10=2,18=1,28=1/1;
 7/10=1,25=1/1,2,3,16;
 1/5=1,6=100,10=4,11=1,18=20,26=3/3(3);
 2/9=110/2;
 7/8=1,9=1,25=1,44=-1/16;
 99//99;
 2/9=110/2;
 3/5=1,6=6,7=11,11=2,25=1,30=1,71=2,74=-5,140=1/1,2,3;
 4/5=5,16=3,69=1/1;
 5/5=2,38=5/2;
 8/6=4,10=90,11=11/1;
 11/6=1,8=1,9=11,15=111,16=1/1,2,10;
 10/6=1/2;
 7/10=1,25=1/1,2,3,16;
 1/5=1,6=100,10=4,11=1,18=20,26=3/3(-8);
 2/9=110/2;
 6/7=2,8=2,9=2,10=2,18=1,19=2,28=1/1;
 7/8=1,9=1,25=1,44=-1/16;
 99//99;
 ---------
 pp_8_1 TS
 ---------
 Symbolic Z-matrix:
 Charge =  0 Multiplicity = 1
 C                     1.31546   1.25402  -2.53441 
 C                     0.86493   0.07578  -1.96561 
 C                     1.06324  -0.27968  -0.54862 
 O                     0.30249   2.46946  -1.19817 
 O                     0.94185   3.69234  -1.53981 
 O                     1.69514   0.31438   0.29542 
 H                     0.95321   4.16194  -0.69636 
 H                     2.08662   1.89901  -2.1214 
 H                     1.26027   1.41418  -3.60755 
 H                     0.52458  -1.21868  -0.28977 
 H                     0.71158  -0.82893  -2.54979 
 H                     0.01479   1.21967  -1.21642 
 
 Add virtual bond connecting atoms H12        and O4         Dist= 2.42D+00.
 Add virtual bond connecting atoms H12        and C2         Dist= 3.04D+00.

 GradGradGradGradGradGradGradGradGradGradGradGradGradGradGradGradGradGrad
 Berny optimization.
 Initialization pass.
                           ----------------------------
                           !    Initial Parameters    !
                           ! (Angstroms and Degrees)  !
 --------------------------                            --------------------------
 ! Name  Definition              Value          Derivative Info.                !
 --------------------------------------------------------------------------------
 ! R1    R(1,2)                  1.3837         calculate D2E/DX2 analytically  !
 ! R2    R(1,8)                  1.0869         calculate D2E/DX2 analytically  !
 ! R3    R(1,9)                  1.0864         calculate D2E/DX2 analytically  !
 ! R4    R(2,3)                  1.4743         calculate D2E/DX2 analytically  !
 ! R5    R(2,11)                 1.0878         calculate D2E/DX2 analytically  !
 ! R6    R(2,12)                 1.6101         calculate D2E/DX2 analytically  !
 ! R7    R(3,6)                  1.2102         calculate D2E/DX2 analytically  !
 ! R8    R(3,10)                 1.1131         calculate D2E/DX2 analytically  !
 ! R9    R(4,5)                  1.4216         calculate D2E/DX2 analytically  !
 ! R10   R(4,12)                 1.2826         calculate D2E/DX2 analytically  !
 ! R11   R(5,7)                  0.9654         calculate D2E/DX2 analytically  !
 ! A1    A(2,1,8)              125.4588         calculate D2E/DX2 analytically  !
 ! A2    A(2,1,9)              120.9982         calculate D2E/DX2 analytically  !
 ! A3    A(8,1,9)              108.8998         calculate D2E/DX2 analytically  !
 ! A4    A(1,2,3)              123.8195         calculate D2E/DX2 analytically  !
 ! A5    A(1,2,11)             122.2308         calculate D2E/DX2 analytically  !
 ! A6    A(1,2,12)              76.0101         calculate D2E/DX2 analytically  !
 ! A7    A(3,2,11)             109.5479         calculate D2E/DX2 analytically  !
 ! A8    A(3,2,12)              78.176          calculate D2E/DX2 analytically  !
 ! A9    A(11,2,12)            140.024          calculate D2E/DX2 analytically  !
 ! A10   A(2,3,6)              128.4778         calculate D2E/DX2 analytically  !
 ! A11   A(2,3,10)             111.2119         calculate D2E/DX2 analytically  !
 ! A12   A(6,3,10)             120.3056         calculate D2E/DX2 analytically  !
 ! A13   A(5,4,12)             159.3366         calculate D2E/DX2 analytically  !
 ! A14   A(4,5,7)              102.3427         calculate D2E/DX2 analytically  !
 ! A15   A(2,12,4)             125.4817         calculate D2E/DX2 analytically  !
 ! D1    D(8,1,2,3)             18.8356         calculate D2E/DX2 analytically  !
 ! D2    D(8,1,2,11)          -135.1245         calculate D2E/DX2 analytically  !
 ! D3    D(8,1,2,12)            83.9324         calculate D2E/DX2 analytically  !
 ! D4    D(9,1,2,3)            171.9399         calculate D2E/DX2 analytically  !
 ! D5    D(9,1,2,11)            17.9799         calculate D2E/DX2 analytically  !
 ! D6    D(9,1,2,12)          -122.9632         calculate D2E/DX2 analytically  !
 ! D7    D(1,2,3,6)             -5.3096         calculate D2E/DX2 analytically  !
 ! D8    D(1,2,3,10)           173.8966         calculate D2E/DX2 analytically  !
 ! D9    D(11,2,3,6)           151.4828         calculate D2E/DX2 analytically  !
 ! D10   D(11,2,3,10)          -29.311          calculate D2E/DX2 analytically  !
 ! D11   D(12,2,3,6)           -69.3622         calculate D2E/DX2 analytically  !
 ! D12   D(12,2,3,10)          109.844          calculate D2E/DX2 analytically  !
 ! D13   D(1,2,12,4)           -16.7659         calculate D2E/DX2 analytically  !
 ! D14   D(3,2,12,4)           112.8906         calculate D2E/DX2 analytically  !
 ! D15   D(11,2,12,4)         -140.7069         calculate D2E/DX2 analytically  !
 ! D16   D(12,4,5,7)          -146.9781         calculate D2E/DX2 analytically  !
 ! D17   D(5,4,12,2)            11.8121         calculate D2E/DX2 analytically  !
 --------------------------------------------------------------------------------
 Trust Radius=3.00D-01 FncErr=1.00D-07 GrdErr=1.00D-06 EigMax=2.50D+02 EigMin=1.00D-04
 Number of steps in this run=    100 maximum allowed number of steps=    100.
 Search for a saddle point of order  1.
 GradGradGradGradGradGradGradGradGradGradGradGradGradGradGradGradGradGrad

                          Input orientation:                          
 ---------------------------------------------------------------------
 Center     Atomic      Atomic             Coordinates (Angstroms)
 Number     Number       Type             X           Y           Z
 ---------------------------------------------------------------------
      1          6           0        1.315464    1.254022   -2.534408
      2          6           0        0.864934    0.075781   -1.965612
      3          6           0        1.063244   -0.279675   -0.548619
      4          8           0        0.302490    2.469463   -1.198165
      5          8           0        0.941845    3.692340   -1.539808
      6          8           0        1.695136    0.314381    0.295420
      7          1           0        0.953213    4.161941   -0.696359
      8          1           0        2.086616    1.899007   -2.121402
      9          1           0        1.260272    1.414181   -3.607553
     10          1           0        0.524577   -1.218679   -0.289773
     11          1           0        0.711584   -0.828931   -2.549786
     12          1           0        0.014789    1.219673   -1.216417
 ---------------------------------------------------------------------
                    Distance matrix (angstroms):
                    1          2          3          4          5
     1  C    0.000000
     2  C    1.383748   0.000000
     3  C    2.521745   1.474295   0.000000
     4  O    2.070980   2.575856   2.925477   0.000000
     5  O    2.659740   3.642351   4.095619   1.421592   0.000000
     6  O    3.005828   2.420420   1.210203   2.968946   3.917412
     7  H    3.459139   4.279661   4.445434   1.881417   0.965433
     8  H    1.086856   2.200211   2.875342   2.088275   2.205628
     9  H    1.086433   2.154896   3.502149   2.799307   3.093052
    10  H    3.431929   2.144739   1.113055   3.804851   5.084762
    11  H    2.168779   1.087786   2.104760   3.587986   4.638423
    12  H    1.852036   1.610133   1.947628   1.282607   2.660469
                    6          7          8          9         10
     6  O    0.000000
     7  H    4.042004   0.000000
     8  H    2.916389   2.904517   0.000000
     9  H    4.078218   4.014912   1.768204   0.000000
    10  H    2.015672   5.412958   3.938883   4.298937   0.000000
    11  H    3.220207   5.329388   3.084781   2.539977   2.300985
    12  H    2.434907   3.131779   2.360712   2.703071   2.657840
                   11         12
    11  H    0.000000
    12  H    2.541687   0.000000
 Stoichiometry    C3H6O3
 Framework group  C1[X(C3H6O3)]
 Deg. of freedom    30
 Full point group                 C1      NOp   1
 Largest Abelian subgroup         C1      NOp   1
 Largest concise Abelian subgroup C1      NOp   1
                         Standard orientation:                         
 ---------------------------------------------------------------------
 Center     Atomic      Atomic             Coordinates (Angstroms)
 Number     Number       Type             X           Y           Z
 ---------------------------------------------------------------------
      1          6           0        0.193127    1.231869   -0.424145
      2          6           0       -1.032518    1.022681    0.183138
      3          6           0       -1.749258   -0.265499    0.162566
      4          8           0        1.141616   -0.290925    0.610468
      5          8           0        2.332819   -0.326514   -0.164575
      6          8           0       -1.457531   -1.280163   -0.428994
      7          1           0        2.573387   -1.260871   -0.130457
      8          1           0        0.625830    0.608495   -1.202237
      9          1           0        0.620545    2.228304   -0.493200
     10          1           0       -2.657807   -0.231148    0.804633
     11          1           0       -1.740651    1.830507    0.354146
     12          1           0       -0.024652    0.071226    1.002570
 ---------------------------------------------------------------------
 Rotational constants (GHZ):           5.8292340           2.2433104           1.8001484
 Standard basis: 6-31+G(d) (6D, 7F)
 There are   126 symmetry adapted cartesian basis functions of A   symmetry.
 There are   126 symmetry adapted basis functions of A   symmetry.
   126 basis functions,   216 primitive gaussians,   126 cartesian basis functions
    24 alpha electrons       24 beta electrons
       nuclear repulsion energy       234.9545576991 Hartrees.
 NAtoms=   12 NActive=   12 NUniq=   12 SFac= 1.00D+00 NAtFMM=   60 NAOKFM=F Big=F
 Integral buffers will be    131072 words long.
 Raffenetti 2 integral format.
 Two-electron integral symmetry is turned on.
 One-electron integrals computed using PRISM.
 NBasis=   126 RedAO= T EigKep=  1.05D-04  NBF=   126
 NBsUse=   126 1.00D-06 EigRej= -1.00D+00 NBFU=   126
 ExpMin= 4.38D-02 ExpMax= 5.48D+03 ExpMxC= 8.25D+02 IAcc=3 IRadAn=         5 AccDes= 0.00D+00
 Harris functional with IExCor=  402 and IRadAn=       5 diagonalized for initial guess.
 HarFok:  IExCor=  402 AccDes= 0.00D+00 IRadAn=         5 IDoV= 1 UseB2=F ITyADJ=14
 ICtDFT=  3500011 ScaDFX=  1.000000  1.000000  1.000000  1.000000
 FoFCou: FMM=F IPFlag=           0 FMFlag=      100000 FMFlg1=           0
         NFxFlg=           0 DoJE=T BraDBF=F KetDBF=T FulRan=T
         wScrn=  0.000000 ICntrl=       500 IOpCl=  0 I1Cent=   200000004 NGrid=           0
         NMat0=    1 NMatS0=      1 NMatT0=    0 NMatD0=    1 NMtDS0=    0 NMtDT0=    0
 Petite list used in FoFCou.
 Keep R1 ints in memory in canonical form, NReq=47237537.
 Requested convergence on RMS density matrix=1.00D-08 within 128 cycles.
 Requested convergence on MAX density matrix=1.00D-06.
 Requested convergence on             energy=1.00D-06.
 No special actions if energy rises.
 SCF Done:  E(RB3LYP) =  -343.302619931     A.U. after   15 cycles
            NFock= 15  Conv=0.73D-08     -V/T= 2.0088
 DoSCS=F DFT=T ScalE2(SS,OS)=  1.000000  1.000000
 Range of M.O.s used for correlation:     1   126
 NBasis=   126 NAE=    24 NBE=    24 NFC=     0 NFV=     0
 NROrb=    126 NOA=    24 NOB=    24 NVA=   102 NVB=   102

 **** Warning!!: The largest alpha MO coefficient is  0.30712718D+02

 Symmetrizing basis deriv contribution to polar:
 IMax=3 JMax=2 DiffMx= 0.00D+00
 G2DrvN: will do    13 centers at a time, making    1 passes.
 Calling FoFCou, ICntrl=  3107 FMM=F I1Cent=   0 AccDes= 0.00D+00.
 End of G2Drv F.D. properties file   721 does not exist.
 End of G2Drv F.D. properties file   722 does not exist.
 End of G2Drv F.D. properties file   788 does not exist.
          IDoAtm=111111111111
          Differentiating once with respect to electric field.
                with respect to dipole field.
          Differentiating once with respect to nuclear coordinates.
 Keep R1 ints in memory in canonical form, NReq=47193559.
          There are    39 degrees of freedom in the 1st order CPHF.  IDoFFX=6 NUNeed=     3.
     36 vectors produced by pass  0 Test12= 6.28D-15 2.56D-09 XBig12= 1.05D+02 4.47D+00.
 AX will form    36 AO Fock derivatives at one time.
     36 vectors produced by pass  1 Test12= 6.28D-15 2.56D-09 XBig12= 1.79D+01 6.90D-01.
     36 vectors produced by pass  2 Test12= 6.28D-15 2.56D-09 XBig12= 4.04D-01 9.57D-02.
     36 vectors produced by pass  3 Test12= 6.28D-15 2.56D-09 XBig12= 2.17D-03 8.77D-03.
     36 vectors produced by pass  4 Test12= 6.28D-15 2.56D-09 XBig12= 2.93D-06 2.10D-04.
     29 vectors produced by pass  5 Test12= 6.28D-15 2.56D-09 XBig12= 3.66D-09 8.50D-06.
      3 vectors produced by pass  6 Test12= 6.28D-15 2.56D-09 XBig12= 3.44D-12 3.16D-07.
      3 vectors produced by pass  7 Test12= 6.28D-15 2.56D-09 XBig12= 3.26D-15 9.86D-09.
 InvSVY:  IOpt=1 It=  1 EMax= 7.11D-15
 Solved reduced A of dimension   215 with    39 vectors.
 Isotropic polarizability for W=    0.000000       62.43 Bohr**3.
 End of Minotr F.D. properties file   721 does not exist.
 End of Minotr F.D. properties file   722 does not exist.
 End of Minotr F.D. properties file   788 does not exist.

 **********************************************************************

            Population analysis using the SCF Density.

 **********************************************************************

 Orbital symmetries:
       Occupied  (A) (A) (A) (A) (A) (A) (A) (A) (A) (A) (A) (A)
                 (A) (A) (A) (A) (A) (A) (A) (A) (A) (A) (A) (A)
       Virtual   (A) (A) (A) (A) (A) (A) (A) (A) (A) (A) (A) (A)
                 (A) (A) (A) (A) (A) (A) (A) (A) (A) (A) (A) (A)
                 (A) (A) (A) (A) (A) (A) (A) (A) (A) (A) (A) (A)
                 (A) (A) (A) (A) (A) (A) (A) (A) (A) (A) (A) (A)
                 (A) (A) (A) (A) (A) (A) (A) (A) (A) (A) (A) (A)
                 (A) (A) (A) (A) (A) (A) (A) (A) (A) (A) (A) (A)
                 (A) (A) (A) (A) (A) (A) (A) (A) (A) (A) (A) (A)
                 (A) (A) (A) (A) (A) (A) (A) (A) (A) (A) (A) (A)
                 (A) (A) (A) (A) (A) (A)
 The electronic state is 1-A.
 Alpha  occ. eigenvalues --  -19.23179 -19.18085 -19.15219 -10.28624 -10.28295
 Alpha  occ. eigenvalues --  -10.22765  -1.11480  -1.05361  -0.88463  -0.81661
 Alpha  occ. eigenvalues --   -0.69375  -0.57981  -0.55946  -0.52423  -0.47958
 Alpha  occ. eigenvalues --   -0.47101  -0.44622  -0.42526  -0.40731  -0.38289
 Alpha  occ. eigenvalues --   -0.33691  -0.26945  -0.25928  -0.24169
 Alpha virt. eigenvalues --   -0.12077  -0.05307   0.00116   0.01274   0.02503
 Alpha virt. eigenvalues --    0.03246   0.04618   0.05473   0.06750   0.08224
 Alpha virt. eigenvalues --    0.09314   0.09859   0.11400   0.11799   0.13747
 Alpha virt. eigenvalues --    0.14813   0.16192   0.18730   0.18929   0.20096
 Alpha virt. eigenvalues --    0.21861   0.22453   0.24309   0.25171   0.25716
 Alpha virt. eigenvalues --    0.26084   0.27374   0.29053   0.30146   0.30918
 Alpha virt. eigenvalues --    0.32733   0.34059   0.35753   0.36888   0.42161
 Alpha virt. eigenvalues --    0.48042   0.61471   0.65956   0.66399   0.66820
 Alpha virt. eigenvalues --    0.71261   0.72990   0.77493   0.84342   0.89160
 Alpha virt. eigenvalues --    0.91501   0.96550   0.99288   1.01786   1.04070
 Alpha virt. eigenvalues --    1.05321   1.10209   1.11685   1.12165   1.15476
 Alpha virt. eigenvalues --    1.18113   1.20998   1.24244   1.26404   1.28096
 Alpha virt. eigenvalues --    1.29935   1.31521   1.34287   1.44892   1.48379
 Alpha virt. eigenvalues --    1.51029   1.53803   1.56222   1.63242   1.65562
 Alpha virt. eigenvalues --    1.68415   1.71897   1.77709   1.80767   1.82743
 Alpha virt. eigenvalues --    1.84411   1.88548   1.91267   1.98682   2.02499
 Alpha virt. eigenvalues --    2.06434   2.10734   2.17971   2.24070   2.34676
 Alpha virt. eigenvalues --    2.36922   2.40815   2.43433   2.49993   2.52342
 Alpha virt. eigenvalues --    2.57605   2.64178   2.74842   2.98356   3.10257
 Alpha virt. eigenvalues --    3.12645   3.91635   4.17580   4.18580   4.27039
 Alpha virt. eigenvalues --    4.33133   4.46937
          Condensed to atoms (all electrons):
               1          2          3          4          5          6
     1  C    5.590765  -0.056806  -0.004601   0.108500  -0.022900   0.084022
     2  C   -0.056806   6.417741  -0.177076  -0.248955   0.019844  -0.213216
     3  C   -0.004601  -0.177076   5.324339   0.027488  -0.013826   0.438614
     4  O    0.108500  -0.248955   0.027488   8.513116   0.047223   0.002516
     5  O   -0.022900   0.019844  -0.013826   0.047223   8.322023   0.000202
     6  O    0.084022  -0.213216   0.438614   0.002516   0.000202   8.137213
     7  H    0.013097  -0.006814  -0.001785  -0.026010   0.183045   0.000249
     8  H    0.388897  -0.016727  -0.011172  -0.087543   0.018235   0.004421
     9  H    0.327060  -0.029338   0.014009   0.005727   0.002279  -0.000003
    10  H    0.046357  -0.221240   0.448680   0.002964   0.000121  -0.068346
    11  H   -0.024970   0.336556  -0.011247   0.000962  -0.000137   0.006206
    12  H   -0.077802   0.312734   0.017811  -0.054342  -0.006769  -0.016902
               7          8          9         10         11         12
     1  C    0.013097   0.388897   0.327060   0.046357  -0.024970  -0.077802
     2  C   -0.006814  -0.016727  -0.029338  -0.221240   0.336556   0.312734
     3  C   -0.001785  -0.011172   0.014009   0.448680  -0.011247   0.017811
     4  O   -0.026010  -0.087543   0.005727   0.002964   0.000962  -0.054342
     5  O    0.183045   0.018235   0.002279   0.000121  -0.000137  -0.006769
     6  O    0.000249   0.004421  -0.000003  -0.068346   0.006206  -0.016902
     7  H    0.354604  -0.001355  -0.000041  -0.000000   0.000002  -0.001153
     8  H   -0.001355   0.462322  -0.039414   0.000009   0.003018   0.009520
     9  H   -0.000041  -0.039414   0.500308  -0.000107  -0.004423  -0.001538
    10  H   -0.000000   0.000009  -0.000107   0.645755  -0.001876  -0.007489
    11  H    0.000002   0.003018  -0.004423  -0.001876   0.490985   0.002636
    12  H   -0.001153   0.009520  -0.001538  -0.007489   0.002636   0.406675
 Mulliken charges:
               1
     1  C   -0.371617
     2  C   -0.116702
     3  C   -0.051233
     4  O   -0.291645
     5  O   -0.549339
     6  O   -0.374976
     7  H    0.486161
     8  H    0.269790
     9  H    0.225482
    10  H    0.155172
    11  H    0.202288
    12  H    0.416619
 Sum of Mulliken charges =  -0.00000
 Mulliken charges with hydrogens summed into heavy atoms:
               1
     1  C    0.123655
     2  C    0.085585
     3  C    0.103939
     4  O    0.124974
     5  O   -0.063178
     6  O   -0.374976
 APT charges:
               1
     1  C    0.549534
     2  C   -0.610184
     3  C    0.848406
     4  O   -0.743551
     5  O   -0.201652
     6  O   -0.629045
     7  H    0.264577
     8  H    0.004481
     9  H    0.041924
    10  H   -0.095692
    11  H    0.051638
    12  H    0.519565
 Sum of APT charges =  -0.00000
 APT charges with hydrogens summed into heavy atoms:
               1
     1  C    0.595939
     2  C   -0.558547
     3  C    0.752714
     4  O   -0.223986
     5  O    0.062925
     6  O   -0.629045
 Electronic spatial extent (au):  <R**2>=            664.4590
 Charge=             -0.0000 electrons
 Dipole moment (field-independent basis, Debye):
    X=             -0.1944    Y=              2.6497    Z=             -0.0627  Tot=              2.6576
 Quadrupole moment (field-independent basis, Debye-Ang):
   XX=            -35.1664   YY=            -34.1287   ZZ=            -37.6475
   XY=             -7.4232   XZ=             -3.9611   YZ=             -2.4966
 Traceless Quadrupole moment (field-independent basis, Debye-Ang):
   XX=              0.4812   YY=              1.5188   ZZ=             -2.0000
   XY=             -7.4232   XZ=             -3.9611   YZ=             -2.4966
 Octapole moment (field-independent basis, Debye-Ang**2):
  XXX=              9.1784  YYY=              2.7392  ZZZ=             -3.4027  XYY=             17.0827
  XXY=             -9.2019  XXZ=             -0.0565  XZZ=              2.2995  YZZ=             -2.1737
  YYZ=             -1.6417  XYZ=              2.3349
 Hexadecapole moment (field-independent basis, Debye-Ang**3):
 XXXX=           -499.8866 YYYY=           -205.7412 ZZZZ=            -84.8535 XXXY=            -49.0346
 XXXZ=            -10.7034 YYYX=            -20.3303 YYYZ=             -5.7667 ZZZX=              0.7255
 ZZZY=             -2.3620 XXYY=           -108.2208 XXZZ=           -107.1869 YYZZ=            -52.7531
 XXYZ=             -1.1316 YYXZ=             -4.5058 ZZXY=              1.3981
 N-N= 2.349545576991D+02 E-N=-1.274603896140D+03  KE= 3.403000138278D+02
  Exact polarizability:  81.475  -5.220  60.785  -4.855  -0.715  45.019
 Approx polarizability: 118.401 -13.182  98.759  -4.919  -3.014  68.239
 Calling FoFJK, ICntrl=    100127 FMM=F ISym2X=0 I1Cent= 0 IOpClX= 0 NMat=1 NMatS=1 NMatT=0.
 ***** Axes restored to original set *****
 -------------------------------------------------------------------
 Center     Atomic                   Forces (Hartrees/Bohr)
 Number     Number              X              Y              Z
 -------------------------------------------------------------------
      1        6           0.033879560    0.018263041    0.001069635
      2        6          -0.007709648   -0.012241904    0.026589796
      3        6           0.006943790   -0.017806735   -0.000887715
      4        8          -0.025706378   -0.027778360   -0.019204345
      5        8           0.006170115    0.018860571   -0.004299725
      6        8           0.009806040    0.009113000    0.012646766
      7        1           0.000766095    0.002314127    0.010392529
      8        1           0.000296680   -0.005154871    0.005695317
      9        1          -0.016383124    0.001080448   -0.002603005
     10        1           0.000641963   -0.000163236    0.000639918
     11        1          -0.022552643    0.007877636   -0.007689183
     12        1           0.013847549    0.005636282   -0.022349988
 -------------------------------------------------------------------
 Cartesian Forces:  Max     0.033879560 RMS     0.014064028
 FormGI is forming the generalized inverse of G from B-inverse, IUseBI=4.

 GradGradGradGradGradGradGradGradGradGradGradGradGradGradGradGradGradGrad
 Berny optimization.
 Internal  Forces:  Max     0.043089612 RMS     0.013814209
 Search for a saddle point.
 Step number   1 out of a maximum of  100
 All quantities printed in internal units (Hartrees-Bohrs-Radians)
 Swapping is turned off.
 Second derivative matrix not updated -- analytic derivatives used.
 ITU=  0
     Eigenvalues ---   -0.40391  -0.07147  -0.03114  -0.00260   0.00258
     Eigenvalues ---    0.00464   0.00893   0.01149   0.03053   0.03331
     Eigenvalues ---    0.05344   0.05982   0.07326   0.11642   0.12076
     Eigenvalues ---    0.13722   0.15597   0.17851   0.19931   0.21586
     Eigenvalues ---    0.30063   0.31491   0.33587   0.35728   0.35877
     Eigenvalues ---    0.36723   0.49278   0.52290   0.61241   0.87926
 Eigenvectors required to have negative eigenvalues:
                          A13       R6        A15       R10       D3
   1                    0.57540  -0.43790  -0.43493   0.29437   0.19588
                          R1        D13       D15       A4        D6
   1                    0.17389   0.17322   0.11852  -0.11595   0.10796
 RFO step:  Lambda0=1.349103451D-03 Lambda=-7.24251816D-02.
 Linear search not attempted -- option 19 set.
 Maximum step size (   0.300) exceeded in Quadratic search.
    -- Step size scaled by   0.315
 Iteration  1 RMS(Cart)=  0.07274060 RMS(Int)=  0.00827972
 Iteration  2 RMS(Cart)=  0.00719714 RMS(Int)=  0.00176432
 Iteration  3 RMS(Cart)=  0.00018581 RMS(Int)=  0.00176279
 Iteration  4 RMS(Cart)=  0.00000006 RMS(Int)=  0.00176279
 Variable       Old X    -DE/DX   Delta X   Delta X   Delta X     New X
                                 (Linear)    (Quad)   (Total)
    R1        2.61490   0.01616   0.00000   0.01411   0.01411   2.62901
    R2        2.05386  -0.00068   0.00000  -0.00022  -0.00022   2.05364
    R3        2.05306   0.00356   0.00000  -0.00004  -0.00004   2.05302
    R4        2.78601   0.01639   0.00000   0.00915   0.00915   2.79517
    R5        2.05562   0.00076   0.00000  -0.00075  -0.00075   2.05487
    R6        3.04271  -0.01459   0.00000  -0.14079  -0.14079   2.90192
    R7        2.28695   0.01841   0.00000   0.00174   0.00174   2.28869
    R8        2.10337  -0.00002   0.00000  -0.00133  -0.00133   2.10204
    R9        2.68642   0.01987   0.00000   0.01940   0.01940   2.70582
   R10        2.42378  -0.01083   0.00000   0.06009   0.06009   2.48386
   R11        1.82440   0.01021   0.00000   0.00355   0.00355   1.82795
    A1        2.18967  -0.00621   0.00000  -0.01753  -0.01761   2.17206
    A2        2.11182  -0.00280   0.00000   0.00394   0.00387   2.11568
    A3        1.90066   0.01043   0.00000   0.02411   0.02404   1.92470
    A4        2.16106  -0.00937   0.00000  -0.03423  -0.03345   2.12761
    A5        2.13333   0.00838   0.00000   0.02334   0.01947   2.15280
    A6        1.32663  -0.00856   0.00000  -0.07197  -0.07192   1.25471
    A7        1.91197   0.00036   0.00000   0.01611   0.01913   1.93110
    A8        1.36443   0.02441   0.00000   0.10519   0.10630   1.47072
    A9        2.44388  -0.02135   0.00000  -0.06217  -0.06511   2.37877
   A10        2.24236  -0.00091   0.00000  -0.01807  -0.01808   2.22428
   A11        1.94101   0.00130   0.00000   0.01308   0.01307   1.95409
   A12        2.09973  -0.00039   0.00000   0.00489   0.00488   2.10461
   A13        2.78095   0.03130   0.00000  -0.15288  -0.15288   2.62807
   A14        1.78622  -0.00438   0.00000  -0.01982  -0.01982   1.76640
   A15        2.19007   0.04309   0.00000   0.13520   0.13520   2.32527
    D1        0.32874  -0.00967   0.00000  -0.03023  -0.03068   0.29807
    D2       -2.35837  -0.00809   0.00000  -0.04910  -0.04995  -2.40832
    D3        1.46490   0.02118   0.00000   0.06914   0.07040   1.53530
    D4        3.00092  -0.00313   0.00000   0.00496   0.00454   3.00546
    D5        0.31381  -0.00155   0.00000  -0.01390  -0.01473   0.29907
    D6       -2.14611   0.02772   0.00000   0.10434   0.10562  -2.04049
    D7       -0.09267   0.00447   0.00000   0.00532   0.00410  -0.08857
    D8        3.03507   0.00487   0.00000  -0.00296  -0.00418   3.03089
    D9        2.64387   0.00530   0.00000   0.02573   0.02329   2.66716
   D10       -0.51157   0.00569   0.00000   0.01746   0.01501  -0.49656
   D11       -1.21060  -0.01007   0.00000  -0.00738  -0.00372  -1.21432
   D12        1.91714  -0.00968   0.00000  -0.01566  -0.01199   1.90515
   D13       -0.29262   0.00982   0.00000  -0.03099  -0.02698  -0.31960
   D14        1.97031  -0.00887   0.00000  -0.08773  -0.08600   1.88432
   D15       -2.45580   0.01771   0.00000   0.05348   0.04773  -2.40807
   D16       -2.56525   0.00350   0.00000   0.02965   0.02965  -2.53560
   D17        0.20616  -0.00297   0.00000   0.02945   0.02945   0.23561
         Item               Value     Threshold  Converged?
 Maximum Force            0.043090     0.000450     NO 
 RMS     Force            0.013814     0.000300     NO 
 Maximum Displacement     0.217940     0.001800     NO 
 RMS     Displacement     0.077057     0.001200     NO 
 Predicted change in Energy=-1.725298D-02
 GradGradGradGradGradGradGradGradGradGradGradGradGradGradGradGradGradGrad

                          Input orientation:                          
 ---------------------------------------------------------------------
 Center     Atomic      Atomic             Coordinates (Angstroms)
 Number     Number       Type             X           Y           Z
 ---------------------------------------------------------------------
      1          6           0        1.321136    1.267102   -2.473619
      2          6           0        0.849046    0.068134   -1.949140
      3          6           0        1.091854   -0.319142   -0.542402
      4          8           0        0.236269    2.507545   -1.224940
      5          8           0        0.951351    3.692325   -1.592590
      6          8           0        1.765693    0.265768    0.276523
      7          1           0        0.951988    4.178625   -0.756407
      8          1           0        2.099831    1.873060   -2.018150
      9          1           0        1.246861    1.485325   -3.535291
     10          1           0        0.548741   -1.250176   -0.267574
     11          1           0        0.638159   -0.808378   -2.557147
     12          1           0        0.033236    1.213316   -1.331746
 ---------------------------------------------------------------------
                    Distance matrix (angstroms):
                    1          2          3          4          5
     1  C    0.000000
     2  C    1.391212   0.000000
     3  C    2.509649   1.479139   0.000000
     4  O    2.067567   2.617382   3.031178   0.000000
     5  O    2.606657   3.643125   4.149037   1.431857   0.000000
     6  O    2.960335   2.415136   1.211123   3.101466   3.987234
     7  H    3.400302   4.281279   4.505027   1.877308   0.967311
     8  H    1.086740   2.197040   2.828357   2.122409   2.193134
     9  H    1.086410   2.163923   3.498216   2.721020   2.955041
    10  H    3.435100   2.157728   1.112352   3.890328   5.132843
    11  H    2.186562   1.087390   2.122354   3.596058   4.613544
    12  H    1.722048   1.535632   2.022910   1.314404   2.656400
                    6          7          8          9         10
     6  O    0.000000
     7  H    4.127894   0.000000
     8  H    2.821447   2.867955   0.000000
     9  H    4.035645   3.881110   1.783147   0.000000
    10  H    2.018688   5.465660   3.901923   4.318369   0.000000
    11  H    3.233390   5.311436   3.101147   2.566780   2.333522
    12  H    2.546720   3.157242   2.275352   2.530313   2.732581
                   11         12
    11  H    0.000000
    12  H    2.440243   0.000000
 Stoichiometry    C3H6O3
 Framework group  C1[X(C3H6O3)]
 Deg. of freedom    30
 Full point group                 C1      NOp   1
 Largest Abelian subgroup         C1      NOp   1
 Largest concise Abelian subgroup C1      NOp   1
                         Standard orientation:                         
 ---------------------------------------------------------------------
 Center     Atomic      Atomic             Coordinates (Angstroms)
 Number     Number       Type             X           Y           Z
 ---------------------------------------------------------------------
      1          6           0        0.207446    1.139843   -0.474279
      2          6           0       -1.017820    1.029856    0.175411
      3          6           0       -1.790060   -0.231683    0.179344
      4          8           0        1.201149   -0.267675    0.668647
      5          8           0        2.340761   -0.331928   -0.195858
      6          8           0       -1.531992   -1.254826   -0.415129
      7          1           0        2.585033   -1.264468   -0.115924
      8          1           0        0.568309    0.444849   -1.227781
      9          1           0        0.705676    2.099687   -0.577970
     10          1           0       -2.684261   -0.169995    0.838074
     11          1           0       -1.668881    1.878505    0.371196
     12          1           0        0.017392    0.218751    0.968260
 ---------------------------------------------------------------------
 Rotational constants (GHZ):           5.9977564           2.1503111           1.7781510
 Standard basis: 6-31+G(d) (6D, 7F)
 There are   126 symmetry adapted cartesian basis functions of A   symmetry.
 There are   126 symmetry adapted basis functions of A   symmetry.
   126 basis functions,   216 primitive gaussians,   126 cartesian basis functions
    24 alpha electrons       24 beta electrons
       nuclear repulsion energy       233.9809596607 Hartrees.
 NAtoms=   12 NActive=   12 NUniq=   12 SFac= 1.00D+00 NAtFMM=   60 NAOKFM=F Big=F
 Integral buffers will be    131072 words long.
 Raffenetti 2 integral format.
 Two-electron integral symmetry is turned on.
 One-electron integrals computed using PRISM.
 NBasis=   126 RedAO= T EigKep=  1.06D-04  NBF=   126
 NBsUse=   126 1.00D-06 EigRej= -1.00D+00 NBFU=   126
 Initial guess from the checkpoint file:  "/scratch/bell/zhao922/YARP/paper-example/KHP-network/pp_0/TS-folder/Gau-4547.chk"
 B after Tr=    -0.000000    0.000000    0.000000
         Rot=    0.999829    0.016387   -0.004373    0.007349 Ang=   2.12 deg.
 ExpMin= 4.38D-02 ExpMax= 5.48D+03 ExpMxC= 8.25D+02 IAcc=3 IRadAn=         5 AccDes= 0.00D+00
 Harris functional with IExCor=  402 and IRadAn=       5 diagonalized for initial guess.
 HarFok:  IExCor=  402 AccDes= 0.00D+00 IRadAn=         5 IDoV= 1 UseB2=F ITyADJ=14
 ICtDFT=  3500011 ScaDFX=  1.000000  1.000000  1.000000  1.000000
 FoFCou: FMM=F IPFlag=           0 FMFlag=      100000 FMFlg1=           0
         NFxFlg=           0 DoJE=T BraDBF=F KetDBF=T FulRan=T
         wScrn=  0.000000 ICntrl=       500 IOpCl=  0 I1Cent=   200000004 NGrid=           0
         NMat0=    1 NMatS0=      1 NMatT0=    0 NMatD0=    1 NMtDS0=    0 NMtDT0=    0
 Petite list used in FoFCou.
 Keep R1 ints in memory in canonical form, NReq=47237537.
 Requested convergence on RMS density matrix=1.00D-08 within 128 cycles.
 Requested convergence on MAX density matrix=1.00D-06.
 Requested convergence on             energy=1.00D-06.
 No special actions if energy rises.
 SCF Done:  E(RB3LYP) =  -343.319385881     A.U. after   14 cycles
            NFock= 14  Conv=0.78D-08     -V/T= 2.0089
 DoSCS=F DFT=T ScalE2(SS,OS)=  1.000000  1.000000
 Range of M.O.s used for correlation:     1   126
 NBasis=   126 NAE=    24 NBE=    24 NFC=     0 NFV=     0
 NROrb=    126 NOA=    24 NOB=    24 NVA=   102 NVB=   102

 **** Warning!!: The largest alpha MO coefficient is  0.31199066D+02

 Symmetrizing basis deriv contribution to polar:
 IMax=3 JMax=2 DiffMx= 0.00D+00
 G2DrvN: will do    13 centers at a time, making    1 passes.
 Calling FoFCou, ICntrl=  3107 FMM=F I1Cent=   0 AccDes= 0.00D+00.
 End of G2Drv F.D. properties file   721 does not exist.
 End of G2Drv F.D. properties file   722 does not exist.
 End of G2Drv F.D. properties file   788 does not exist.
          IDoAtm=111111111111
          Differentiating once with respect to electric field.
                with respect to dipole field.
          Differentiating once with respect to nuclear coordinates.
 Keep R1 ints in memory in canonical form, NReq=47193559.
          There are    39 degrees of freedom in the 1st order CPHF.  IDoFFX=6 NUNeed=     3.
     36 vectors produced by pass  0 Test12= 6.28D-15 2.56D-09 XBig12= 1.02D+02 3.85D+00.
 AX will form    36 AO Fock derivatives at one time.
     36 vectors produced by pass  1 Test12= 6.28D-15 2.56D-09 XBig12= 1.75D+01 6.83D-01.
     36 vectors produced by pass  2 Test12= 6.28D-15 2.56D-09 XBig12= 4.08D-01 9.84D-02.
     36 vectors produced by pass  3 Test12= 6.28D-15 2.56D-09 XBig12= 2.02D-03 7.16D-03.
     36 vectors produced by pass  4 Test12= 6.28D-15 2.56D-09 XBig12= 2.74D-06 1.88D-04.
     30 vectors produced by pass  5 Test12= 6.28D-15 2.56D-09 XBig12= 3.60D-09 8.36D-06.
      4 vectors produced by pass  6 Test12= 6.28D-15 2.56D-09 XBig12= 3.18D-12 2.41D-07.
      3 vectors produced by pass  7 Test12= 6.28D-15 2.56D-09 XBig12= 2.73D-15 7.74D-09.
 InvSVY:  IOpt=1 It=  1 EMax= 2.66D-15
 Solved reduced A of dimension   217 with    39 vectors.
 Isotropic polarizability for W=    0.000000       61.48 Bohr**3.
 End of Minotr F.D. properties file   721 does not exist.
 End of Minotr F.D. properties file   722 does not exist.
 End of Minotr F.D. properties file   788 does not exist.
 Calling FoFJK, ICntrl=    100127 FMM=F ISym2X=0 I1Cent= 0 IOpClX= 0 NMat=1 NMatS=1 NMatT=0.
 ***** Axes restored to original set *****
 -------------------------------------------------------------------
 Center     Atomic                   Forces (Hartrees/Bohr)
 Number     Number              X              Y              Z
 -------------------------------------------------------------------
      1        6           0.027205252    0.012485682    0.001822372
      2        6          -0.008265614   -0.008294984    0.028409230
      3        6           0.006531614   -0.015074716   -0.002247292
      4        8          -0.024141706   -0.014234368   -0.011893849
      5        8           0.007094801    0.013581073   -0.004437957
      6        8           0.007175525    0.007450257    0.009112302
      7        1           0.000625836    0.001568668    0.007624926
      8        1          -0.000254922   -0.004390281    0.005033571
      9        1          -0.014804564    0.001876563   -0.001072347
     10        1           0.000870212   -0.000184287    0.000679224
     11        1          -0.019743157    0.009077622   -0.007127336
     12        1           0.017706722   -0.003861230   -0.025902844
 -------------------------------------------------------------------
 Cartesian Forces:  Max     0.028409230 RMS     0.012182723
 FormGI is forming the generalized inverse of G from B-inverse, IUseBI=4.

 GradGradGradGradGradGradGradGradGradGradGradGradGradGradGradGradGradGrad
 Berny optimization.
 Internal  Forces:  Max     0.039362265 RMS     0.011723982
 Search for a saddle point.
 Step number   2 out of a maximum of  100
 All quantities printed in internal units (Hartrees-Bohrs-Radians)
 Swapping is turned off.
 Second derivative matrix not updated -- analytic derivatives used.
 ITU=  0  0
     Eigenvalues ---   -0.38816  -0.05642  -0.02539  -0.00142   0.00273
     Eigenvalues ---    0.00769   0.01064   0.01390   0.03259   0.04110
     Eigenvalues ---    0.05289   0.06439   0.07626   0.10747   0.11639
     Eigenvalues ---    0.12950   0.15447   0.16811   0.19149   0.21664
     Eigenvalues ---    0.30204   0.31038   0.33310   0.35883   0.36030
     Eigenvalues ---    0.36811   0.49528   0.51661   0.61892   0.87410
 Eigenvectors required to have negative eigenvalues:
                          A13       R6        A15       R10       R1
   1                    0.55339  -0.48958  -0.43705   0.27897   0.19756
                          D3        D13       D15       A4        D6
   1                    0.19147   0.16600   0.10097  -0.10085   0.09583
 RFO step:  Lambda0=6.503801527D-04 Lambda=-5.95204362D-02.
 Linear search not attempted -- option 19 set.
 Maximum step size (   0.300) exceeded in Quadratic search.
    -- Step size scaled by   0.386
 Iteration  1 RMS(Cart)=  0.07489576 RMS(Int)=  0.02054196
 Iteration  2 RMS(Cart)=  0.01245405 RMS(Int)=  0.00205938
 Iteration  3 RMS(Cart)=  0.00083109 RMS(Int)=  0.00202286
 Iteration  4 RMS(Cart)=  0.00000103 RMS(Int)=  0.00202286
 Iteration  5 RMS(Cart)=  0.00000000 RMS(Int)=  0.00202286
 Variable       Old X    -DE/DX   Delta X   Delta X   Delta X     New X
                                 (Linear)    (Quad)   (Total)
    R1        2.62901   0.01053   0.00000   0.01522   0.01522   2.64423
    R2        2.05364  -0.00052   0.00000   0.00028   0.00028   2.05392
    R3        2.05302   0.00244   0.00000  -0.00026  -0.00026   2.05276
    R4        2.79517   0.01161   0.00000   0.00618   0.00618   2.80135
    R5        2.05487   0.00050   0.00000  -0.00004  -0.00004   2.05483
    R6        2.90192  -0.01679   0.00000  -0.14579  -0.14579   2.75613
    R7        2.28869   0.01375   0.00000   0.00206   0.00206   2.29075
    R8        2.10204  -0.00010   0.00000  -0.00156  -0.00156   2.10048
    R9        2.70582   0.01557   0.00000   0.01886   0.01886   2.72467
   R10        2.48386  -0.00234   0.00000   0.07917   0.07917   2.56304
   R11        1.82795   0.00738   0.00000   0.00397   0.00397   1.83192
    A1        2.17206  -0.00541   0.00000  -0.01425  -0.01430   2.15777
    A2        2.11568  -0.00197   0.00000  -0.00499  -0.00504   2.11064
    A3        1.92470   0.00890   0.00000   0.02777   0.02772   1.95241
    A4        2.12761  -0.00775   0.00000  -0.01242  -0.01107   2.11654
    A5        2.15280   0.00530   0.00000  -0.00079  -0.00560   2.14720
    A6        1.25471  -0.01018   0.00000  -0.07531  -0.07635   1.17836
    A7        1.93110   0.00248   0.00000   0.02367   0.02654   1.95765
    A8        1.47072   0.02428   0.00000   0.11926   0.11976   1.59049
    A9        2.37877  -0.01957   0.00000  -0.07846  -0.08231   2.29646
   A10        2.22428  -0.00156   0.00000  -0.01647  -0.01647   2.20781
   A11        1.95409   0.00177   0.00000   0.01362   0.01362   1.96770
   A12        2.10461  -0.00021   0.00000   0.00275   0.00275   2.10736
   A13        2.62807   0.01781   0.00000  -0.12974  -0.12974   2.49833
   A14        1.76640  -0.00332   0.00000  -0.00477  -0.00477   1.76162
   A15        2.32527   0.03936   0.00000   0.12599   0.12599   2.45126
    D1        0.29807  -0.00858   0.00000  -0.02493  -0.02525   0.27281
    D2       -2.40832  -0.00922   0.00000  -0.06073  -0.06079  -2.46911
    D3        1.53530   0.01961   0.00000   0.07954   0.07991   1.61521
    D4        3.00546  -0.00199   0.00000   0.00661   0.00630   3.01175
    D5        0.29907  -0.00263   0.00000  -0.02919  -0.02924   0.26983
    D6       -2.04049   0.02620   0.00000   0.11108   0.11146  -1.92903
    D7       -0.08857   0.00272   0.00000  -0.00199  -0.00305  -0.09162
    D8        3.03089   0.00265   0.00000  -0.00664  -0.00770   3.02320
    D9        2.66716   0.00432   0.00000   0.02545   0.02280   2.68997
   D10       -0.49656   0.00425   0.00000   0.02080   0.01816  -0.47840
   D11       -1.21432  -0.00567   0.00000  -0.00114   0.00256  -1.21176
   D12        1.90515  -0.00574   0.00000  -0.00579  -0.00209   1.90306
   D13       -0.31960   0.00672   0.00000  -0.07930  -0.07430  -0.39390
   D14        1.88432  -0.00983   0.00000  -0.12284  -0.12060   1.76372
   D15       -2.40807   0.01362   0.00000   0.01572   0.00848  -2.39959
   D16       -2.53560   0.00322   0.00000   0.08864   0.08864  -2.44696
   D17        0.23561  -0.00492   0.00000  -0.17989  -0.17989   0.05572
         Item               Value     Threshold  Converged?
 Maximum Force            0.039362     0.000450     NO 
 RMS     Force            0.011724     0.000300     NO 
 Maximum Displacement     0.286650     0.001800     NO 
 RMS     Displacement     0.079037     0.001200     NO 
 Predicted change in Energy=-2.040028D-02
 GradGradGradGradGradGradGradGradGradGradGradGradGradGradGradGradGradGrad

                          Input orientation:                          
 ---------------------------------------------------------------------
 Center     Atomic      Atomic             Coordinates (Angstroms)
 Number     Number       Type             X           Y           Z
 ---------------------------------------------------------------------
      1          6           0        1.314657    1.267151   -2.452793
      2          6           0        0.840027    0.060151   -1.927610
      3          6           0        1.117513   -0.330599   -0.524806
      4          8           0        0.166198    2.550759   -1.327625
      5          8           0        1.054548    3.667711   -1.532911
      6          8           0        1.822695    0.262505    0.262852
      7          1           0        0.898279    4.178075   -0.723672
      8          1           0        2.093851    1.862544   -1.984079
      9          1           0        1.212639    1.494505   -3.510099
     10          1           0        0.576646   -1.252789   -0.220628
     11          1           0        0.579823   -0.794354   -2.547676
     12          1           0        0.057289    1.207846   -1.483435
 ---------------------------------------------------------------------
                    Distance matrix (angstroms):
                    1          2          3          4          5
     1  C    0.000000
     2  C    1.399264   0.000000
     3  C    2.511733   1.482411   0.000000
     4  O    2.057331   2.648991   3.138749   0.000000
     5  O    2.583898   3.635422   4.123921   1.441835   0.000000
     6  O    2.939752   2.409296   1.212212   3.241867   3.925588
     7  H    3.411262   4.290706   4.518379   1.883841   0.969411
     8  H    1.086890   2.196335   2.809376   2.149515   2.131274
     9  H    1.086275   2.168059   3.500289   2.640814   2.942293
    10  H    3.446348   2.169554   1.111528   3.982573   5.114860
    11  H    2.190613   1.087367   2.143871   3.584604   4.600558
    12  H    1.588756   1.458484   2.099966   1.356302   2.654790
                    6          7          8          9         10
     6  O    0.000000
     7  H    4.142398   0.000000
     8  H    2.771705   2.894770   0.000000
     9  H    4.015613   3.881306   1.800201   0.000000
    10  H    2.020521   5.463587   3.888054   4.332750   0.000000
    11  H    3.249730   5.305982   3.109506   2.562340   2.371777
    12  H    2.657037   3.179114   2.197012   2.350399   2.814096
                   11         12
    11  H    0.000000
    12  H    2.326898   0.000000
 Stoichiometry    C3H6O3
 Framework group  C1[X(C3H6O3)]
 Deg. of freedom    30
 Full point group                 C1      NOp   1
 Largest Abelian subgroup         C1      NOp   1
 Largest concise Abelian subgroup C1      NOp   1
                         Standard orientation:                         
 ---------------------------------------------------------------------
 Center     Atomic      Atomic             Coordinates (Angstroms)
 Number     Number       Type             X           Y           Z
 ---------------------------------------------------------------------
      1          6           0        0.203068    1.086631   -0.527420
      2          6           0       -1.027292    1.025128    0.136184
      3          6           0       -1.807376   -0.234031    0.195609
      4          8           0        1.282162   -0.124266    0.738240
      5          8           0        2.288083   -0.414690   -0.253055
      6          8           0       -1.540474   -1.274740   -0.365770
      7          1           0        2.582427   -1.292177    0.035280
      8          1           0        0.546759    0.331438   -1.229482
      9          1           0        0.712891    2.034936   -0.671611
     10          1           0       -2.698556   -0.156647    0.855386
     11          1           0       -1.646230    1.900192    0.319338
     12          1           0        0.054146    0.425453    0.909525
 ---------------------------------------------------------------------
 Rotational constants (GHZ):           5.9123282           2.1268512           1.7784539
 Standard basis: 6-31+G(d) (6D, 7F)
 There are   126 symmetry adapted cartesian basis functions of A   symmetry.
 There are   126 symmetry adapted basis functions of A   symmetry.
   126 basis functions,   216 primitive gaussians,   126 cartesian basis functions
    24 alpha electrons       24 beta electrons
       nuclear repulsion energy       233.3284547251 Hartrees.
 NAtoms=   12 NActive=   12 NUniq=   12 SFac= 1.00D+00 NAtFMM=   60 NAOKFM=F Big=F
 Integral buffers will be    131072 words long.
 Raffenetti 2 integral format.
 Two-electron integral symmetry is turned on.
 One-electron integrals computed using PRISM.
 NBasis=   126 RedAO= T EigKep=  1.04D-04  NBF=   126
 NBsUse=   126 1.00D-06 EigRej= -1.00D+00 NBFU=   126
 Initial guess from the checkpoint file:  "/scratch/bell/zhao922/YARP/paper-example/KHP-network/pp_0/TS-folder/Gau-4547.chk"
 B after Tr=     0.000000   -0.000000   -0.000000
         Rot=    0.999480    0.031869   -0.004793    0.000764 Ang=   3.69 deg.
 ExpMin= 4.38D-02 ExpMax= 5.48D+03 ExpMxC= 8.25D+02 IAcc=3 IRadAn=         5 AccDes= 0.00D+00
 Harris functional with IExCor=  402 and IRadAn=       5 diagonalized for initial guess.
 HarFok:  IExCor=  402 AccDes= 0.00D+00 IRadAn=         5 IDoV= 1 UseB2=F ITyADJ=14
 ICtDFT=  3500011 ScaDFX=  1.000000  1.000000  1.000000  1.000000
 FoFCou: FMM=F IPFlag=           0 FMFlag=      100000 FMFlg1=           0
         NFxFlg=           0 DoJE=T BraDBF=F KetDBF=T FulRan=T
         wScrn=  0.000000 ICntrl=       500 IOpCl=  0 I1Cent=   200000004 NGrid=           0
         NMat0=    1 NMatS0=      1 NMatT0=    0 NMatD0=    1 NMtDS0=    0 NMtDT0=    0
 Petite list used in FoFCou.
 Keep R1 ints in memory in canonical form, NReq=47237537.
 Requested convergence on RMS density matrix=1.00D-08 within 128 cycles.
 Requested convergence on MAX density matrix=1.00D-06.
 Requested convergence on             energy=1.00D-06.
 No special actions if energy rises.
 SCF Done:  E(RB3LYP) =  -343.338865453     A.U. after   14 cycles
            NFock= 14  Conv=0.51D-08     -V/T= 2.0090
 DoSCS=F DFT=T ScalE2(SS,OS)=  1.000000  1.000000
 Range of M.O.s used for correlation:     1   126
 NBasis=   126 NAE=    24 NBE=    24 NFC=     0 NFV=     0
 NROrb=    126 NOA=    24 NOB=    24 NVA=   102 NVB=   102

 **** Warning!!: The largest alpha MO coefficient is  0.31972395D+02

 Symmetrizing basis deriv contribution to polar:
 IMax=3 JMax=2 DiffMx= 0.00D+00
 G2DrvN: will do    13 centers at a time, making    1 passes.
 Calling FoFCou, ICntrl=  3107 FMM=F I1Cent=   0 AccDes= 0.00D+00.
 End of G2Drv F.D. properties file   721 does not exist.
 End of G2Drv F.D. properties file   722 does not exist.
 End of G2Drv F.D. properties file   788 does not exist.
          IDoAtm=111111111111
          Differentiating once with respect to electric field.
                with respect to dipole field.
          Differentiating once with respect to nuclear coordinates.
 Keep R1 ints in memory in canonical form, NReq=47193559.
          There are    39 degrees of freedom in the 1st order CPHF.  IDoFFX=6 NUNeed=     3.
     36 vectors produced by pass  0 Test12= 6.28D-15 2.56D-09 XBig12= 1.00D+02 4.78D+00.
 AX will form    36 AO Fock derivatives at one time.
     36 vectors produced by pass  1 Test12= 6.28D-15 2.56D-09 XBig12= 1.85D+01 6.93D-01.
     36 vectors produced by pass  2 Test12= 6.28D-15 2.56D-09 XBig12= 4.07D-01 8.35D-02.
     36 vectors produced by pass  3 Test12= 6.28D-15 2.56D-09 XBig12= 1.80D-03 6.99D-03.
     36 vectors produced by pass  4 Test12= 6.28D-15 2.56D-09 XBig12= 2.25D-06 1.61D-04.
     28 vectors produced by pass  5 Test12= 6.28D-15 2.56D-09 XBig12= 2.53D-09 7.04D-06.
      4 vectors produced by pass  6 Test12= 6.28D-15 2.56D-09 XBig12= 2.04D-12 1.72D-07.
      3 vectors produced by pass  7 Test12= 6.28D-15 2.56D-09 XBig12= 1.59D-15 7.11D-09.
 InvSVY:  IOpt=1 It=  1 EMax= 4.44D-15
 Solved reduced A of dimension   215 with    39 vectors.
 Isotropic polarizability for W=    0.000000       60.62 Bohr**3.
 End of Minotr F.D. properties file   721 does not exist.
 End of Minotr F.D. properties file   722 does not exist.
 End of Minotr F.D. properties file   788 does not exist.
 Calling FoFJK, ICntrl=    100127 FMM=F ISym2X=0 I1Cent= 0 IOpClX= 0 NMat=1 NMatS=1 NMatT=0.
 ***** Axes restored to original set *****
 -------------------------------------------------------------------
 Center     Atomic                   Forces (Hartrees/Bohr)
 Number     Number              X              Y              Z
 -------------------------------------------------------------------
      1        6           0.020232760    0.009513284   -0.000861563
      2        6          -0.007377768   -0.002651263    0.022924168
      3        6           0.005267212   -0.011164860   -0.002768533
      4        8          -0.022978070   -0.002573776   -0.019655060
      5        8           0.008597360    0.007026109    0.002416181
      6        8           0.004619560    0.005879805    0.006092568
      7        1          -0.000113823    0.000609932    0.005413322
      8        1          -0.000620051   -0.003304681    0.004487862
      9        1          -0.011455486    0.001135379   -0.000065928
     10        1           0.001193460   -0.000347566    0.000507212
     11        1          -0.017081359    0.008914442   -0.005612784
     12        1           0.019716204   -0.013036806   -0.012877445
 -------------------------------------------------------------------
 Cartesian Forces:  Max     0.022978070 RMS     0.010156356
 FormGI is forming the generalized inverse of G from B-inverse, IUseBI=4.

 GradGradGradGradGradGradGradGradGradGradGradGradGradGradGradGradGradGrad
 Berny optimization.
 Internal  Forces:  Max     0.030212231 RMS     0.009252099
 Search for a saddle point.
 Step number   3 out of a maximum of  100
 All quantities printed in internal units (Hartrees-Bohrs-Radians)
 Swapping is turned off.
 Second derivative matrix not updated -- analytic derivatives used.
 ITU=  0  0  0
     Eigenvalues ---   -0.29855  -0.04467  -0.00312   0.00088   0.00483
     Eigenvalues ---    0.00811   0.01516   0.01787   0.03329   0.05122
     Eigenvalues ---    0.05372   0.07090   0.08398   0.10029   0.11320
     Eigenvalues ---    0.12818   0.15297   0.17437   0.19445   0.21925
     Eigenvalues ---    0.30320   0.30865   0.32581   0.35884   0.36089
     Eigenvalues ---    0.36845   0.48047   0.50999   0.64954   0.86869
 Eigenvectors required to have negative eigenvalues:
                          R6        A13       A15       R10       R1
   1                   -0.53556   0.51968  -0.42177   0.27308   0.20922
                          D3        D13       D2        D17       A4
   1                    0.19573   0.18190   0.09773   0.09387  -0.09116
 RFO step:  Lambda0=2.905813607D-04 Lambda=-4.86393114D-02.
 Linear search not attempted -- option 19 set.
 Maximum step size (   0.300) exceeded in Quadratic search.
    -- Step size scaled by   0.537
 Iteration  1 RMS(Cart)=  0.09479682 RMS(Int)=  0.04404123
 Iteration  2 RMS(Cart)=  0.05192760 RMS(Int)=  0.01066282
 Iteration  3 RMS(Cart)=  0.02229162 RMS(Int)=  0.00159734
 Iteration  4 RMS(Cart)=  0.00078227 RMS(Int)=  0.00145433
 Iteration  5 RMS(Cart)=  0.00000117 RMS(Int)=  0.00145433
 Iteration  6 RMS(Cart)=  0.00000000 RMS(Int)=  0.00145433
 Variable       Old X    -DE/DX   Delta X   Delta X   Delta X     New X
                                 (Linear)    (Quad)   (Total)
    R1        2.64423   0.00776   0.00000   0.02389   0.02389   2.66812
    R2        2.05392  -0.00032   0.00000   0.00035   0.00035   2.05428
    R3        2.05276   0.00138   0.00000  -0.00077  -0.00077   2.05199
    R4        2.80135   0.00719   0.00000   0.00322   0.00322   2.80457
    R5        2.05483   0.00028   0.00000   0.00025   0.00025   2.05508
    R6        2.75613  -0.01660   0.00000  -0.17002  -0.17002   2.58611
    R7        2.29075   0.00952   0.00000   0.00337   0.00337   2.29412
    R8        2.10048  -0.00015   0.00000  -0.00188  -0.00188   2.09860
    R9        2.72467   0.01003   0.00000   0.01372   0.01372   2.73839
   R10        2.56304   0.00249   0.00000   0.08990   0.08990   2.65294
   R11        1.83192   0.00486   0.00000   0.00440   0.00440   1.83632
    A1        2.15777  -0.00442   0.00000  -0.01612  -0.01615   2.14162
    A2        2.11064  -0.00171   0.00000  -0.01284  -0.01288   2.09776
    A3        1.95241   0.00735   0.00000   0.03648   0.03644   1.98885
    A4        2.11654  -0.00477   0.00000   0.00306   0.00350   2.12004
    A5        2.14720   0.00110   0.00000  -0.02777  -0.03112   2.11608
    A6        1.17836  -0.00777   0.00000  -0.03609  -0.03718   1.14118
    A7        1.95765   0.00407   0.00000   0.03431   0.03660   1.99425
    A8        1.59049   0.01960   0.00000   0.09862   0.09913   1.68962
    A9        2.29646  -0.01737   0.00000  -0.10124  -0.10379   2.19266
   A10        2.20781  -0.00176   0.00000  -0.01490  -0.01490   2.19291
   A11        1.96770   0.00185   0.00000   0.01312   0.01312   1.98082
   A12        2.10736  -0.00010   0.00000   0.00168   0.00168   2.10904
   A13        2.49833   0.00646   0.00000  -0.13366  -0.13366   2.36467
   A14        1.76162  -0.00241   0.00000   0.00379   0.00379   1.76541
   A15        2.45126   0.03021   0.00000   0.08116   0.08116   2.53242
    D1        0.27281  -0.00672   0.00000  -0.03168  -0.03198   0.24083
    D2       -2.46911  -0.00882   0.00000  -0.06907  -0.06851  -2.53762
    D3        1.61521   0.01586   0.00000   0.06879   0.06852   1.68373
    D4        3.01175  -0.00133   0.00000  -0.00042  -0.00072   3.01104
    D5        0.26983  -0.00342   0.00000  -0.03781  -0.03725   0.23259
    D6       -1.92903   0.02126   0.00000   0.10005   0.09979  -1.82925
    D7       -0.09162   0.00199   0.00000   0.01880   0.01815  -0.07347
    D8        3.02320   0.00178   0.00000   0.01486   0.01422   3.03741
    D9        2.68997   0.00350   0.00000   0.04007   0.03855   2.72851
   D10       -0.47840   0.00329   0.00000   0.03613   0.03461  -0.44379
   D11       -1.21176  -0.00301   0.00000  -0.00261  -0.00044  -1.21220
   D12        1.90306  -0.00322   0.00000  -0.00654  -0.00438   1.89868
   D13       -0.39390   0.00327   0.00000  -0.09539  -0.09224  -0.48614
   D14        1.76372  -0.00956   0.00000  -0.13064  -0.12798   1.63573
   D15       -2.39959   0.00714   0.00000  -0.03436  -0.04016  -2.43975
   D16       -2.44696   0.00375   0.00000   0.19555   0.19555  -2.25141
   D17        0.05572  -0.01354   0.00000  -0.37978  -0.37978  -0.32407
         Item               Value     Threshold  Converged?
 Maximum Force            0.030212     0.000450     NO 
 RMS     Force            0.009252     0.000300     NO 
 Maximum Displacement     0.441740     0.001800     NO 
 RMS     Displacement     0.145037     0.001200     NO 
 Predicted change in Energy=-2.244089D-02
 GradGradGradGradGradGradGradGradGradGradGradGradGradGradGradGradGradGrad

                          Input orientation:                          
 ---------------------------------------------------------------------
 Center     Atomic      Atomic             Coordinates (Angstroms)
 Number     Number       Type             X           Y           Z
 ---------------------------------------------------------------------
      1          6           0        1.321551    1.249381   -2.508102
      2          6           0        0.827165    0.070180   -1.909314
      3          6           0        1.135402   -0.270058   -0.497996
      4          8           0        0.129802    2.591162   -1.517804
      5          8           0        1.166088    3.580190   -1.299152
      6          8           0        1.870505    0.357376    0.236669
      7          1           0        0.796037    4.077870   -0.551054
      8          1           0        2.112207    1.847569   -2.062267
      9          1           0        1.186583    1.419584   -3.572019
     10          1           0        0.596169   -1.169020   -0.131419
     11          1           0        0.501637   -0.774630   -2.511796
     12          1           0        0.091017    1.193899   -1.648229
 ---------------------------------------------------------------------
                    Distance matrix (angstroms):
                    1          2          3          4          5
     1  C    0.000000
     2  C    1.411907   0.000000
     3  C    2.526633   1.484113   0.000000
     4  O    2.049715   2.644796   3.199659   0.000000
     5  O    2.630285   3.578734   3.932836   1.449093   0.000000
     6  O    2.937821   2.403390   1.213995   3.331369   3.638885
     7  H    3.479447   4.231716   4.361475   1.894406   0.971738
     8  H    1.087076   2.198599   2.808102   2.186161   2.116474
     9  H    1.085866   2.171327   3.508152   2.590209   3.136011
    10  H    3.467488   2.179424   1.110533   4.034666   4.923760
    11  H    2.183781   1.087501   2.170632   3.529142   4.569077
    12  H    1.502224   1.368511   2.134700   1.403873   2.640458
                    6          7          8          9         10
     6  O    0.000000
     7  H    3.951844   0.000000
     8  H    2.750309   2.998385   0.000000
     9  H    4.012748   4.042925   1.821896   0.000000
    10  H    2.022204   5.267438   3.889262   4.345940   0.000000
    11  H    3.272507   5.241941   3.109975   2.531364   2.414680
    12  H    2.723819   3.165144   2.164237   2.225347   2.852942
                   11         12
    11  H    0.000000
    12  H    2.188485   0.000000
 Stoichiometry    C3H6O3
 Framework group  C1[X(C3H6O3)]
 Deg. of freedom    30
 Full point group                 C1      NOp   1
 Largest Abelian subgroup         C1      NOp   1
 Largest concise Abelian subgroup C1      NOp   1
                         Standard orientation:                         
 ---------------------------------------------------------------------
 Center     Atomic      Atomic             Coordinates (Angstroms)
 Number     Number       Type             X           Y           Z
 ---------------------------------------------------------------------
      1          6           0        0.166074    1.116603   -0.602259
      2          6           0       -1.046640    1.006991    0.112437
      3          6           0       -1.761237   -0.288266    0.231824
      4          8           0        1.371105    0.131764    0.731654
      5          8           0        2.127741   -0.602366   -0.262543
      6          8           0       -1.438006   -1.326893   -0.307211
      7          1           0        2.471527   -1.339343    0.269387
      8          1           0        0.524690    0.340103   -1.273210
      9          1           0        0.608853    2.091999   -0.780178
     10          1           0       -2.641868   -0.247411    0.907178
     11          1           0       -1.666025    1.878887    0.309462
     12          1           0        0.066921    0.643751    0.820153
 ---------------------------------------------------------------------
 Rotational constants (GHZ):           5.4538738           2.2637719           1.8336406
 Standard basis: 6-31+G(d) (6D, 7F)
 There are   126 symmetry adapted cartesian basis functions of A   symmetry.
 There are   126 symmetry adapted basis functions of A   symmetry.
   126 basis functions,   216 primitive gaussians,   126 cartesian basis functions
    24 alpha electrons       24 beta electrons
       nuclear repulsion energy       233.6706171292 Hartrees.
 NAtoms=   12 NActive=   12 NUniq=   12 SFac= 1.00D+00 NAtFMM=   60 NAOKFM=F Big=F
 Integral buffers will be    131072 words long.
 Raffenetti 2 integral format.
 Two-electron integral symmetry is turned on.
 One-electron integrals computed using PRISM.
 NBasis=   126 RedAO= T EigKep=  1.06D-04  NBF=   126
 NBsUse=   126 1.00D-06 EigRej= -1.00D+00 NBFU=   126
 Initial guess from the checkpoint file:  "/scratch/bell/zhao922/YARP/paper-example/KHP-network/pp_0/TS-folder/Gau-4547.chk"
 B after Tr=    -0.000000    0.000000   -0.000000
         Rot=    0.999269    0.037016   -0.007145   -0.006317 Ang=   4.38 deg.
 ExpMin= 4.38D-02 ExpMax= 5.48D+03 ExpMxC= 8.25D+02 IAcc=3 IRadAn=         5 AccDes= 0.00D+00
 Harris functional with IExCor=  402 and IRadAn=       5 diagonalized for initial guess.
 HarFok:  IExCor=  402 AccDes= 0.00D+00 IRadAn=         5 IDoV= 1 UseB2=F ITyADJ=14
 ICtDFT=  3500011 ScaDFX=  1.000000  1.000000  1.000000  1.000000
 FoFCou: FMM=F IPFlag=           0 FMFlag=      100000 FMFlg1=           0
         NFxFlg=           0 DoJE=T BraDBF=F KetDBF=T FulRan=T
         wScrn=  0.000000 ICntrl=       500 IOpCl=  0 I1Cent=   200000004 NGrid=           0
         NMat0=    1 NMatS0=      1 NMatT0=    0 NMatD0=    1 NMtDS0=    0 NMtDT0=    0
 Petite list used in FoFCou.
 Keep R1 ints in memory in canonical form, NReq=47237537.
 Requested convergence on RMS density matrix=1.00D-08 within 128 cycles.
 Requested convergence on MAX density matrix=1.00D-06.
 Requested convergence on             energy=1.00D-06.
 No special actions if energy rises.
 SCF Done:  E(RB3LYP) =  -343.359191463     A.U. after   15 cycles
            NFock= 15  Conv=0.38D-08     -V/T= 2.0091
 DoSCS=F DFT=T ScalE2(SS,OS)=  1.000000  1.000000
 Range of M.O.s used for correlation:     1   126
 NBasis=   126 NAE=    24 NBE=    24 NFC=     0 NFV=     0
 NROrb=    126 NOA=    24 NOB=    24 NVA=   102 NVB=   102

 **** Warning!!: The largest alpha MO coefficient is  0.30177853D+02

 Symmetrizing basis deriv contribution to polar:
 IMax=3 JMax=2 DiffMx= 0.00D+00
 G2DrvN: will do    13 centers at a time, making    1 passes.
 Calling FoFCou, ICntrl=  3107 FMM=F I1Cent=   0 AccDes= 0.00D+00.
 End of G2Drv F.D. properties file   721 does not exist.
 End of G2Drv F.D. properties file   722 does not exist.
 End of G2Drv F.D. properties file   788 does not exist.
          IDoAtm=111111111111
          Differentiating once with respect to electric field.
                with respect to dipole field.
          Differentiating once with respect to nuclear coordinates.
 Keep R1 ints in memory in canonical form, NReq=47193552.
          There are    39 degrees of freedom in the 1st order CPHF.  IDoFFX=6 NUNeed=     3.
     36 vectors produced by pass  0 Test12= 6.28D-15 2.56D-09 XBig12= 9.65D+01 4.94D+00.
 AX will form    36 AO Fock derivatives at one time.
     36 vectors produced by pass  1 Test12= 6.28D-15 2.56D-09 XBig12= 2.16D+01 9.85D-01.
     36 vectors produced by pass  2 Test12= 6.28D-15 2.56D-09 XBig12= 3.82D-01 8.26D-02.
     36 vectors produced by pass  3 Test12= 6.28D-15 2.56D-09 XBig12= 1.09D-03 5.48D-03.
     36 vectors produced by pass  4 Test12= 6.28D-15 2.56D-09 XBig12= 1.53D-06 1.87D-04.
     27 vectors produced by pass  5 Test12= 6.28D-15 2.56D-09 XBig12= 1.63D-09 5.61D-06.
      3 vectors produced by pass  6 Test12= 6.28D-15 2.56D-09 XBig12= 1.40D-12 1.61D-07.
      3 vectors produced by pass  7 Test12= 6.28D-15 2.56D-09 XBig12= 1.18D-15 5.03D-09.
 InvSVY:  IOpt=1 It=  1 EMax= 2.22D-15
 Solved reduced A of dimension   213 with    39 vectors.
 Isotropic polarizability for W=    0.000000       59.78 Bohr**3.
 End of Minotr F.D. properties file   721 does not exist.
 End of Minotr F.D. properties file   722 does not exist.
 End of Minotr F.D. properties file   788 does not exist.
 Calling FoFJK, ICntrl=    100127 FMM=F ISym2X=0 I1Cent= 0 IOpClX= 0 NMat=1 NMatS=1 NMatT=0.
 ***** Axes restored to original set *****
 -------------------------------------------------------------------
 Center     Atomic                   Forces (Hartrees/Bohr)
 Number     Number              X              Y              Z
 -------------------------------------------------------------------
      1        6           0.017845915    0.008459605   -0.003698688
      2        6          -0.004546880    0.004965046    0.010271671
      3        6           0.004868647   -0.006746008   -0.001862385
      4        8          -0.009638877    0.000278112   -0.027771867
      5        8           0.004165592    0.000463036    0.006875883
      6        8           0.001778849    0.003524917    0.003041272
      7        1          -0.001072408   -0.000666407    0.002919712
      8        1          -0.000943436   -0.002030272    0.003713310
      9        1          -0.007170694    0.000423897    0.000458629
     10        1           0.001259220   -0.000542180    0.000143768
     11        1          -0.013616272    0.007378143   -0.003029943
     12        1           0.007070342   -0.015507889    0.008938636
 -------------------------------------------------------------------
 Cartesian Forces:  Max     0.027771867 RMS     0.007963830
 FormGI is forming the generalized inverse of G from B-inverse, IUseBI=4.

 GradGradGradGradGradGradGradGradGradGradGradGradGradGradGradGradGradGrad
 Berny optimization.
 Internal  Forces:  Max     0.017123633 RMS     0.006358275
 Search for a saddle point.
 Step number   4 out of a maximum of  100
 All quantities printed in internal units (Hartrees-Bohrs-Radians)
 Swapping is turned off.
 Second derivative matrix not updated -- analytic derivatives used.
 ITU=  0  0  0  0
     Eigenvalues ---   -0.20725  -0.02757  -0.00488   0.00440   0.00987
     Eigenvalues ---    0.01672   0.01700   0.03130   0.03936   0.05063
     Eigenvalues ---    0.06044   0.08141   0.08858   0.10079   0.11117
     Eigenvalues ---    0.12924   0.15065   0.17435   0.20058   0.22139
     Eigenvalues ---    0.30134   0.30724   0.31692   0.35870   0.36128
     Eigenvalues ---    0.36911   0.41674   0.50234   0.59023   0.85912
 Eigenvectors required to have negative eigenvalues:
                          R6        A13       A15       R10       R1
   1                   -0.56039   0.46095  -0.42595   0.30693   0.21691
                          D3        D13       D2        D15       A4
   1                    0.20878   0.18767   0.11802   0.09223  -0.08746
 RFO step:  Lambda0=3.261905624D-04 Lambda=-3.60228234D-02.
 Linear search not attempted -- option 19 set.
 Maximum step size (   0.300) exceeded in Quadratic search.
    -- Step size scaled by   0.778
 Iteration  1 RMS(Cart)=  0.13658144 RMS(Int)=  0.07873686
 Iteration  2 RMS(Cart)=  0.07842068 RMS(Int)=  0.04732300
 Iteration  3 RMS(Cart)=  0.07479157 RMS(Int)=  0.01772232
 Iteration  4 RMS(Cart)=  0.03987937 RMS(Int)=  0.00197378
 Iteration  5 RMS(Cart)=  0.00219991 RMS(Int)=  0.00095990
 Iteration  6 RMS(Cart)=  0.00000664 RMS(Int)=  0.00095990
 Iteration  7 RMS(Cart)=  0.00000000 RMS(Int)=  0.00095990
 Variable       Old X    -DE/DX   Delta X   Delta X   Delta X     New X
                                 (Linear)    (Quad)   (Total)
    R1        2.66812   0.00893   0.00000   0.03123   0.03123   2.69934
    R2        2.05428  -0.00028   0.00000  -0.00243  -0.00243   2.05185
    R3        2.05199   0.00051   0.00000  -0.00050  -0.00050   2.05149
    R4        2.80457   0.00376   0.00000  -0.00228  -0.00228   2.80228
    R5        2.05508   0.00002   0.00000   0.00037   0.00037   2.05545
    R6        2.58611  -0.01468   0.00000  -0.08438  -0.08438   2.50173
    R7        2.29412   0.00474   0.00000   0.00372   0.00372   2.29784
    R8        2.09860  -0.00013   0.00000   0.00021   0.00021   2.09881
    R9        2.73839   0.00355   0.00000   0.00950   0.00950   2.74789
   R10        2.65294  -0.00178   0.00000  -0.08214  -0.08214   2.57080
   R11        1.83632   0.00231   0.00000   0.00337   0.00337   1.83968
    A1        2.14162  -0.00340   0.00000  -0.02412  -0.02419   2.11743
    A2        2.09776  -0.00116   0.00000  -0.00676  -0.00682   2.09094
    A3        1.98885   0.00534   0.00000   0.03993   0.03986   2.02871
    A4        2.12004  -0.00391   0.00000  -0.00020  -0.00294   2.11710
    A5        2.11608   0.00013   0.00000  -0.03536  -0.03369   2.08239
    A6        1.14118  -0.00170   0.00000   0.07583   0.07645   1.21763
    A7        1.99425   0.00380   0.00000   0.02741   0.02804   2.02229
    A8        1.68962   0.01221   0.00000   0.06316   0.06504   1.75466
    A9        2.19266  -0.01415   0.00000  -0.12804  -0.12892   2.06374
   A10        2.19291  -0.00102   0.00000  -0.00349  -0.00350   2.18942
   A11        1.98082   0.00116   0.00000   0.00667   0.00667   1.98749
   A12        2.10904  -0.00015   0.00000  -0.00329  -0.00329   2.10575
   A13        2.36467  -0.00584   0.00000  -0.18659  -0.18659   2.17809
   A14        1.76541  -0.00230   0.00000  -0.00053  -0.00053   1.76488
   A15        2.53242   0.00894   0.00000  -0.06828  -0.06828   2.46414
    D1        0.24083  -0.00558   0.00000  -0.07660  -0.07615   0.16468
    D2       -2.53762  -0.00641   0.00000  -0.05502  -0.05482  -2.59244
    D3        1.68373   0.01115   0.00000   0.05632   0.05566   1.73939
    D4        3.01104  -0.00196   0.00000  -0.03886  -0.03840   2.97263
    D5        0.23259  -0.00279   0.00000  -0.01728  -0.01707   0.21552
    D6       -1.82925   0.01477   0.00000   0.09406   0.09341  -1.73584
    D7       -0.07347   0.00291   0.00000   0.08333   0.08346   0.00999
    D8        3.03741   0.00277   0.00000   0.07927   0.07940   3.11682
    D9        2.72851   0.00310   0.00000   0.05132   0.05108   2.77959
   D10       -0.44379   0.00296   0.00000   0.04727   0.04702  -0.39677
   D11       -1.21220  -0.00323   0.00000  -0.04543  -0.04532  -1.25752
   D12        1.89868  -0.00337   0.00000  -0.04949  -0.04938   1.84930
   D13       -0.48614   0.00447   0.00000   0.02282   0.01917  -0.46697
   D14        1.63573  -0.00530   0.00000  -0.01746  -0.01448   1.62125
   D15       -2.43975   0.00239   0.00000  -0.00396  -0.00330  -2.44304
   D16       -2.25141   0.00322   0.00000   0.16945   0.16945  -2.08196
   D17       -0.32407  -0.01712   0.00000  -0.66186  -0.66186  -0.98593
         Item               Value     Threshold  Converged?
 Maximum Force            0.017124     0.000450     NO 
 RMS     Force            0.006358     0.000300     NO 
 Maximum Displacement     0.754089     0.001800     NO 
 RMS     Displacement     0.228258     0.001200     NO 
 Predicted change in Energy=-2.380757D-02
 GradGradGradGradGradGradGradGradGradGradGradGradGradGradGradGradGradGrad

                          Input orientation:                          
 ---------------------------------------------------------------------
 Center     Atomic      Atomic             Coordinates (Angstroms)
 Number     Number       Type             X           Y           Z
 ---------------------------------------------------------------------
      1          6           0        1.385380    1.216033   -2.617780
      2          6           0        0.787505    0.140217   -1.892810
      3          6           0        1.171007   -0.150653   -0.490197
      4          8           0        0.224831    2.603532   -1.733622
      5          8           0        1.156616    3.346163   -0.900105
      6          8           0        1.987268    0.472127    0.161290
      7          1           0        0.545939    3.905157   -0.387916
      8          1           0        2.240489    1.756267   -2.222970
      9          1           0        1.207431    1.312590   -3.684337
     10          1           0        0.612219   -0.997134   -0.037700
     11          1           0        0.329906   -0.681085   -2.439753
     12          1           0        0.085574    1.250289   -1.726582
 ---------------------------------------------------------------------
                    Distance matrix (angstroms):
                    1          2          3          4          5
     1  C    0.000000
     2  C    1.428432   0.000000
     3  C    2.537794   1.482904   0.000000
     4  O    2.013396   2.531771   3.166526   0.000000
     5  O    2.745941   3.376358   3.520789   1.454123   0.000000
     6  O    2.939200   2.401858   1.215966   3.352575   3.174369
     7  H    3.592818   4.061753   4.104968   1.899543   0.973519
     8  H    1.085790   2.198133   2.789738   2.240580   2.335063
     9  H    1.085602   2.181825   3.513536   2.537188   3.448180
    10  H    3.486072   2.183054   1.110642   3.998876   4.461427
[...]
   A14        1.70510   0.00000   0.00000  -0.00001  -0.00001   1.70510
   A15        1.76572   0.00001   0.00000  -0.00000  -0.00000   1.76572
    D1        0.06159   0.00000   0.00000   0.00006   0.00006   0.06165
    D2       -2.75400  -0.00000   0.00000   0.00004   0.00004  -2.75396
    D3        1.74605  -0.00000   0.00000   0.00011   0.00011   1.74615
    D4        2.52740   0.00000   0.00000   0.00008   0.00008   2.52749
    D5       -0.28818  -0.00000   0.00000   0.00006   0.00006  -0.28813
    D6       -2.07133   0.00000   0.00000   0.00013   0.00013  -2.07120
    D7        0.10310  -0.00000   0.00000  -0.00002  -0.00002   0.10308
    D8       -3.05238  -0.00000   0.00000  -0.00002  -0.00002  -3.05240
    D9        2.92227  -0.00000   0.00000   0.00000   0.00000   2.92227
   D10       -0.23321  -0.00000   0.00000   0.00001   0.00001  -0.23320
   D11       -1.30451   0.00000   0.00000  -0.00007  -0.00007  -1.30458
   D12        1.82320   0.00000   0.00000  -0.00007  -0.00007   1.82313
   D13        0.23329  -0.00001   0.00000  -0.00016  -0.00016   0.23312
   D14        2.29397  -0.00000   0.00000  -0.00015  -0.00015   2.29382
   D15       -1.80360  -0.00000   0.00000  -0.00018  -0.00018  -1.80378
   D16       -1.97952   0.00000   0.00000   0.00040   0.00040  -1.97912
   D17       -2.65447  -0.00001   0.00000  -0.00039  -0.00039  -2.65486
         Item               Value     Threshold  Converged?
 Maximum Force            0.000010     0.000450     YES
 RMS     Force            0.000004     0.000300     YES
 Maximum Displacement     0.000313     0.001800     YES
 RMS     Displacement     0.000109     0.001200     YES
 Predicted change in Energy=-2.456241D-09
 Optimization completed.
    -- Stationary point found.
                           ----------------------------
                           !   Optimized Parameters   !
                           ! (Angstroms and Degrees)  !
 --------------------------                            --------------------------
 ! Name  Definition              Value          Derivative Info.                !
 --------------------------------------------------------------------------------
 ! R1    R(1,2)                  1.4604         -DE/DX =    0.0                 !
 ! R2    R(1,8)                  1.0895         -DE/DX =    0.0                 !
 ! R3    R(1,9)                  1.0879         -DE/DX =    0.0                 !
 ! R4    R(2,3)                  1.4597         -DE/DX =    0.0                 !
 ! R5    R(2,11)                 1.0872         -DE/DX =    0.0                 !
 ! R6    R(2,12)                 1.641          -DE/DX =    0.0                 !
 ! R7    R(3,6)                  1.227          -DE/DX =    0.0                 !
 ! R8    R(3,10)                 1.11           -DE/DX =    0.0                 !
 ! R9    R(4,5)                  1.5827         -DE/DX =    0.0                 !
 ! R10   R(4,12)                 1.131          -DE/DX =    0.0                 !
 ! R11   R(5,7)                  0.9765         -DE/DX =    0.0                 !
 ! A1    A(2,1,8)              115.662          -DE/DX =    0.0                 !
 ! A2    A(2,1,9)              118.7693         -DE/DX =    0.0                 !
 ! A3    A(8,1,9)              114.0812         -DE/DX =    0.0                 !
 ! A4    A(1,2,3)              119.9178         -DE/DX =    0.0                 !
 ! A5    A(1,2,11)             119.2883         -DE/DX =    0.0                 !
 ! A6    A(1,2,12)              75.7479         -DE/DX =    0.0                 !
 ! A7    A(3,2,11)             118.173          -DE/DX =    0.0                 !
 ! A8    A(3,2,12)             102.5954         -DE/DX =    0.0                 !
 ! A9    A(11,2,12)            107.373          -DE/DX =    0.0                 !
 ! A10   A(2,3,6)              125.2649         -DE/DX =    0.0                 !
 ! A11   A(2,3,10)             114.7648         -DE/DX =    0.0                 !
 ! A12   A(6,3,10)             119.9655         -DE/DX =    0.0                 !
 ! A13   A(5,4,12)             135.1897         -DE/DX =    0.0                 !
 ! A14   A(4,5,7)               97.6952         -DE/DX =    0.0                 !
 ! A15   A(2,12,4)             101.1683         -DE/DX =    0.0                 !
 ! D1    D(8,1,2,3)              3.5288         -DE/DX =    0.0                 !
 ! D2    D(8,1,2,11)          -157.7925         -DE/DX =    0.0                 !
 ! D3    D(8,1,2,12)           100.041          -DE/DX =    0.0                 !
 ! D4    D(9,1,2,3)            144.8095         -DE/DX =    0.0                 !
 ! D5    D(9,1,2,11)           -16.5117         -DE/DX =    0.0                 !
 ! D6    D(9,1,2,12)          -118.6782         -DE/DX =    0.0                 !
 ! D7    D(1,2,3,6)              5.907          -DE/DX =    0.0                 !
 ! D8    D(1,2,3,10)          -174.8885         -DE/DX =    0.0                 !
 ! D9    D(11,2,3,6)           167.4337         -DE/DX =    0.0                 !
 ! D10   D(11,2,3,10)          -13.3617         -DE/DX =    0.0                 !
 ! D11   D(12,2,3,6)           -74.743          -DE/DX =    0.0                 !
 ! D12   D(12,2,3,10)          104.4616         -DE/DX =    0.0                 !
 ! D13   D(1,2,12,4)            13.3663         -DE/DX =    0.0                 !
 ! D14   D(3,2,12,4)           131.4349         -DE/DX =    0.0                 !
 ! D15   D(11,2,12,4)         -103.3386         -DE/DX =    0.0                 !
 ! D16   D(12,4,5,7)          -113.4182         -DE/DX =    0.0                 !
 ! D17   D(5,4,12,2)          -152.0899         -DE/DX =    0.0                 !
 --------------------------------------------------------------------------------
 GradGradGradGradGradGradGradGradGradGradGradGradGradGradGradGradGradGrad


 ----------------------------------------------------------------------

 Electric dipole moment (input orientation):
 (Debye = 10**-18 statcoulomb cm , SI units = C m)
                  (au)            (Debye)         (10**-30 SI)
   Tot        0.185211D+01      0.470758D+01      0.157028D+02
   x         -0.122303D+01     -0.310864D+01     -0.103693D+02
   y          0.345668D+00      0.878600D+00      0.293069D+01
   z         -0.134722D+01     -0.342429D+01     -0.114222D+02

 Dipole polarizability, Alpha (input orientation).
 (esu units = cm**3 , SI units = C**2 m**2 J**-1)
 Alpha(0;0):
               (au)            (10**-24 esu)      (10**-40 SI)
   iso        0.691477D+02      0.102466D+02      0.114009D+02
   aniso      0.619843D+02      0.918512D+01      0.102198D+02
   xx         0.502953D+02      0.745299D+01      0.829257D+01
   yx        -0.590954D+01     -0.875704D+00     -0.974352D+00
   yy         0.108798D+03      0.161221D+02      0.179383D+02
   zx         0.496824D+01      0.736217D+00      0.819152D+00
   zy        -0.640644D+01     -0.949337D+00     -0.105628D+01
   zz         0.483501D+02      0.716474D+01      0.797185D+01

 ----------------------------------------------------------------------

 Dipole orientation:
     6          5.02941445         -1.98742177          1.76083344
     6          3.24458322          0.10824319          1.56427269
     6          2.61133537          1.14855163         -0.91082232
     8          2.85828522         -3.89066945          2.34580200
     8          3.12195357         -6.85119901          2.01214511
     8          3.31328110          0.28545536         -2.94517373
     1          2.88426284         -7.32129629          3.78060756
     1          5.89109034         -2.59363933         -0.00810842
     1          6.29555812         -2.06031778          3.37895666
     1          1.37275053          2.84080409         -0.86197618
     1          2.84576511          1.24798391          3.22639168
     1          1.44682587         -2.41380623          1.71783229

 Electric dipole moment (dipole orientation):
 (Debye = 10**-18 statcoulomb cm , SI units = C m)
                  (au)            (Debye)         (10**-30 SI)
   Tot        0.185211D+01      0.470758D+01      0.157028D+02
   x          0.000000D+00      0.000000D+00      0.000000D+00
   y          0.000000D+00      0.000000D+00      0.000000D+00
   z          0.185211D+01      0.470758D+01      0.157028D+02

 Dipole polarizability, Alpha (dipole orientation).
 (esu units = cm**3 , SI units = C**2 m**2 J**-1)
 Alpha(0;0):
               (au)            (10**-24 esu)      (10**-40 SI)
   iso        0.691477D+02      0.102466D+02      0.114009D+02
   aniso      0.619843D+02      0.918512D+01      0.102198D+02
   xx         0.448130D+02      0.664060D+01      0.738866D+01
   yx        -0.448972D+01     -0.665307D+00     -0.740254D+00
   yy         0.103357D+03      0.153160D+02      0.170413D+02
   zx        -0.114588D+00     -0.169802D-01     -0.188930D-01
   zy        -0.181802D+02     -0.269403D+01     -0.299752D+01
   zz         0.592728D+02      0.878332D+01      0.977276D+01

 ----------------------------------------------------------------------
 1\1\GINC-BELL-A096\Freq\RB3LYP\6-31+G(d)\C3H6O3\ZHAO922\23-Dec-2020\0\
 \#N Geom=AllCheck Guess=TCheck SCRF=Check GenChk RB3LYP/6-31+G(d) Freq
 \\pp_8_1 TS\\0,1\C,1.4493323567,1.3942815562,-2.2389832996\C,0.7328291
 255,0.2208665709,-1.7466040943\C,1.3079424065,-0.586896133,-0.67534488
 21\O,0.4578927524,2.3569301372,-1.517499742\O,0.7905662224,3.868985685
 ,-1.1888132513\O,2.3290989488,-0.3137918532,-0.0523229507\H,0.09631307
 83,4.2784188192,-1.7400478357\H,2.4312337853,1.5664358171,-1.799309894
 7\H,1.387524792,1.6396925137,-3.297078579\H,0.7370064253,-1.5062784977
 ,-0.4284668772\H,-0.0487836156,-0.2209978655,-2.3595926141\H,0.0632077
 226,1.4758572502,-0.9284179793\\Version=ES64L-G16RevB.01\State=1-A\HF=
 -343.4097106\RMSD=1.628e-09\RMSF=3.576e-06\ZeroPoint=0.085866\Thermal=
 0.0929836\Dipole=-1.2230332,0.3456679,-1.3472198\DipoleDeriv=0.3106123
 ,-0.1589538,-0.1919516,-0.0894132,0.4966548,-0.1234065,-0.1189493,0.25
 01298,0.342909,-0.2768111,0.265783,0.0927983,0.3645515,-1.1099062,0.27
 76482,0.0341371,0.5035036,-0.3925345,0.9903329,-0.2942091,0.5555431,0.
 0412912,0.9832938,-0.3455005,0.6091501,-1.1055813,0.8290851,-0.3390808
 ,0.128783,0.0301365,0.1063544,1.4790298,-0.0420566,-0.0144036,-0.05779
 37,-0.2063134,-0.1630996,-0.0771134,0.1261236,0.2125223,-2.1377457,0.0
 602903,0.1326403,-0.0214676,-0.2343364,-0.9846525,0.3688896,-0.4689889
 ,-0.1315687,-0.4359102,-0.0171223,-0.4193929,0.4320337,-0.728693,0.241
 9669,-0.1462771,-0.1056922,0.0060829,0.1920956,0.0066936,-0.0941897,-0
 .1096527,0.2549488,0.0087945,-0.003257,0.0164635,-0.0153149,0.0347353,
 -0.0056055,-0.0412217,-0.0425307,0.0565405,0.0687678,0.0183617,-0.0202
 661,0.0012165,0.0535992,0.0673536,0.0187989,0.0181559,-0.0589098,-0.05
 64877,-0.2087803,0.0127526,-0.1489982,-0.2180992,0.065212,0.0072944,0.
 1107807,0.0317571,0.048525,-0.0591393,-0.0645261,-0.0948364,-0.0050388
 ,-0.0092548,-0.1081749,0.0039418,0.0125952,0.1511324,0.1659126,0.01760
 73,-0.2518873,0.6672916,0.0657486,-0.0056887,0.0184805,0.0929515\Polar
 =50.295299,-5.9095449,108.7975942,4.9682407,-6.4064431,48.3500708\Quad
 rupole=-0.589314,1.0159474,-0.4266334,0.4705524,-2.2271946,-0.6089182\
 PG=C01 [X(C3H6O3)]\NImag=1\\0.55587655,0.14712938,0.30250354,0.0753679
 9,-0.13320107,0.60865323,-0.13027296,-0.06569297,0.01415260,0.42097997
 ,-0.09549673,-0.17639702,0.07008807,0.18332298,0.49596433,0.01336872,0
 .03050032,-0.11236613,0.21741225,-0.10418789,0.41927128,0.01563278,-0.
 00006036,0.01964494,-0.09118500,-0.01200382,-0.04682325,0.68911328,0.0
 0671230,-0.02037822,0.01875680,0.01539929,-0.14770788,0.08837562,0.198
 46611,0.50978297,0.00208267,0.02588923,-0.00735932,-0.04419713,0.05649
 635,-0.15696043,0.26183392,-0.08744701,0.46960063,-0.09878463,-0.00850
 318,0.02556427,0.01714282,-0.01660742,-0.01648861,-0.00893406,0.000393
 65,-0.00366048,0.18291402,-0.00090048,-0.00979256,0.00765092,0.0388056
 3,-0.10661731,-0.04257635,-0.01318333,-0.00049972,-0.00092585,-0.00930
 093,0.12132252,0.02899207,0.01545244,-0.05600208,-0.01340185,-0.008804
 42,0.01310187,0.00248148,0.00071730,-0.00012592,-0.09300309,-0.0010415
 5,0.17954776,0.01870776,-0.01434260,-0.01129677,0.00676393,0.01049399,
 0.00007470,0.00316416,0.00103957,0.00070952,-0.05045469,0.00855687,0.0
 0298418,0.29099916,0.00315242,-0.02461205,-0.00613510,-0.00769908,-0.0
 1191503,0.01840504,-0.00405754,0.00663899,-0.01952175,-0.01848375,-0.0
 0278418,-0.03890378,-0.11956767,0.17369125,-0.00547234,0.00531954,-0.0
 0221744,-0.00536611,0.00899001,0.01138208,0.00241795,-0.00149768,0.000
 62105,0.00442771,0.00802232,-0.04631308,0.22019730,-0.08419218,0.19094
 787,-0.00454033,-0.00999124,-0.00072546,-0.03241648,0.02420577,-0.0440
 0209,-0.49137756,-0.13511990,-0.24570722,0.00456744,0.00340998,0.00080
 454,-0.00117389,0.00804702,-0.00115713,0.54986592,-0.00075294,-0.00241
 887,-0.00074395,0.01501255,0.02818694,0.00838924,-0.12590486,-0.130739
 50,-0.05274487,0.00190490,0.00373007,-0.00058112,-0.00085282,0.0004388
 8,-0.00056440,0.14299085,0.10210614,-0.00114393,-0.00781464,-0.0007880
 6,-0.04858629,0.01360465,-0.02491484,-0.25184168,-0.05939956,-0.223784
 70,0.00157657,0.00005760,0.00020418,0.00036987,0.00822594,-0.00057767,
 0.31559384,0.05756190,0.23837780,-0.00149723,0.00059821,0.00025446,0.0
 0056852,-0.00328815,0.00058862,-0.00125084,0.00073438,-0.00206869,0.00
 495570,-0.01029651,0.00644124,-0.26214886,0.14142269,-0.20674890,0.001
 06484,0.00019175,0.00094843,0.25588440,-0.00176415,-0.00106216,0.00210
 873,-0.00146740,-0.00401471,-0.00056370,-0.00080083,0.00019722,-0.0010
 2200,0.01812768,-0.01838026,0.01244216,0.11233496,-0.09883855,0.088165
 79,0.00063930,0.00026340,0.00027818,-0.12983816,0.12297682,-0.00133130
 ,-0.00001871,0.00265245,-0.00018691,-0.00250761,0.00053517,-0.00078939
 ,0.00036729,-0.00143023,0.00938397,-0.00709894,0.00294113,-0.20892935,
 0.11058379,-0.16772872,0.00076597,0.00015830,0.00056610,0.20122214,-0.
 10085567,0.16360841,-0.27462006,-0.04553964,-0.10538821,-0.00708705,-0
 .00503590,-0.00511797,-0.00155558,0.00068776,-0.00139123,-0.01999771,0
 .00368841,0.00206356,0.00032599,-0.00035962,-0.00062229,0.00103664,0.0
 0154552,-0.00008275,0.00010220,-0.00005538,0.00018988,0.29873455,-0.04
 902843,-0.05304224,-0.01575966,-0.02587308,-0.00479636,-0.01064303,-0.
 00170294,-0.00047336,-0.00417423,0.02855745,-0.00276934,-0.00030181,-0
 .00100191,0.00171252,0.00050852,0.00265783,0.00153144,0.00068574,-0.00
 019999,0.00029339,-0.00010984,0.04496016,0.05785896,-0.11280576,-0.015
 93661,-0.10572394,0.00765684,0.00003519,0.00682425,0.00084537,0.000426
 68,-0.00011835,0.02181442,-0.00268736,0.00379373,-0.00073857,0.0024226
 8,-0.00004541,-0.00025212,-0.00040420,-0.00073047,-0.00006778,0.000374
 18,-0.00013930,0.10959726,0.02163259,0.10383727,-0.05365632,-0.0019764
 9,-0.03078346,0.00507034,-0.00373827,0.01181513,-0.00270939,-0.0019503
 8,-0.00161258,-0.00680514,0.00189317,0.02359386,-0.00060787,-0.0010708
 1,0.00024665,0.00108242,0.00169880,-0.00011136,0.00009572,-0.00001130,
 0.00005312,0.00397606,0.00594251,-0.02587551,0.05471291,-0.00288496,-0
 .05909258,0.07110464,0.00332262,-0.00302471,0.02687880,-0.00649647,-0.
 00050741,0.00221658,0.00852357,-0.00232159,-0.02402357,0.00026518,0.00
 265496,-0.00005864,0.00104362,0.00054520,-0.00035917,0.00026307,0.0001
 3963,-0.00015226,-0.00096879,0.00352765,-0.00500004,-0.00537916,0.0639
 4850,-0.02501444,0.06702962,-0.32087807,-0.00249289,0.00118985,-0.0014
 1781,0.00043994,0.00046760,0.00047825,0.00628440,-0.00170811,-0.010502
 42,0.00011334,0.00001181,-0.00009127,0.00042844,0.00010534,0.00016644,
 0.00005210,-0.00003254,-0.00038096,-0.00005244,0.00378072,-0.00748079,
 0.01970187,-0.06849239,0.34068055,0.00096427,0.00205066,-0.00362781,0.
 01132635,0.00537353,-0.00564873,-0.09974847,-0.08148834,0.03035699,0.0
 0043331,0.00060838,-0.00049087,-0.00003161,-0.00184878,-0.00006470,-0.
 02834827,-0.03628545,-0.00997675,-0.00012664,-0.00007570,-0.00013089,-
 0.00014440,0.00020127,-0.00059567,0.00033780,0.00092000,-0.00007836,0.
 11539922,0.00164215,-0.00033658,0.00437636,-0.01266517,-0.01208961,0.0
 0870671,-0.07498161,-0.21174079,0.05599357,-0.00002364,0.00068691,0.00
 066206,-0.00021127,-0.00055782,-0.00011938,-0.02566345,0.00176571,-0.0
 0730943,-0.00010773,0.00009248,0.00002547,-0.00004768,0.00048568,-0.00
 037909,-0.00044873,-0.00113068,-0.00001075,0.11160724,0.22150735,-0.00
 400225,0.00229081,-0.00076629,0.00777464,0.02207112,0.00093741,0.02585
 389,0.05410648,-0.07747574,0.00016053,-0.00111252,-0.00052024,-0.00016
 223,0.00159601,0.00051077,-0.01929130,-0.01704761,0.01568591,0.0000994
 1,0.00001554,0.00012113,0.00000969,-0.00015895,0.00040370,0.00043683,0
 .00012986,-0.00033071,-0.01154155,-0.06238420,0.06143675,-0.01191072,-
 0.00433658,-0.00862615,-0.18412760,-0.09446516,-0.12599262,-0.00957372
 ,-0.00584774,-0.00217388,0.00141860,-0.00237586,0.00115402,-0.00087033
 ,0.00349527,-0.00015321,0.00225408,0.00122327,-0.00366757,0.00018572,0
 .00059576,0.00013741,-0.00005219,-0.00385892,0.00036956,0.00006865,0.0
 0163597,0.00046634,-0.00031764,0.00114462,0.00058789,0.19914793,-0.013
 74579,-0.00648147,-0.01392210,-0.09795654,-0.09210560,-0.05793531,0.01
 666102,0.01062932,0.01042631,-0.00198212,0.00199771,0.00014009,0.00137
 752,-0.00314437,0.00016572,0.00011848,-0.00230607,0.00337796,-0.000214
 05,-0.00065755,-0.00028028,-0.00063743,-0.00119801,0.00160965,0.000983
 94,-0.00020492,-0.00007348,-0.00012827,-0.00027085,-0.00114829,0.09973
 713,0.09714715,0.01393054,0.00783853,0.00987118,-0.13317124,-0.0552708
 4,-0.14105908,-0.01074959,-0.01760988,-0.00679737,0.00058412,0.0017604
 6,-0.00047607,0.00021496,-0.00267840,0.00022240,-0.00411429,0.00543443
 ,-0.00234456,-0.00019656,-0.00040566,-0.00005764,0.00086569,0.00404564
 ,-0.00018503,0.00032819,-0.00192362,0.00047435,0.00100321,0.00077914,0
 .00017156,0.13517620,0.06041265,0.14364030,-0.01589912,0.00066481,0.02
 546359,-0.01676285,0.00723920,0.00081386,-0.00157560,0.00097330,0.0058
 2810,-0.02645565,-0.02090531,0.03838085,-0.00467374,-0.00303015,-0.007
 70493,-0.00201480,-0.00077156,-0.00307838,0.00216647,0.00231522,-0.000
 38466,-0.00071844,-0.00065397,0.00005197,-0.00156519,-0.00024465,0.000
 15171,0.00025608,-0.00024472,0.00007446,0.00377724,-0.00421388,-0.0038
 7123,0.06346560,0.00593723,0.05111021,-0.00432365,-0.04450884,0.034516
 95,0.03465055,0.02406464,-0.01520161,0.01481368,-0.00260620,0.01542775
 ,0.04424222,0.00190817,-0.04328459,-0.02473962,-0.01233826,-0.00310333
 ,-0.00890917,0.00073450,-0.00100971,-0.00011155,0.00176259,-0.00313032
 ,-0.00209367,0.00405672,-0.00453406,-0.00226767,-0.00093452,0.00158819
 ,0.00164175,0.00305224,-0.00340533,-0.00238245,0.01887173,-0.02897414,
 0.01602803,0.00265054,-0.01507553,0.00040608,-0.00170447,-0.01533377,-
 0.00331359,0.00273635,0.00335214,0.04335620,0.03965937,-0.08564887,-0.
 00353697,0.01018594,0.01328943,-0.00234318,0.00043693,-0.00186011,-0.0
 0052446,-0.00050499,-0.00068754,-0.00007118,0.00049431,-0.00043565,0.0
 0220726,-0.00032017,-0.00071756,0.00079513,-0.00034047,-0.00017426,0.0
 0272201,-0.00277293,-0.00346004,-0.05572533,-0.05052042,0.10675175\\0.
 00000784,-0.00000025,-0.00000129,-0.00000055,0.00000470,-0.00000282,-0
 .00000008,0.00000004,0.00000115,-0.00001590,-0.00000432,0.00000140,0.0
 0000593,-0.00000204,0.00000077,-0.00000155,-0.00000094,-0.00000075,0.0
 0000168,-0.00000029,-0.00000023,0.00000082,-0.00000162,-0.00000076,0.0
 0000046,-0.00000041,0.00000020,-0.00000098,-0.00000014,-0.00000071,-0.
 00000079,0.00000094,-0.00000007,0.00000312,0.00000432,0.00000309\\\@


 OLD AGE AND TREACHERY WILL ALWAYS PREVAIL OVER YOUTH AND SKILL.
 Job cpu time:       0 days  0 hours  4 minutes  7.8 seconds.
 Elapsed time:       0 days  0 hours  0 minutes 15.7 seconds.
 File lengths (MBytes):  RWF=     27 Int=      0 D2E=      0 Chk=      3 Scr=      1
 Normal termination of Gaussian 16 at Wed Dec 23 22:05:47 2020.
