 Entering Gaussian System, Link 0=g16
 Initial command:
 /apps/cent7/gaussian/g16-B.01/g16-haswell/g16/l1.exe "/scratch/bell/zhao922/YARP/paper-example/KHP-network/pp_0/TS-folder/Gau-4165.inp" -scrdir="/scratch/bell/zhao922/YARP/paper-example/KHP-network/pp_0/TS-folder/"
 Entering Link 1 = /apps/cent7/gaussian/g16-B.01/g16-haswell/g16/l1.exe PID=      4167.
  
 Copyright (c) 1988-2017, Gaussian, Inc.  All Rights Reserved.
  
 This is part of the Gaussian(R) 16 program.  It is based on
 the Gaussian(R) 09 system (copyright 2009, Gaussian, Inc.),
 the Gaussian(R) 03 system (copyright 2003, Gaussian, Inc.),
 the Gaussian(R) 98 system (copyright 1998, Gaussian, Inc.),
 the Gaussian(R) 94 system (copyright 1995, Gaussian, Inc.),
 the Gaussian 92(TM) system (copyright 1992, Gaussian, Inc.),
 the Gaussian 90(TM) system (copyright 1990, Gaussian, Inc.),
 the Gaussian 88(TM) system (copyright 1988, Gaussian, Inc.),
 the Gaussian 86(TM) system (copyright 1986, Carnegie Mellon
 University), and the Gaussian 82(TM) system (copyright 1983,
 Carnegie Mellon University). Gaussian is a federally registered
 trademark of Gaussian, Inc.
  
 This software contains proprietary and confidential information,
 including trade secrets, belonging to Gaussian, Inc.
  
 This software is provided under written license and may be
 used, copied, transmitted, or stored only in accord with that
 written license.
  
 The following legend is applicable only to US Government
 contracts under FAR:
  
                    RESTRICTED RIGHTS LEGEND
  
 Use, reproduction and disclosure by the US Government is
 subject to restrictions as set forth in subparagraphs (a)
 and (c) of the Commercial Computer Software - Restricted
 Rights clause in FAR 52.227-19.
  
 Gaussian, Inc.
 340 Quinnipiac St., Bldg. 40, Wallingford CT 06492
  
  
 ---------------------------------------------------------------
 Warning -- This program may not be used in any manner that
 competes with the business of Gaussian, Inc. or will provide
 assistance to any competitor of Gaussian, Inc.  The licensee
 of this program is prohibited from giving any competitor of
 Gaussian, Inc. access to this program.  By using this program,
 the user acknowledges that Gaussian, Inc. is engaged in the
 business of creating and licensing software in the field of
 computational chemistry and represents and warrants to the
 licensee that it is not a competitor of Gaussian, Inc. and that
 it will not use this program in any manner prohibited above.
 ---------------------------------------------------------------
  

 Cite this work as:
 Gaussian 16, Revision B.01,
 M. J. Frisch, G. W. Trucks, H. B. Schlegel, G. E. Scuseria, 
 M. A. Robb, J. R. Cheeseman, G. Scalmani, V. Barone, 
 G. A. Petersson, H. Nakatsuji, X. Li, M. Caricato, A. V. Marenich, 
 J. Bloino, B. G. Janesko, R. Gomperts, B. Mennucci, H. P. Hratchian, 
 J. V. Ortiz, A. F. Izmaylov, J. L. Sonnenberg, D. Williams-Young, 
 F. Ding, F. Lipparini, F. Egidi, J. Goings, B. Peng, A. Petrone, 
 T. Henderson, D. Ranasinghe, V. G. Zakrzewski, J. Gao, N. Rega, 
 G. Zheng, W. Liang, M. Hada, M. Ehara, K. Toyota, R. Fukuda, 
 J. Hasegawa, M. Ishida, T. Nakajima, Y. Honda, O. Kitao, H. Nakai, 
 T. Vreven, K. Throssell, J. A. Montgomery, Jr., J. E. Peralta, 
 F. Ogliaro, M. J. Bearpark, J. J. Heyd, E. N. Brothers, K. N. Kudin, 
 V. N. Staroverov, T. A. Keith, R. Kobayashi, J. Normand, 
 K. Raghavachari, A. P. Rendell, J. C. Burant, S. S. Iyengar, 
 J. Tomasi, M. Cossi, J. M. Millam, M. Klene, C. Adamo, R. Cammi, 
 J. W. Ochterski, R. L. Martin, K. Morokuma, O. Farkas, 
 J. B. Foresman, and D. J. Fox, Gaussian, Inc., Wallingford CT, 2016.
 
 ******************************************
 Gaussian 16:  ES64L-G16RevB.01 20-Dec-2017
                23-Dec-2020 
 ******************************************
 %NProcShared=16
 Will use up to   16 processors via shared memory.
 %Mem=6GB
 --------------------------------------------------------------
 # B3LYP/6-31+G* OPT=(TS, CALCALL, NOEIGEN, maxcycles=100) Freq
 --------------------------------------------------------------
 1/5=1,6=100,10=4,11=1,18=20,26=3,38=1/1,3;
 2/9=110,12=2,17=6,18=5,40=1/2;
 3/5=1,6=6,7=11,11=2,25=1,30=1,71=2,74=-5,140=1/1,2,3;
 4//1;
 5/5=2,38=5/2;
 8/6=4,10=90,11=11/1;
 11/6=1,8=1,9=11,15=111,16=1/1,2,10;
 10/6=1/2;
 6/7=2,8=2,9=2,10=2,18=1,28=1/1;
 7/10=1,25=1/1,2,3,16;
 1/5=1,6=100,10=4,11=1,18=20,26=3/3(3);
 2/9=110/2;
 7/8=1,9=1,25=1,44=-1/16;
 99//99;
 2/9=110/2;
 3/5=1,6=6,7=11,11=2,25=1,30=1,71=2,74=-5,140=1/1,2,3;
 4/5=5,16=3,69=1/1;
 5/5=2,38=5/2;
 8/6=4,10=90,11=11/1;
 11/6=1,8=1,9=11,15=111,16=1/1,2,10;
 10/6=1/2;
 7/10=1,25=1/1,2,3,16;
 1/5=1,6=100,10=4,11=1,18=20,26=3/3(-8);
 2/9=110/2;
 6/7=2,8=2,9=2,10=2,18=1,19=2,28=1/1;
 7/8=1,9=1,25=1,44=-1/16;
 99//99;
 ---------
 pp_9_3 TS
 ---------
 Symbolic Z-matrix:
 Charge =  0 Multiplicity = 1
 C                     1.08003   1.50813  -1.26973 
 C                     0.02192   0.36055  -1.14617 
 C                     1.75376  -0.38912  -1.10357 
 O                     1.60701   1.92024  -2.34741 
 O                     1.43883   3.59499  -2.52439 
 O                     1.69082  -1.38998  -0.45243 
 H                     1.83088   3.72491  -3.38893 
 H                     1.56115   1.83906  -0.34369 
 H                    -0.33098   1.49122  -1.64793 
 H                     2.51066  -0.04339  -1.7744 
 H                    -0.34502  -0.36834  -1.85495 
 H                    -0.63134   0.5164   -0.29523 
 
 Add virtual bond connecting atoms O5         and O4         Dist= 3.20D+00.
 Add virtual bond connecting atoms C3         and C1         Dist= 3.82D+00.
 Add virtual bond connecting atoms C3         and C2         Dist= 3.57D+00.

 GradGradGradGradGradGradGradGradGradGradGradGradGradGradGradGradGradGrad
 Berny optimization.
 Initialization pass.
                           ----------------------------
                           !    Initial Parameters    !
                           ! (Angstroms and Degrees)  !
 --------------------------                            --------------------------
 ! Name  Definition              Value          Derivative Info.                !
 --------------------------------------------------------------------------------
 ! R1    R(1,2)                  1.5658         calculate D2E/DX2 analytically  !
 ! R2    R(1,3)                  2.0202         calculate D2E/DX2 analytically  !
 ! R3    R(1,4)                  1.2684         calculate D2E/DX2 analytically  !
 ! R4    R(1,8)                  1.0948         calculate D2E/DX2 analytically  !
 ! R5    R(2,3)                  1.8876         calculate D2E/DX2 analytically  !
 ! R6    R(2,9)                  1.2864         calculate D2E/DX2 analytically  !
 ! R7    R(2,11)                 1.0809         calculate D2E/DX2 analytically  !
 ! R8    R(2,12)                 1.084          calculate D2E/DX2 analytically  !
 ! R9    R(3,6)                  1.1957         calculate D2E/DX2 analytically  !
 ! R10   R(3,10)                 1.0689         calculate D2E/DX2 analytically  !
 ! R11   R(4,5)                  1.6924         calculate D2E/DX2 analytically  !
 ! R12   R(5,7)                  0.9581         calculate D2E/DX2 analytically  !
 ! A1    A(2,1,4)              125.8667         calculate D2E/DX2 analytically  !
 ! A2    A(2,1,8)              116.8567         calculate D2E/DX2 analytically  !
 ! A3    A(3,1,4)              103.6775         calculate D2E/DX2 analytically  !
 ! A4    A(3,1,8)               93.8847         calculate D2E/DX2 analytically  !
 ! A5    A(4,1,8)              115.9683         calculate D2E/DX2 analytically  !
 ! A6    A(1,2,9)               60.6868         calculate D2E/DX2 analytically  !
 ! A7    A(1,2,11)             132.2128         calculate D2E/DX2 analytically  !
 ! A8    A(1,2,12)             111.3334         calculate D2E/DX2 analytically  !
 ! A9    A(3,2,9)              127.5599         calculate D2E/DX2 analytically  !
 ! A10   A(3,2,11)              93.3512         calculate D2E/DX2 analytically  !
 ! A11   A(3,2,12)             126.3183         calculate D2E/DX2 analytically  !
 ! A12   A(9,2,11)             104.1113         calculate D2E/DX2 analytically  !
 ! A13   A(9,2,12)              90.8304         calculate D2E/DX2 analytically  !
 ! A14   A(11,2,12)            114.0237         calculate D2E/DX2 analytically  !
 ! A15   A(1,3,6)              144.426          calculate D2E/DX2 analytically  !
 ! A16   A(1,3,10)              83.1517         calculate D2E/DX2 analytically  !
 ! A17   A(2,3,6)              107.2434         calculate D2E/DX2 analytically  !
 ! A18   A(2,3,10)             120.469          calculate D2E/DX2 analytically  !
 ! A19   A(6,3,10)             130.5283         calculate D2E/DX2 analytically  !
 ! A20   A(1,4,5)              111.6579         calculate D2E/DX2 analytically  !
 ! A21   A(4,5,7)              100.8295         calculate D2E/DX2 analytically  !
 ! D1    D(4,1,2,9)            -72.1879         calculate D2E/DX2 analytically  !
 ! D2    D(4,1,2,11)            10.2368         calculate D2E/DX2 analytically  !
 ! D3    D(4,1,2,12)          -150.5665         calculate D2E/DX2 analytically  !
 ! D4    D(8,1,2,9)            121.4598         calculate D2E/DX2 analytically  !
 ! D5    D(8,1,2,11)          -156.1155         calculate D2E/DX2 analytically  !
 ! D6    D(8,1,2,12)            43.0812         calculate D2E/DX2 analytically  !
 ! D7    D(4,1,3,6)           -176.4606         calculate D2E/DX2 analytically  !
 ! D8    D(4,1,3,10)            20.3787         calculate D2E/DX2 analytically  !
 ! D9    D(8,1,3,6)             65.6208         calculate D2E/DX2 analytically  !
 ! D10   D(8,1,3,10)           -97.5399         calculate D2E/DX2 analytically  !
 ! D11   D(2,1,4,5)            126.6984         calculate D2E/DX2 analytically  !
 ! D12   D(3,1,4,5)           -168.1505         calculate D2E/DX2 analytically  !
 ! D13   D(8,1,4,5)            -66.8425         calculate D2E/DX2 analytically  !
 ! D14   D(9,2,3,6)            174.0609         calculate D2E/DX2 analytically  !
 ! D15   D(9,2,3,10)           -19.5239         calculate D2E/DX2 analytically  !
 ! D16   D(11,2,3,6)           -75.2612         calculate D2E/DX2 analytically  !
 ! D17   D(11,2,3,10)           91.154          calculate D2E/DX2 analytically  !
 ! D18   D(12,2,3,6)            48.0493         calculate D2E/DX2 analytically  !
 ! D19   D(12,2,3,10)         -145.5355         calculate D2E/DX2 analytically  !
 ! D20   D(1,4,5,7)           -176.6946         calculate D2E/DX2 analytically  !
 --------------------------------------------------------------------------------
 Trust Radius=3.00D-01 FncErr=1.00D-07 GrdErr=1.00D-06 EigMax=2.50D+02 EigMin=1.00D-04
 Number of steps in this run=    100 maximum allowed number of steps=    100.
 Search for a saddle point of order  1.
 GradGradGradGradGradGradGradGradGradGradGradGradGradGradGradGradGradGrad

                          Input orientation:                          
 ---------------------------------------------------------------------
 Center     Atomic      Atomic             Coordinates (Angstroms)
 Number     Number       Type             X           Y           Z
 ---------------------------------------------------------------------
      1          6           0        1.080033    1.508132   -1.269731
      2          6           0        0.021922    0.360545   -1.146169
      3          6           0        1.753761   -0.389123   -1.103567
      4          8           0        1.607005    1.920240   -2.347405
      5          8           0        1.438833    3.594985   -2.524392
      6          8           0        1.690816   -1.389982   -0.452430
      7          1           0        1.830882    3.724911   -3.388932
      8          1           0        1.561154    1.839060   -0.343693
      9          1           0       -0.330984    1.491219   -1.647932
     10          1           0        2.510662   -0.043386   -1.774403
     11          1           0       -0.345022   -0.368335   -1.854951
     12          1           0       -0.631340    0.516399   -0.295230
 ---------------------------------------------------------------------
                    Distance matrix (angstroms):
                    1          2          3          4          5
     1  C    0.000000
     2  C    1.565830   0.000000
     3  C    2.020172   1.887613   0.000000
     4  O    1.268430   2.527470   2.627133   0.000000
     5  O    2.461273   3.790612   4.241585   1.692447   0.000000
     6  O    3.072475   2.516113   1.195684   3.815170   5.404296
     7  H    3.157356   4.429591   4.706816   2.095647   0.958130
     8  H    1.094777   2.280178   2.362055   2.005880   2.802442
     9  H    1.460921   1.286364   2.859752   2.104548   2.885527
    10  H    2.169931   2.598397   1.068856   2.236237   3.866399
    11  H    2.427837   1.080873   2.229327   3.048031   4.397521
    12  H    2.204991   1.084038   2.676207   3.345501   4.328102
                    6          7          8          9         10
     6  O    0.000000
     7  H    5.899559   0.000000
     8  H    3.233473   3.592028   0.000000
     9  H    3.717287   3.562882   2.324267   0.000000
    10  H    2.057445   4.155583   2.547960   3.232021   0.000000
    11  H    2.674970   4.882860   3.284814   1.871095   2.875241
    12  H    3.008556   5.091962   2.561018   1.694193   3.517597
                   11         12
    11  H    0.000000
    12  H    1.815891   0.000000
 Stoichiometry    C3H6O3
 Framework group  C1[X(C3H6O3)]
 Deg. of freedom    30
 Full point group                 C1      NOp   1
 Largest Abelian subgroup         C1      NOp   1
 Largest concise Abelian subgroup C1      NOp   1
                         Standard orientation:                         
 ---------------------------------------------------------------------
 Center     Atomic      Atomic             Coordinates (Angstroms)
 Number     Number       Type             X           Y           Z
 ---------------------------------------------------------------------
      1          6           0        0.340696    0.252159    0.382760
      2          6           0       -0.780513    1.195235   -0.169799
      3          6           0       -1.448905   -0.567368   -0.071993
      4          8           0        1.162355   -0.414678   -0.316611
      5          8           0        2.762848   -0.114201    0.144378
      6          8           0       -2.628271   -0.489682    0.108891
      7          1           0        3.237742   -0.639164   -0.501303
      8          1           0        0.280329   -0.020567    1.441303
      9          1           0        0.449147    1.564232   -0.250480
     10          1           0       -0.847180   -1.393357   -0.385243
     11          1           0       -1.169509    1.355159   -1.165486
     12          1           0       -0.993654    2.002035    0.522142
 ---------------------------------------------------------------------
 Rotational constants (GHZ):          10.6079792           1.6272594           1.4810803
 Standard basis: 6-31+G(d) (6D, 7F)
 There are   126 symmetry adapted cartesian basis functions of A   symmetry.
 There are   126 symmetry adapted basis functions of A   symmetry.
   126 basis functions,   216 primitive gaussians,   126 cartesian basis functions
    24 alpha electrons       24 beta electrons
       nuclear repulsion energy       232.0258744082 Hartrees.
 NAtoms=   12 NActive=   12 NUniq=   12 SFac= 1.00D+00 NAtFMM=   60 NAOKFM=F Big=F
 Integral buffers will be    131072 words long.
 Raffenetti 2 integral format.
 Two-electron integral symmetry is turned on.
 One-electron integrals computed using PRISM.
 NBasis=   126 RedAO= T EigKep=  1.29D-04  NBF=   126
 NBsUse=   126 1.00D-06 EigRej= -1.00D+00 NBFU=   126
 ExpMin= 4.38D-02 ExpMax= 5.48D+03 ExpMxC= 8.25D+02 IAcc=3 IRadAn=         5 AccDes= 0.00D+00
 Harris functional with IExCor=  402 and IRadAn=       5 diagonalized for initial guess.
 HarFok:  IExCor=  402 AccDes= 0.00D+00 IRadAn=         5 IDoV= 1 UseB2=F ITyADJ=14
 ICtDFT=  3500011 ScaDFX=  1.000000  1.000000  1.000000  1.000000
 FoFCou: FMM=F IPFlag=           0 FMFlag=      100000 FMFlg1=           0
         NFxFlg=           0 DoJE=T BraDBF=F KetDBF=T FulRan=T
         wScrn=  0.000000 ICntrl=       500 IOpCl=  0 I1Cent=   200000004 NGrid=           0
         NMat0=    1 NMatS0=      1 NMatT0=    0 NMatD0=    1 NMtDS0=    0 NMtDT0=    0
 Petite list used in FoFCou.
 Keep R1 ints in memory in canonical form, NReq=47237561.
 Requested convergence on RMS density matrix=1.00D-08 within 128 cycles.
 Requested convergence on MAX density matrix=1.00D-06.
 Requested convergence on             energy=1.00D-06.
 No special actions if energy rises.
 EnCoef did     6 forward-backward iterations
 EnCoef did   100 forward-backward iterations
 EnCoef did     4 forward-backward iterations
 EnCoef did     6 forward-backward iterations
 SCF Done:  E(RB3LYP) =  -343.250283894     A.U. after   19 cycles
            NFock= 19  Conv=0.85D-08     -V/T= 2.0085
 DoSCS=F DFT=T ScalE2(SS,OS)=  1.000000  1.000000
 Range of M.O.s used for correlation:     1   126
 NBasis=   126 NAE=    24 NBE=    24 NFC=     0 NFV=     0
 NROrb=    126 NOA=    24 NOB=    24 NVA=   102 NVB=   102

 **** Warning!!: The largest alpha MO coefficient is  0.26319451D+02


 **** Warning!!: The smallest alpha delta epsilon is  0.82587837D-01

 Symmetrizing basis deriv contribution to polar:
 IMax=3 JMax=2 DiffMx= 0.00D+00
 G2DrvN: will do    13 centers at a time, making    1 passes.
 Calling FoFCou, ICntrl=  3107 FMM=F I1Cent=   0 AccDes= 0.00D+00.
 End of G2Drv F.D. properties file   721 does not exist.
 End of G2Drv F.D. properties file   722 does not exist.
 End of G2Drv F.D. properties file   788 does not exist.
          IDoAtm=111111111111
          Differentiating once with respect to electric field.
                with respect to dipole field.
          Differentiating once with respect to nuclear coordinates.
 Keep R1 ints in memory in canonical form, NReq=47193569.
          There are    39 degrees of freedom in the 1st order CPHF.  IDoFFX=6 NUNeed=     3.
     36 vectors produced by pass  0 Test12= 6.28D-15 2.56D-09 XBig12= 9.33D+02 2.54D+01.
 AX will form    36 AO Fock derivatives at one time.
     36 vectors produced by pass  1 Test12= 6.28D-15 2.56D-09 XBig12= 3.28D+02 3.31D+00.
     36 vectors produced by pass  2 Test12= 6.28D-15 2.56D-09 XBig12= 7.48D+00 4.46D-01.
     36 vectors produced by pass  3 Test12= 6.28D-15 2.56D-09 XBig12= 4.81D-02 2.96D-02.
     36 vectors produced by pass  4 Test12= 6.28D-15 2.56D-09 XBig12= 7.56D-05 1.19D-03.
     32 vectors produced by pass  5 Test12= 6.28D-15 2.56D-09 XBig12= 8.08D-08 5.13D-05.
      5 vectors produced by pass  6 Test12= 6.28D-15 2.56D-09 XBig12= 8.12D-11 1.59D-06.
      2 vectors produced by pass  7 Test12= 6.28D-15 2.56D-09 XBig12= 6.10D-14 3.25D-08.
 InvSVY:  IOpt=1 It=  1 EMax= 2.22D-15
 Solved reduced A of dimension   219 with    39 vectors.
 Isotropic polarizability for W=    0.000000       83.83 Bohr**3.
 End of Minotr F.D. properties file   721 does not exist.
 End of Minotr F.D. properties file   722 does not exist.
 End of Minotr F.D. properties file   788 does not exist.

 **********************************************************************

            Population analysis using the SCF Density.

 **********************************************************************

 Orbital symmetries:
       Occupied  (A) (A) (A) (A) (A) (A) (A) (A) (A) (A) (A) (A)
                 (A) (A) (A) (A) (A) (A) (A) (A) (A) (A) (A) (A)
       Virtual   (A) (A) (A) (A) (A) (A) (A) (A) (A) (A) (A) (A)
                 (A) (A) (A) (A) (A) (A) (A) (A) (A) (A) (A) (A)
                 (A) (A) (A) (A) (A) (A) (A) (A) (A) (A) (A) (A)
                 (A) (A) (A) (A) (A) (A) (A) (A) (A) (A) (A) (A)
                 (A) (A) (A) (A) (A) (A) (A) (A) (A) (A) (A) (A)
                 (A) (A) (A) (A) (A) (A) (A) (A) (A) (A) (A) (A)
                 (A) (A) (A) (A) (A) (A) (A) (A) (A) (A) (A) (A)
                 (A) (A) (A) (A) (A) (A) (A) (A) (A) (A) (A) (A)
                 (A) (A) (A) (A) (A) (A)
 The electronic state is 1-A.
 Alpha  occ. eigenvalues --  -19.22782 -19.20250 -19.13525 -10.36108 -10.28344
 Alpha  occ. eigenvalues --  -10.26592  -1.12126  -1.07810  -0.92767  -0.82793
 Alpha  occ. eigenvalues --   -0.67557  -0.61493  -0.54164  -0.52426  -0.51503
 Alpha  occ. eigenvalues --   -0.49405  -0.46735  -0.44090  -0.42651  -0.36402
 Alpha  occ. eigenvalues --   -0.34178  -0.32529  -0.25124  -0.18374
 Alpha virt. eigenvalues --   -0.10116  -0.08032  -0.02732   0.00188   0.01113
 Alpha virt. eigenvalues --    0.02498   0.03622   0.05715   0.06243   0.06628
 Alpha virt. eigenvalues --    0.07426   0.08718   0.10130   0.12035   0.13685
 Alpha virt. eigenvalues --    0.14417   0.15626   0.17253   0.18599   0.19754
 Alpha virt. eigenvalues --    0.21364   0.22625   0.24101   0.25096   0.26011
 Alpha virt. eigenvalues --    0.26670   0.27417   0.28067   0.29430   0.31479
 Alpha virt. eigenvalues --    0.32458   0.33256   0.36043   0.38788   0.41874
 Alpha virt. eigenvalues --    0.46883   0.59216   0.63284   0.65940   0.67413
 Alpha virt. eigenvalues --    0.72510   0.73846   0.78388   0.79870   0.84109
 Alpha virt. eigenvalues --    0.88263   0.93424   0.97831   0.99299   1.05712
 Alpha virt. eigenvalues --    1.07064   1.09505   1.10347   1.15728   1.16824
 Alpha virt. eigenvalues --    1.20211   1.22116   1.23445   1.26096   1.28327
 Alpha virt. eigenvalues --    1.32258   1.33504   1.36431   1.40545   1.46642
 Alpha virt. eigenvalues --    1.51251   1.54871   1.59179   1.61819   1.63076
 Alpha virt. eigenvalues --    1.71725   1.72454   1.73305   1.76983   1.80064
 Alpha virt. eigenvalues --    1.86732   1.87312   1.90968   1.94753   2.00868
 Alpha virt. eigenvalues --    2.04182   2.06524   2.14005   2.15958   2.31524
 Alpha virt. eigenvalues --    2.33252   2.42893   2.49628   2.53040   2.55063
 Alpha virt. eigenvalues --    2.58895   2.70734   2.78512   2.96178   3.07467
 Alpha virt. eigenvalues --    3.10551   3.99376   4.11087   4.16414   4.26381
 Alpha virt. eigenvalues --    4.40517   4.41406
          Condensed to atoms (all electrons):
               1          2          3          4          5          6
     1  C    6.112643  -0.364352  -0.112356   0.289603  -0.029771  -0.001526
     2  C   -0.364352   6.263788   0.165046  -0.079890  -0.005183  -0.125206
     3  C   -0.112356   0.165046   5.151113  -0.048657  -0.019487   0.347741
     4  O    0.289603  -0.079890  -0.048657   8.291635  -0.188925   0.001519
     5  O   -0.029771  -0.005183  -0.019487  -0.188925   8.730830   0.000554
     6  O   -0.001526  -0.125206   0.347741   0.001519   0.000554   8.084781
     7  H    0.011158  -0.002367   0.000227   0.005316   0.159090  -0.000013
     8  H    0.443089  -0.122431  -0.003519  -0.057207   0.010818  -0.002322
     9  H    0.012689   0.259498  -0.006452  -0.067688   0.009365   0.005384
    10  H   -0.092478  -0.008602   0.401969   0.006036  -0.003584  -0.041554
    11  H   -0.035831   0.372664  -0.005231   0.003964  -0.000840  -0.011006
    12  H   -0.005015   0.345100   0.000197   0.006761   0.000339  -0.002619
               7          8          9         10         11         12
     1  C    0.011158   0.443089   0.012689  -0.092478  -0.035831  -0.005015
     2  C   -0.002367  -0.122431   0.259498  -0.008602   0.372664   0.345100
     3  C    0.000227  -0.003519  -0.006452   0.401969  -0.005231   0.000197
     4  O    0.005316  -0.057207  -0.067688   0.006036   0.003964   0.006761
     5  O    0.159090   0.010818   0.009365  -0.003584  -0.000840   0.000339
     6  O   -0.000013  -0.002322   0.005384  -0.041554  -0.011006  -0.002619
     7  H    0.386422  -0.000125  -0.000056   0.000054   0.000005  -0.000001
     8  H   -0.000125   0.488959  -0.000035   0.000880   0.001850  -0.000816
     9  H   -0.000056  -0.000035   0.480686   0.003381  -0.002769  -0.034947
    10  H    0.000054   0.000880   0.003381   0.448182   0.000693  -0.000161
    11  H    0.000005   0.001850  -0.002769   0.000693   0.399652  -0.020941
    12  H   -0.000001  -0.000816  -0.034947  -0.000161  -0.020941   0.439257
 Mulliken charges:
               1
     1  C   -0.227852
     2  C   -0.698065
     3  C    0.129409
     4  O   -0.162465
     5  O   -0.663205
     6  O   -0.255732
     7  H    0.440290
     8  H    0.240858
     9  H    0.340944
    10  H    0.285183
    11  H    0.297790
    12  H    0.272846
 Sum of Mulliken charges =  -0.00000
 Mulliken charges with hydrogens summed into heavy atoms:
               1
     1  C    0.013006
     2  C    0.213514
     3  C    0.414592
     4  O   -0.162465
     5  O   -0.222915
     6  O   -0.255732
 APT charges:
               1
     1  C   -0.301554
     2  C   -0.315236
     3  C    1.707271
     4  O    0.606913
     5  O   -1.090532
     6  O   -1.076206
     7  H    0.164890
     8  H    0.072116
     9  H    0.007514
    10  H    0.059809
    11  H    0.123044
    12  H    0.041971
 Sum of APT charges =  -0.00000
 APT charges with hydrogens summed into heavy atoms:
               1
     1  C   -0.229438
     2  C   -0.142707
     3  C    1.767080
     4  O    0.606913
     5  O   -0.925642
     6  O   -1.076206
 Electronic spatial extent (au):  <R**2>=            763.1665
 Charge=             -0.0000 electrons
 Dipole moment (field-independent basis, Debye):
    X=             -2.2602    Y=              0.9302    Z=             -1.1995  Tot=              2.7226
 Quadrupole moment (field-independent basis, Debye-Ang):
   XX=            -50.1321   YY=            -32.1460   ZZ=            -35.6162
   XY=             -3.1899   XZ=             -2.2319   YZ=              0.7006
 Traceless Quadrupole moment (field-independent basis, Debye-Ang):
   XX=            -10.8340   YY=              7.1521   ZZ=              3.6819
   XY=             -3.1899   XZ=             -2.2319   YZ=              0.7006
 Octapole moment (field-independent basis, Debye-Ang**2):
  XXX=             16.3267  YYY=             -2.5134  ZZZ=             -0.8546  XYY=             -1.1473
  XXY=             -7.0512  XXZ=            -17.2869  XZZ=             -0.9798  YZZ=             -0.9237
  YYZ=             -1.0807  XYZ=              2.2597
 Hexadecapole moment (field-independent basis, Debye-Ang**3):
 XXXX=           -796.0693 YYYY=           -142.8103 ZZZZ=            -62.5540 XXXY=            -50.5435
 XXXZ=            -40.8070 YYYX=             -1.9542 YYYZ=              5.9866 ZZZX=             -2.4850
 ZZZY=             -0.7932 XXYY=           -142.3526 XXZZ=           -129.9901 YYZZ=            -35.2729
 XXYZ=              8.7110 YYXZ=             -2.8345 ZZXY=             -3.3598
 N-N= 2.320258744082D+02 E-N=-1.268123819061D+03  KE= 3.403427981915D+02
  Exact polarizability: 150.723   3.744  58.817   2.899  -0.361  41.943
 Approx polarizability: 418.826  26.160  94.578   6.267   3.019  58.509
 Calling FoFJK, ICntrl=    100127 FMM=F ISym2X=0 I1Cent= 0 IOpClX= 0 NMat=1 NMatS=1 NMatT=0.
 ***** Axes restored to original set *****
 -------------------------------------------------------------------
 Center     Atomic                   Forces (Hartrees/Bohr)
 Number     Number              X              Y              Z
 -------------------------------------------------------------------
      1        6           0.057466566    0.029149668    0.011751646
      2        6          -0.041440939    0.038294701   -0.031545582
      3        6          -0.024091641   -0.037322670    0.012157084
      4        8           0.009184699   -0.033095045   -0.001013042
      5        8          -0.022040838    0.031527538    0.010883778
      6        8           0.012827494    0.019575615    0.013107545
      7        1           0.007725188   -0.000800847   -0.016518659
      8        1          -0.014222164   -0.002346420    0.008066013
      9        1           0.004174553   -0.032964064    0.009940635
     10        1           0.001017748    0.002403951   -0.019482309
     11        1           0.001362284    0.003683930   -0.012092566
     12        1           0.008037050   -0.018106358    0.014745457
 -------------------------------------------------------------------
 Cartesian Forces:  Max     0.057466566 RMS     0.021766187
 FormGI is forming the generalized inverse of G from B-inverse, IUseBI=4.

 GradGradGradGradGradGradGradGradGradGradGradGradGradGradGradGradGradGrad
 Berny optimization.
 Internal  Forces:  Max     0.033997165 RMS     0.010802619
 Search for a saddle point.
 Step number   1 out of a maximum of  100
 All quantities printed in internal units (Hartrees-Bohrs-Radians)
 Swapping is turned off.
 Second derivative matrix not updated -- analytic derivatives used.
 ITU=  0
     Eigenvalues ---   -0.39686  -0.02792  -0.00938  -0.00081   0.00269
     Eigenvalues ---    0.00796   0.01343   0.01414   0.01788   0.01934
     Eigenvalues ---    0.02516   0.03487   0.05194   0.06008   0.07057
     Eigenvalues ---    0.07826   0.08473   0.10474   0.11037   0.12270
     Eigenvalues ---    0.14369   0.20332   0.23726   0.33843   0.36735
     Eigenvalues ---    0.37703   0.39835   0.55705   0.60175   0.85796
 Eigenvectors required to have negative eigenvalues:
                          R5        A6        R2        D2        A15
   1                   -0.45475  -0.44540   0.40699  -0.22679   0.19162
                          A3        A17       A16       R6        A12
   1                    0.18609   0.17758  -0.17724   0.16961   0.16749
 RFO step:  Lambda0=1.600139455D-04 Lambda=-7.13357451D-02.
 Linear search not attempted -- option 19 set.
 Maximum step size (   0.300) exceeded in Quadratic search.
    -- Step size scaled by   0.318
 Iteration  1 RMS(Cart)=  0.07134871 RMS(Int)=  0.00277796
 Iteration  2 RMS(Cart)=  0.00305844 RMS(Int)=  0.00093696
 Iteration  3 RMS(Cart)=  0.00000537 RMS(Int)=  0.00093694
 Iteration  4 RMS(Cart)=  0.00000000 RMS(Int)=  0.00093694
 Variable       Old X    -DE/DX   Delta X   Delta X   Delta X     New X
                                 (Linear)    (Quad)   (Total)
    R1        2.95899   0.02820   0.00000   0.06204   0.06232   3.02131
    R2        3.81757   0.00829   0.00000   0.06357   0.06377   3.88134
    R3        2.39698   0.00275   0.00000  -0.05400  -0.05400   2.34298
    R4        2.06883  -0.00014   0.00000  -0.00212  -0.00212   2.06671
    R5        3.56707  -0.00009   0.00000  -0.07690  -0.07736   3.48971
    R6        2.43088  -0.03400   0.00000  -0.11388  -0.11388   2.31700
    R7        2.04255   0.00498   0.00000   0.00751   0.00751   2.05006
    R8        2.04854   0.00413   0.00000   0.00305   0.00305   2.05159
    R9        2.25952  -0.00992   0.00000  -0.00164  -0.00164   2.25787
   R10        2.01985   0.01373   0.00000   0.00638   0.00638   2.02622
   R11        3.19826   0.03242   0.00000   0.15432   0.15432   3.35259
   R12        1.81060   0.01796   0.00000   0.00868   0.00868   1.81928
    A1        2.19679  -0.01279   0.00000  -0.01894  -0.01896   2.17783
    A2        2.03954   0.00322   0.00000  -0.01494  -0.01420   2.02534
    A3        1.80951   0.00397   0.00000   0.05006   0.04940   1.85891
    A4        1.63860   0.00156   0.00000   0.02818   0.02603   1.66463
    A5        2.02403   0.01030   0.00000   0.04365   0.04203   2.06606
    A6        1.05918   0.01076   0.00000   0.07450   0.07454   1.13373
    A7        2.30755   0.00095   0.00000   0.02598   0.02585   2.33340
    A8        1.94313  -0.00169   0.00000  -0.01681  -0.01676   1.92637
    A9        2.22634   0.00856   0.00000   0.09755   0.09745   2.32379
   A10        1.62929   0.00401   0.00000   0.00122   0.00134   1.63063
   A11        2.20467  -0.01498   0.00000  -0.09402  -0.09486   2.10982
   A12        1.81709  -0.00790   0.00000  -0.05129  -0.05158   1.76550
   A13        1.58529   0.00663   0.00000   0.03434   0.03688   1.62217
   A14        1.99009   0.00396   0.00000   0.00927   0.00721   1.99730
   A15        2.52071  -0.00041   0.00000  -0.00079  -0.00265   2.51806
   A16        1.45127  -0.00711   0.00000  -0.01942  -0.01850   1.43277
   A17        1.87175   0.00061   0.00000   0.01394   0.01501   1.88676
   A18        2.10258  -0.00599   0.00000  -0.02009  -0.02094   2.08164
   A19        2.27815   0.00511   0.00000   0.00845   0.00819   2.28633
   A20        1.94880  -0.00491   0.00000  -0.00707  -0.00707   1.94173
   A21        1.75981  -0.00591   0.00000   0.00654   0.00654   1.76635
    D1       -1.25992   0.00722   0.00000   0.04225   0.04030  -1.21961
    D2        0.17867   0.00525   0.00000   0.02043   0.02092   0.19958
    D3       -2.62788  -0.00776   0.00000  -0.05021  -0.04925  -2.67713
    D4        2.11987   0.00185   0.00000  -0.01378  -0.01554   2.10434
    D5       -2.72473  -0.00011   0.00000  -0.03560  -0.03492  -2.75965
    D6        0.75191  -0.01312   0.00000  -0.10624  -0.10509   0.64682
    D7       -3.07982  -0.00429   0.00000  -0.04053  -0.03983  -3.11965
    D8        0.35568   0.00569   0.00000   0.01046   0.01100   0.36668
    D9        1.14530  -0.01641   0.00000  -0.10542  -0.10618   1.03912
   D10       -1.70239  -0.00642   0.00000  -0.05443  -0.05535  -1.75774
   D11        2.21130  -0.01136   0.00000  -0.08627  -0.08656   2.12475
   D12       -2.93478  -0.01440   0.00000  -0.11285  -0.11371  -3.04849
   D13       -1.16662  -0.00685   0.00000  -0.03763  -0.03648  -1.20310
   D14        3.03794  -0.00524   0.00000   0.01329   0.01395   3.05189
   D15       -0.34076  -0.00536   0.00000   0.02388   0.02441  -0.31635
   D16       -1.31356  -0.00918   0.00000  -0.01845  -0.01933  -1.33289
   D17        1.59094  -0.00930   0.00000  -0.00786  -0.00888   1.58206
   D18        0.83862  -0.00840   0.00000  -0.05674  -0.05535   0.78327
   D19       -2.54007  -0.00853   0.00000  -0.04615  -0.04490  -2.58497
   D20       -3.08390   0.00042   0.00000   0.02193   0.02193  -3.06198
         Item               Value     Threshold  Converged?
 Maximum Force            0.033997     0.000450     NO 
 RMS     Force            0.010803     0.000300     NO 
 Maximum Displacement     0.170960     0.001800     NO 
 RMS     Displacement     0.070883     0.001200     NO 
 Predicted change in Energy=-2.555951D-02
 GradGradGradGradGradGradGradGradGradGradGradGradGradGradGradGradGradGrad

                          Input orientation:                          
 ---------------------------------------------------------------------
 Center     Atomic      Atomic             Coordinates (Angstroms)
 Number     Number       Type             X           Y           Z
 ---------------------------------------------------------------------
      1          6           0        1.153859    1.528609   -1.273302
      2          6           0        0.053609    0.372548   -1.177608
      3          6           0        1.709365   -0.439098   -1.078060
      4          8           0        1.662544    1.935267   -2.328340
      5          8           0        1.387513    3.674316   -2.546382
      6          8           0        1.604810   -1.413228   -0.394157
      7          1           0        1.765714    3.815379   -3.420394
      8          1           0        1.592679    1.853481   -0.325684
      9          1           0       -0.337437    1.420986   -1.678798
     10          1           0        2.484548   -0.133211   -1.752748
     11          1           0       -0.332743   -0.354639   -1.883881
     12          1           0       -0.556741    0.504255   -0.289481
 ---------------------------------------------------------------------
                    Distance matrix (angstroms):
                    1          2          3          4          5
     1  C    0.000000
     2  C    1.598807   0.000000
     3  C    2.053917   1.846675   0.000000
     4  O    1.239854   2.520902   2.683841   0.000000
     5  O    2.505870   3.815037   4.379467   1.774112   0.000000
     6  O    3.103330   2.491790   1.194816   3.867405   5.528326
     7  H    3.195887   4.451345   4.856983   2.176705   0.962721
     8  H    1.093657   2.299494   2.415699   2.005543   2.879068
     9  H    1.549186   1.226104   2.830229   2.164790   2.967432
    10  H    2.182257   2.548733   1.072231   2.299043   4.041114
    11  H    2.475766   1.084846   2.196973   3.069590   4.430650
    12  H    2.223366   1.085654   2.578180   3.336161   4.350059
                    6          7          8          9         10
     6  O    0.000000
     7  H    6.043371   0.000000
     8  H    3.267449   3.668272   0.000000
     9  H    3.668160   3.631739   2.396523   0.000000
    10  H    2.063529   4.346163   2.603630   3.222514   0.000000
    11  H    2.663457   4.914615   3.318286   1.787435   2.829021
    12  H    2.891367   5.114681   2.538056   1.678896   3.434670
                   11         12
    11  H    0.000000
    12  H    1.824825   0.000000
 Stoichiometry    C3H6O3
 Framework group  C1[X(C3H6O3)]
 Deg. of freedom    30
 Full point group                 C1      NOp   1
 Largest Abelian subgroup         C1      NOp   1
 Largest concise Abelian subgroup C1      NOp   1
                         Standard orientation:                         
 ---------------------------------------------------------------------
 Center     Atomic      Atomic             Coordinates (Angstroms)
 Number     Number       Type             X           Y           Z
 ---------------------------------------------------------------------
      1          6           0        0.356512    0.168205    0.397289
      2          6           0       -0.767737    1.151379   -0.173341
      3          6           0       -1.507572   -0.538871   -0.096484
      4          8           0        1.167372   -0.459304   -0.299831
      5          8           0        2.838760   -0.053753    0.135442
      6          8           0       -2.677209   -0.422781    0.118126
      7          1           0        3.330289   -0.550286   -0.526893
      8          1           0        0.282442   -0.080741    1.459656
      9          1           0        0.383346    1.558471   -0.285659
     10          1           0       -0.935531   -1.377676   -0.441236
     11          1           0       -1.157670    1.347773   -1.166453
     12          1           0       -1.021477    1.904890    0.565903
 ---------------------------------------------------------------------
 Rotational constants (GHZ):          11.2901268           1.5566955           1.4358310
 Standard basis: 6-31+G(d) (6D, 7F)
 There are   126 symmetry adapted cartesian basis functions of A   symmetry.
 There are   126 symmetry adapted basis functions of A   symmetry.
   126 basis functions,   216 primitive gaussians,   126 cartesian basis functions
    24 alpha electrons       24 beta electrons
       nuclear repulsion energy       230.2066106036 Hartrees.
 NAtoms=   12 NActive=   12 NUniq=   12 SFac= 1.00D+00 NAtFMM=   60 NAOKFM=F Big=F
 Integral buffers will be    131072 words long.
 Raffenetti 2 integral format.
 Two-electron integral symmetry is turned on.
 One-electron integrals computed using PRISM.
 NBasis=   126 RedAO= T EigKep=  1.50D-04  NBF=   126
 NBsUse=   126 1.00D-06 EigRej= -1.00D+00 NBFU=   126
 Initial guess from the checkpoint file:  "/scratch/bell/zhao922/YARP/paper-example/KHP-network/pp_0/TS-folder/Gau-4167.chk"
 B after Tr=     0.000000    0.000000   -0.000000
         Rot=    0.999992   -0.003606   -0.000371    0.001838 Ang=  -0.47 deg.
 ExpMin= 4.38D-02 ExpMax= 5.48D+03 ExpMxC= 8.25D+02 IAcc=3 IRadAn=         5 AccDes= 0.00D+00
 Harris functional with IExCor=  402 and IRadAn=       5 diagonalized for initial guess.
 HarFok:  IExCor=  402 AccDes= 0.00D+00 IRadAn=         5 IDoV= 1 UseB2=F ITyADJ=14
 ICtDFT=  3500011 ScaDFX=  1.000000  1.000000  1.000000  1.000000
 FoFCou: FMM=F IPFlag=           0 FMFlag=      100000 FMFlg1=           0
         NFxFlg=           0 DoJE=T BraDBF=F KetDBF=T FulRan=T
         wScrn=  0.000000 ICntrl=       500 IOpCl=  0 I1Cent=   200000004 NGrid=           0
         NMat0=    1 NMatS0=      1 NMatT0=    0 NMatD0=    1 NMtDS0=    0 NMtDT0=    0
 Petite list used in FoFCou.
 Keep R1 ints in memory in canonical form, NReq=47237561.
 Requested convergence on RMS density matrix=1.00D-08 within 128 cycles.
 Requested convergence on MAX density matrix=1.00D-06.
 Requested convergence on             energy=1.00D-06.
 No special actions if energy rises.
 SCF Done:  E(RB3LYP) =  -343.275110226     A.U. after   15 cycles
            NFock= 15  Conv=0.55D-08     -V/T= 2.0086
 DoSCS=F DFT=T ScalE2(SS,OS)=  1.000000  1.000000
 Range of M.O.s used for correlation:     1   126
 NBasis=   126 NAE=    24 NBE=    24 NFC=     0 NFV=     0
 NROrb=    126 NOA=    24 NOB=    24 NVA=   102 NVB=   102

 **** Warning!!: The largest alpha MO coefficient is  0.23872831D+02


 **** Warning!!: The smallest alpha delta epsilon is  0.80907819D-01

 Symmetrizing basis deriv contribution to polar:
 IMax=3 JMax=2 DiffMx= 0.00D+00
 G2DrvN: will do    13 centers at a time, making    1 passes.
 Calling FoFCou, ICntrl=  3107 FMM=F I1Cent=   0 AccDes= 0.00D+00.
 End of G2Drv F.D. properties file   721 does not exist.
 End of G2Drv F.D. properties file   722 does not exist.
 End of G2Drv F.D. properties file   788 does not exist.
          IDoAtm=111111111111
          Differentiating once with respect to electric field.
                with respect to dipole field.
          Differentiating once with respect to nuclear coordinates.
 Keep R1 ints in memory in canonical form, NReq=47193569.
          There are    39 degrees of freedom in the 1st order CPHF.  IDoFFX=6 NUNeed=     3.
     36 vectors produced by pass  0 Test12= 6.28D-15 2.56D-09 XBig12= 1.15D+03 2.92D+01.
 AX will form    36 AO Fock derivatives at one time.
     36 vectors produced by pass  1 Test12= 6.28D-15 2.56D-09 XBig12= 4.51D+02 3.64D+00.
     36 vectors produced by pass  2 Test12= 6.28D-15 2.56D-09 XBig12= 1.06D+01 5.99D-01.
     36 vectors produced by pass  3 Test12= 6.28D-15 2.56D-09 XBig12= 7.01D-02 3.97D-02.
     36 vectors produced by pass  4 Test12= 6.28D-15 2.56D-09 XBig12= 1.12D-04 1.45D-03.
     31 vectors produced by pass  5 Test12= 6.28D-15 2.56D-09 XBig12= 1.25D-07 6.27D-05.
      5 vectors produced by pass  6 Test12= 6.28D-15 2.56D-09 XBig12= 1.26D-10 1.72D-06.
      2 vectors produced by pass  7 Test12= 6.28D-15 2.56D-09 XBig12= 8.64D-14 3.85D-08.
 InvSVY:  IOpt=1 It=  1 EMax= 7.11D-15
 Solved reduced A of dimension   218 with    39 vectors.
 Isotropic polarizability for W=    0.000000       85.42 Bohr**3.
 End of Minotr F.D. properties file   721 does not exist.
 End of Minotr F.D. properties file   722 does not exist.
 End of Minotr F.D. properties file   788 does not exist.
 Calling FoFJK, ICntrl=    100127 FMM=F ISym2X=0 I1Cent= 0 IOpClX= 0 NMat=1 NMatS=1 NMatT=0.
 ***** Axes restored to original set *****
 -------------------------------------------------------------------
 Center     Atomic                   Forces (Hartrees/Bohr)
 Number     Number              X              Y              Z
 -------------------------------------------------------------------
      1        6           0.057836470    0.024903809    0.009442764
      2        6          -0.033788371    0.040024707   -0.026388529
      3        6          -0.030890113   -0.035111087    0.007771764
      4        8           0.010424995   -0.028575585    0.001075591
      5        8          -0.020297343    0.027817840    0.005004595
      6        8           0.014796445    0.016397997    0.012220749
      7        1           0.005205276   -0.000001664   -0.011900436
      8        1          -0.016205195   -0.001714065    0.008039229
      9        1           0.002159809   -0.028342306    0.006196496
     10        1           0.000551890    0.002269103   -0.015162397
     11        1           0.001214703    0.001896908   -0.009225210
     12        1           0.008991434   -0.019565656    0.012925384
 -------------------------------------------------------------------
 Cartesian Forces:  Max     0.057836470 RMS     0.020288015
 FormGI is forming the generalized inverse of G from B-inverse, IUseBI=4.

 GradGradGradGradGradGradGradGradGradGradGradGradGradGradGradGradGradGrad
 Berny optimization.
 Internal  Forces:  Max     0.030453381 RMS     0.009854382
 Search for a saddle point.
 Step number   2 out of a maximum of  100
 All quantities printed in internal units (Hartrees-Bohrs-Radians)
 Swapping is turned off.
 Second derivative matrix not updated -- analytic derivatives used.
 ITU=  0  0
     Eigenvalues ---   -0.22337  -0.00989  -0.00253   0.00224   0.00355
     Eigenvalues ---    0.00741   0.01136   0.01743   0.01938   0.02147
     Eigenvalues ---    0.02825   0.04243   0.05045   0.06047   0.06361
     Eigenvalues ---    0.07231   0.07782   0.10094   0.10907   0.12491
     Eigenvalues ---    0.15719   0.18023   0.21458   0.34238   0.36492
     Eigenvalues ---    0.36727   0.39293   0.53977   0.67703   0.87278
 Eigenvectors required to have negative eigenvalues:
                          R5        R2        A6        D2        A3
   1                   -0.47061   0.42519  -0.41471  -0.25580   0.18663
                          A15       D5        A16       A17       D14
   1                    0.18369  -0.18275  -0.17464   0.16388  -0.15889
 RFO step:  Lambda0=3.513280142D-05 Lambda=-5.65983104D-02.
 Linear search not attempted -- option 19 set.
 Maximum step size (   0.300) exceeded in Quadratic search.
    -- Step size scaled by   0.340
 Iteration  1 RMS(Cart)=  0.06366135 RMS(Int)=  0.00248743
 Iteration  2 RMS(Cart)=  0.00281959 RMS(Int)=  0.00098573
 Iteration  3 RMS(Cart)=  0.00000621 RMS(Int)=  0.00098571
 Iteration  4 RMS(Cart)=  0.00000001 RMS(Int)=  0.00098571
 Variable       Old X    -DE/DX   Delta X   Delta X   Delta X     New X
                                 (Linear)    (Quad)   (Total)
    R1        3.02131   0.02476   0.00000   0.06018   0.06032   3.08163
    R2        3.88134   0.01018   0.00000   0.11775   0.11791   3.99925
    R3        2.34298   0.00279   0.00000  -0.04483  -0.04483   2.29815
    R4        2.06671  -0.00005   0.00000   0.00019   0.00019   2.06690
    R5        3.48971  -0.00375   0.00000  -0.00414  -0.00444   3.48527
    R6        2.31700  -0.02746   0.00000  -0.08257  -0.08257   2.23443
    R7        2.05006   0.00430   0.00000   0.00799   0.00799   2.05805
    R8        2.05159   0.00315   0.00000   0.00323   0.00323   2.05482
    R9        2.25787  -0.00767   0.00000  -0.01094  -0.01094   2.24694
   R10        2.02622   0.01059   0.00000   0.00825   0.00825   2.03447
   R11        3.35259   0.03045   0.00000   0.17103   0.17103   3.52362
   R12        1.81928   0.01285   0.00000   0.00693   0.00693   1.82621
    A1        2.17783  -0.01032   0.00000  -0.02182  -0.02199   2.15584
    A2        2.02534   0.00128   0.00000  -0.01915  -0.01863   2.00671
    A3        1.85891   0.00484   0.00000   0.03045   0.03040   1.88932
    A4        1.66463   0.00155   0.00000   0.00385   0.00211   1.66675
    A5        2.06606   0.00978   0.00000   0.04449   0.04402   2.11007
    A6        1.13373   0.01117   0.00000   0.07659   0.07597   1.20969
    A7        2.33340   0.00167   0.00000   0.01295   0.01316   2.34656
    A8        1.92637  -0.00162   0.00000   0.00102   0.00070   1.92707
    A9        2.32379   0.01059   0.00000   0.09956   0.09888   2.42267
   A10        1.63063   0.00248   0.00000  -0.03165  -0.03101   1.59962
   A11        2.10982  -0.01530   0.00000  -0.08240  -0.08400   2.02582
   A12        1.76550  -0.00773   0.00000  -0.03456  -0.03331   1.73219
   A13        1.62217   0.00760   0.00000   0.03908   0.03951   1.66168
   A14        1.99730   0.00259   0.00000   0.00555   0.00197   1.99927
   A15        2.51806  -0.00081   0.00000   0.01812   0.01712   2.53518
   A16        1.43277  -0.00600   0.00000  -0.03728  -0.03656   1.39621
   A17        1.88676   0.00142   0.00000   0.01034   0.01071   1.89747
   A18        2.08164  -0.00532   0.00000  -0.02198  -0.02276   2.05888
   A19        2.28633   0.00392   0.00000   0.01698   0.01709   2.30342
   A20        1.94173  -0.00466   0.00000  -0.01589  -0.01589   1.92584
   A21        1.76635  -0.00342   0.00000   0.02248   0.02248   1.78882
    D1       -1.21961   0.00683   0.00000   0.02846   0.02681  -1.19280
    D2        0.19958   0.00568   0.00000   0.04759   0.04820   0.24779
    D3       -2.67713  -0.00776   0.00000  -0.04997  -0.04942  -2.72655
    D4        2.10434   0.00093   0.00000   0.00099  -0.00072   2.10361
    D5       -2.75965  -0.00023   0.00000   0.02012   0.02067  -2.73898
    D6        0.64682  -0.01367   0.00000  -0.07744  -0.07696   0.56986
    D7       -3.11965  -0.00454   0.00000   0.04844   0.04832  -3.07132
    D8        0.36668   0.00548   0.00000   0.05909   0.05945   0.42613
    D9        1.03912  -0.01719   0.00000  -0.01029  -0.01059   1.02852
   D10       -1.75774  -0.00717   0.00000   0.00037   0.00053  -1.75721
   D11        2.12475  -0.01153   0.00000  -0.05516  -0.05541   2.06934
   D12       -3.04849  -0.01589   0.00000  -0.07820  -0.07854  -3.12703
   D13       -1.20310  -0.00637   0.00000  -0.03338  -0.03279  -1.23589
   D14        3.05189  -0.00295   0.00000   0.07742   0.07907   3.13095
   D15       -0.31635  -0.00218   0.00000   0.10124   0.10246  -0.21389
   D16       -1.33289  -0.00740   0.00000   0.03429   0.03217  -1.30072
   D17        1.58206  -0.00663   0.00000   0.05811   0.05556   1.63762
   D18        0.78327  -0.00898   0.00000  -0.01778  -0.01613   0.76714
   D19       -2.58497  -0.00820   0.00000   0.00604   0.00726  -2.57771
   D20       -3.06198   0.00057   0.00000   0.01220   0.01220  -3.04978
         Item               Value     Threshold  Converged?
 Maximum Force            0.030453     0.000450     NO 
 RMS     Force            0.009854     0.000300     NO 
 Maximum Displacement     0.186799     0.001800     NO 
 RMS     Displacement     0.064732     0.001200     NO 
 Predicted change in Energy=-1.811371D-02
 GradGradGradGradGradGradGradGradGradGradGradGradGradGradGradGradGradGrad

                          Input orientation:                          
 ---------------------------------------------------------------------
 Center     Atomic      Atomic             Coordinates (Angstroms)
 Number     Number       Type             X           Y           Z
 ---------------------------------------------------------------------
      1          6           0        1.214980    1.552917   -1.280403
      2          6           0        0.072153    0.392689   -1.196194
      3          6           0        1.680039   -0.498561   -1.048163
      4          8           0        1.704768    1.938624   -2.324583
      5          8           0        1.350545    3.751960   -2.575865
      6          8           0        1.519136   -1.466992   -0.377314
      7          1           0        1.707477    3.914229   -3.459138
      8          1           0        1.629167    1.863962   -0.317073
      9          1           0       -0.360492    1.369188   -1.703503
     10          1           0        2.486317   -0.196006   -1.694253
     11          1           0       -0.312108   -0.351260   -1.892591
     12          1           0       -0.504261    0.493916   -0.279755
 ---------------------------------------------------------------------
                    Distance matrix (angstroms):
                    1          2          3          4          5
     1  C    0.000000
     2  C    1.630728   0.000000
     3  C    2.116312   1.844326   0.000000
     4  O    1.216130   2.515672   2.751314   0.000000
     5  O    2.555854   3.849997   4.528727   1.864619   0.000000
     6  O    3.166691   2.494542   1.189028   3.927408   5.665643
     7  H    3.250420   4.494045   5.028545   2.278209   0.966387
     8  H    1.093757   2.315554   2.473579   2.010319   2.957077
     9  H    1.641609   1.182410   2.842837   2.230537   3.060436
    10  H    2.201432   2.534327   1.076594   2.358978   4.201625
    11  H    2.516478   1.089075   2.168733   3.081878   4.479698
    12  H    2.253568   1.087364   2.519251   3.338908   4.396280
                    6          7          8          9         10
     6  O    0.000000
     7  H    6.204083   0.000000
     8  H    3.333316   3.752639   0.000000
     9  H    3.651807   3.719675   2.475021   0.000000
    10  H    2.070066   4.540423   2.621983   3.248729   0.000000
    11  H    2.625714   4.972644   3.340361   1.731483   2.809737
    12  H    2.819364   5.167088   2.535731   1.677447   3.379401
                   11         12
    11  H    0.000000
    12  H    1.830979   0.000000
 Stoichiometry    C3H6O3
 Framework group  C1[X(C3H6O3)]
 Deg. of freedom    30
 Full point group                 C1      NOp   1
 Largest Abelian subgroup         C1      NOp   1
 Largest concise Abelian subgroup C1      NOp   1
                         Standard orientation:                         
 ---------------------------------------------------------------------
 Center     Atomic      Atomic             Coordinates (Angstroms)
 Number     Number       Type             X           Y           Z
 ---------------------------------------------------------------------
      1          6           0        0.381822    0.101933    0.412045
      2          6           0       -0.749730    1.123318   -0.167295
      3          6           0       -1.575017   -0.524475   -0.095075
      4          8           0        1.168973   -0.498755   -0.294028
      5          8           0        2.918875   -0.007910    0.122766
      6          8           0       -2.735698   -0.361447    0.104996
      7          1           0        3.432796   -0.475900   -0.548632
      8          1           0        0.293120   -0.129411    1.477369
      9          1           0        0.334274    1.569527   -0.321977
     10          1           0       -1.013804   -1.384755   -0.417586
     11          1           0       -1.163487    1.322396   -1.154846
     12          1           0       -1.042547    1.838381    0.597756
 ---------------------------------------------------------------------
 Rotational constants (GHZ):          11.7207583           1.4843936           1.3806220
 Standard basis: 6-31+G(d) (6D, 7F)
 There are   126 symmetry adapted cartesian basis functions of A   symmetry.
 There are   126 symmetry adapted basis functions of A   symmetry.
   126 basis functions,   216 primitive gaussians,   126 cartesian basis functions
    24 alpha electrons       24 beta electrons
       nuclear repulsion energy       227.6753135049 Hartrees.
 NAtoms=   12 NActive=   12 NUniq=   12 SFac= 1.00D+00 NAtFMM=   60 NAOKFM=F Big=F
 Integral buffers will be    131072 words long.
 Raffenetti 2 integral format.
 Two-electron integral symmetry is turned on.
 One-electron integrals computed using PRISM.
 NBasis=   126 RedAO= T EigKep=  1.73D-04  NBF=   126
 NBsUse=   126 1.00D-06 EigRej= -1.00D+00 NBFU=   126
 Initial guess from the checkpoint file:  "/scratch/bell/zhao922/YARP/paper-example/KHP-network/pp_0/TS-folder/Gau-4167.chk"
 B after Tr=     0.000000    0.000000    0.000000
         Rot=    0.999995   -0.002260   -0.000637    0.002328 Ang=  -0.38 deg.
 ExpMin= 4.38D-02 ExpMax= 5.48D+03 ExpMxC= 8.25D+02 IAcc=3 IRadAn=         5 AccDes= 0.00D+00
 Harris functional with IExCor=  402 and IRadAn=       5 diagonalized for initial guess.
 HarFok:  IExCor=  402 AccDes= 0.00D+00 IRadAn=         5 IDoV= 1 UseB2=F ITyADJ=14
 ICtDFT=  3500011 ScaDFX=  1.000000  1.000000  1.000000  1.000000
 FoFCou: FMM=F IPFlag=           0 FMFlag=      100000 FMFlg1=           0
         NFxFlg=           0 DoJE=T BraDBF=F KetDBF=T FulRan=T
         wScrn=  0.000000 ICntrl=       500 IOpCl=  0 I1Cent=   200000004 NGrid=           0
         NMat0=    1 NMatS0=      1 NMatT0=    0 NMatD0=    1 NMtDS0=    0 NMtDT0=    0
 Petite list used in FoFCou.
 Keep R1 ints in memory in canonical form, NReq=47237561.
 Requested convergence on RMS density matrix=1.00D-08 within 128 cycles.
 Requested convergence on MAX density matrix=1.00D-06.
 Requested convergence on             energy=1.00D-06.
 No special actions if energy rises.
 SCF Done:  E(RB3LYP) =  -343.292726398     A.U. after   15 cycles
            NFock= 15  Conv=0.80D-08     -V/T= 2.0087
 DoSCS=F DFT=T ScalE2(SS,OS)=  1.000000  1.000000
 Range of M.O.s used for correlation:     1   126
 NBasis=   126 NAE=    24 NBE=    24 NFC=     0 NFV=     0
 NROrb=    126 NOA=    24 NOB=    24 NVA=   102 NVB=   102

 **** Warning!!: The largest alpha MO coefficient is  0.22125114D+02


 **** Warning!!: The smallest alpha delta epsilon is  0.71451405D-01

 Symmetrizing basis deriv contribution to polar:
 IMax=3 JMax=2 DiffMx= 0.00D+00
 G2DrvN: will do    13 centers at a time, making    1 passes.
 Calling FoFCou, ICntrl=  3107 FMM=F I1Cent=   0 AccDes= 0.00D+00.
 End of G2Drv F.D. properties file   721 does not exist.
 End of G2Drv F.D. properties file   722 does not exist.
 End of G2Drv F.D. properties file   788 does not exist.
          IDoAtm=111111111111
          Differentiating once with respect to electric field.
                with respect to dipole field.
          Differentiating once with respect to nuclear coordinates.
 Keep R1 ints in memory in canonical form, NReq=47193569.
          There are    39 degrees of freedom in the 1st order CPHF.  IDoFFX=6 NUNeed=     3.
     36 vectors produced by pass  0 Test12= 6.28D-15 2.56D-09 XBig12= 1.53D+03 3.38D+01.
 AX will form    36 AO Fock derivatives at one time.
     36 vectors produced by pass  1 Test12= 6.28D-15 2.56D-09 XBig12= 6.48D+02 5.99D+00.
     36 vectors produced by pass  2 Test12= 6.28D-15 2.56D-09 XBig12= 1.54D+01 8.40D-01.
     36 vectors produced by pass  3 Test12= 6.28D-15 2.56D-09 XBig12= 1.03D-01 4.96D-02.
     36 vectors produced by pass  4 Test12= 6.28D-15 2.56D-09 XBig12= 1.64D-04 1.84D-03.
     30 vectors produced by pass  5 Test12= 6.28D-15 2.56D-09 XBig12= 1.91D-07 7.08D-05.
      6 vectors produced by pass  6 Test12= 6.28D-15 2.56D-09 XBig12= 1.89D-10 2.39D-06.
      2 vectors produced by pass  7 Test12= 6.28D-15 2.56D-09 XBig12= 1.31D-13 5.57D-08.
 InvSVY:  IOpt=1 It=  1 EMax= 7.11D-15
 Solved reduced A of dimension   218 with    39 vectors.
 Isotropic polarizability for W=    0.000000       88.48 Bohr**3.
 End of Minotr F.D. properties file   721 does not exist.
 End of Minotr F.D. properties file   722 does not exist.
 End of Minotr F.D. properties file   788 does not exist.
 Calling FoFJK, ICntrl=    100127 FMM=F ISym2X=0 I1Cent= 0 IOpClX= 0 NMat=1 NMatS=1 NMatT=0.
 ***** Axes restored to original set *****
 -------------------------------------------------------------------
 Center     Atomic                   Forces (Hartrees/Bohr)
 Number     Number              X              Y              Z
 -------------------------------------------------------------------
      1        6           0.052097317    0.017988034    0.010390498
      2        6          -0.028346479    0.036056308   -0.019284347
      3        6          -0.030848003   -0.029217220    0.001653628
      4        8           0.010583754   -0.021762926   -0.000951357
      5        8          -0.016903558    0.021863399    0.001610188
      6        8           0.014210699    0.011693865    0.012097375
      7        1           0.003094721    0.000755613   -0.008252957
      8        1          -0.016118080   -0.000730131    0.006983666
      9        1           0.001290626   -0.021134437    0.002934770
     10        1           0.000781221    0.002567180   -0.010989373
     11        1           0.001521770    0.000188356   -0.006377821
     12        1           0.008636012   -0.018268041    0.010185731
 -------------------------------------------------------------------
 Cartesian Forces:  Max     0.052097317 RMS     0.017315991
 FormGI is forming the generalized inverse of G from B-inverse, IUseBI=4.

 GradGradGradGradGradGradGradGradGradGradGradGradGradGradGradGradGradGrad
 Berny optimization.
 Internal  Forces:  Max     0.025515421 RMS     0.008261881
 Search for a saddle point.
 Step number   3 out of a maximum of  100
 All quantities printed in internal units (Hartrees-Bohrs-Radians)
 Swapping is turned off.
 Second derivative matrix not updated -- analytic derivatives used.
 ITU=  0  0  0
     Eigenvalues ---   -0.14078  -0.00758   0.00084   0.00236   0.00349
     Eigenvalues ---    0.00566   0.00941   0.01445   0.02051   0.02661
     Eigenvalues ---    0.03136   0.03441   0.05003   0.05655   0.06432
     Eigenvalues ---    0.06786   0.07720   0.09316   0.10464   0.12576
     Eigenvalues ---    0.15529   0.18662   0.20082   0.34296   0.35631
     Eigenvalues ---    0.36215   0.38396   0.52588   0.76241   0.90770
 Eigenvectors required to have negative eigenvalues:
                          R5        R2        A6        D2        D5
   1                   -0.48370   0.42147  -0.37546  -0.27204  -0.21822
                          D8        A3        A15       A16       D14
   1                    0.19139   0.18295   0.17771  -0.17055  -0.15288
 RFO step:  Lambda0=2.807029366D-06 Lambda=-4.27318788D-02.
 Linear search not attempted -- option 19 set.
 Maximum step size (   0.300) exceeded in Quadratic search.
    -- Step size scaled by   0.553
 Iteration  1 RMS(Cart)=  0.09305537 RMS(Int)=  0.02218620
 Iteration  2 RMS(Cart)=  0.01876876 RMS(Int)=  0.00354296
 Iteration  3 RMS(Cart)=  0.00051480 RMS(Int)=  0.00350609
 Iteration  4 RMS(Cart)=  0.00000259 RMS(Int)=  0.00350609
 Iteration  5 RMS(Cart)=  0.00000002 RMS(Int)=  0.00350609
 Variable       Old X    -DE/DX   Delta X   Delta X   Delta X     New X
                                 (Linear)    (Quad)   (Total)
    R1        3.08163   0.02008   0.00000   0.12192   0.12608   3.20771
    R2        3.99925   0.00989   0.00000  -0.03919  -0.04160   3.95765
    R3        2.29815   0.00549   0.00000  -0.01546  -0.01546   2.28270
    R4        2.06690  -0.00016   0.00000  -0.00903  -0.00903   2.05787
    R5        3.48527  -0.00424   0.00000  -0.14815  -0.14929   3.33598
    R6        2.23443  -0.01919   0.00000  -0.06582  -0.06582   2.16861
    R7        2.05805   0.00341   0.00000   0.01131   0.01131   2.06937
    R8        2.05482   0.00231   0.00000   0.00144   0.00144   2.05626
    R9        2.24694  -0.00462   0.00000   0.01032   0.01032   2.25726
   R10        2.03447   0.00790   0.00000   0.01160   0.01160   2.04606
   R11        3.52362   0.02552   0.00000   0.06346   0.06346   3.58708
   R12        1.82621   0.00881   0.00000   0.00807   0.00807   1.83427
    A1        2.15584  -0.00813   0.00000  -0.03703  -0.03268   2.12315
    A2        2.00671   0.00014   0.00000  -0.01965  -0.02386   1.98284
    A3        1.88932   0.00433   0.00000   0.04868   0.04622   1.93554
    A4        1.66675   0.00145   0.00000   0.05539   0.05205   1.71879
    A5        2.11007   0.00871   0.00000   0.07134   0.06622   2.17630
    A6        1.20969   0.00929   0.00000   0.03851   0.04051   1.25020
    A7        2.34656   0.00153   0.00000   0.05824   0.05767   2.40423
    A8        1.92707  -0.00119   0.00000  -0.03547  -0.03641   1.89066
    A9        2.42267   0.00935   0.00000   0.01288   0.00960   2.43227
   A10        1.59962   0.00111   0.00000   0.01935   0.02044   1.62006
   A11        2.02582  -0.01359   0.00000  -0.07251  -0.07092   1.95490
   A12        1.73219  -0.00599   0.00000  -0.03013  -0.03065   1.70154
   A13        1.66168   0.00759   0.00000   0.07280   0.07421   1.73589
   A14        1.99927   0.00121   0.00000  -0.01278  -0.01376   1.98551
   A15        2.53518  -0.00055   0.00000  -0.07348  -0.08415   2.45104
   A16        1.39621  -0.00480   0.00000   0.03888   0.04075   1.43696
   A17        1.89747   0.00165   0.00000   0.01159   0.02542   1.92289
   A18        2.05888  -0.00420   0.00000   0.00828   0.00174   2.06062
   A19        2.30342   0.00272   0.00000  -0.01696  -0.02369   2.27973
   A20        1.92584  -0.00465   0.00000  -0.02456  -0.02456   1.90129
   A21        1.78882  -0.00121   0.00000  -0.00406  -0.00406   1.78476
    D1       -1.19280   0.00589   0.00000   0.09346   0.09039  -1.10241
    D2        0.24779   0.00582   0.00000   0.05890   0.05862   0.30641
    D3       -2.72655  -0.00679   0.00000  -0.01806  -0.01915  -2.74570
    D4        2.10361  -0.00021   0.00000  -0.01974  -0.02102   2.08259
    D5       -2.73898  -0.00027   0.00000  -0.05431  -0.05280  -2.79178
    D6        0.56986  -0.01289   0.00000  -0.13127  -0.13056   0.43930
    D7       -3.07132  -0.00408   0.00000  -0.22896  -0.22170   2.99016
    D8        0.42613   0.00506   0.00000  -0.05911  -0.05860   0.36752
    D9        1.02852  -0.01593   0.00000  -0.35118  -0.34729   0.68123
   D10       -1.75721  -0.00679   0.00000  -0.18132  -0.18420  -1.94141
   D11        2.06934  -0.01106   0.00000  -0.15204  -0.15234   1.91700
   D12       -3.12703  -0.01528   0.00000  -0.18709  -0.19055   2.96560
   D13       -1.23589  -0.00546   0.00000  -0.04084  -0.03708  -1.27297
   D14        3.13095  -0.00121   0.00000  -0.10328  -0.10410   3.02685
   D15       -0.21389  -0.00006   0.00000  -0.09313  -0.09151  -0.30540
   D16       -1.30072  -0.00587   0.00000  -0.12249  -0.12403  -1.42475
   D17        1.63762  -0.00472   0.00000  -0.11234  -0.11144   1.52618
   D18        0.76714  -0.00790   0.00000  -0.14777  -0.14866   0.61847
   D19       -2.57771  -0.00675   0.00000  -0.13763  -0.13608  -2.71378
   D20       -3.04978   0.00069   0.00000  -0.01053  -0.01053  -3.06031
         Item               Value     Threshold  Converged?
 Maximum Force            0.025515     0.000450     NO 
 RMS     Force            0.008262     0.000300     NO 
 Maximum Displacement     0.235403     0.001800     NO 
 RMS     Displacement     0.091458     0.001200     NO 
 Predicted change in Energy=-2.617881D-02
 GradGradGradGradGradGradGradGradGradGradGradGradGradGradGradGradGradGrad

                          Input orientation:                          
 ---------------------------------------------------------------------
 Center     Atomic      Atomic             Coordinates (Angstroms)
 Number     Number       Type             X           Y           Z
 ---------------------------------------------------------------------
      1          6           0        1.327378    1.563518   -1.257245
      2          6           0        0.098333    0.392818   -1.241865
      3          6           0        1.608650   -0.502020   -1.055932
      4          8           0        1.807327    1.965060   -2.290473
      5          8           0        1.256635    3.760177   -2.568787
      6          8           0        1.473578   -1.375774   -0.252744
      7          1           0        1.626160    3.955660   -3.444806
      8          1           0        1.652608    1.867483   -0.263412
      9          1           0       -0.299762    1.328112   -1.774483
     10          1           0        2.401463   -0.317141   -1.769776
     11          1           0       -0.321124   -0.351165   -1.927215
     12          1           0       -0.443525    0.477936   -0.302095
 ---------------------------------------------------------------------
                    Distance matrix (angstroms):
                    1          2          3          4          5
     1  C    0.000000
     2  C    1.697447   0.000000
     3  C    2.094299   1.765322   0.000000
     4  O    1.207951   2.547976   2.765871   0.000000
     5  O    2.559386   3.800197   4.536404   1.898201   0.000000
     6  O    3.109636   2.448995   1.194488   3.927454   5.638184
     7  H    3.255309   4.458817   5.057463   2.308202   0.970655
     8  H    1.088978   2.355372   2.498912   2.035297   3.008960
     9  H    1.723524   1.147579   2.740024   2.260922   2.994700
    10  H    2.225584   2.467213   1.082731   2.415070   4.309706
    11  H    2.613892   1.095062   2.122715   3.166569   4.450177
    12  H    2.286241   1.088128   2.395831   3.351346   4.336075
                    6          7          8          9         10
     6  O    0.000000
     7  H    6.215845   0.000000
     8  H    3.248212   3.805581   0.000000
     9  H    3.573713   3.661033   2.527054   0.000000
    10  H    2.069556   4.654422   2.757262   3.162830   0.000000
    11  H    2.659818   4.964246   3.403859   1.686343   2.727348
    12  H    2.667201   5.123943   2.515176   1.706281   3.298514
                   11         12
    11  H    0.000000
    12  H    1.828498   0.000000
 Stoichiometry    C3H6O3
 Framework group  C1[X(C3H6O3)]
 Deg. of freedom    30
 Full point group                 C1      NOp   1
 Largest Abelian subgroup         C1      NOp   1
 Largest concise Abelian subgroup C1      NOp   1
                         Standard orientation:                         
 ---------------------------------------------------------------------
 Center     Atomic      Atomic             Coordinates (Angstroms)
 Number     Number       Type             X           Y           Z
 ---------------------------------------------------------------------
      1          6           0        0.371487   -0.032363    0.433653
      2          6           0       -0.741315    1.096670   -0.173211
      3          6           0       -1.582667   -0.455173   -0.189724
      4          8           0        1.179069   -0.574351   -0.282731
      5          8           0        2.909880    0.087302    0.129186
      6          8           0       -2.713855   -0.314290    0.167164
      7          1           0        3.461376   -0.346519   -0.541502
      8          1           0        0.249080   -0.237630    1.496081
      9          1           0        0.316660    1.515243   -0.322950
     10          1           0       -1.093704   -1.294648   -0.667744
     11          1           0       -1.149842    1.389855   -1.145995
     12          1           0       -1.069353    1.729615    0.648856
 ---------------------------------------------------------------------
 Rotational constants (GHZ):          11.7982757           1.4880705           1.3934611
 Standard basis: 6-31+G(d) (6D, 7F)
 There are   126 symmetry adapted cartesian basis functions of A   symmetry.
 There are   126 symmetry adapted basis functions of A   symmetry.
   126 basis functions,   216 primitive gaussians,   126 cartesian basis functions
    24 alpha electrons       24 beta electrons
       nuclear repulsion energy       227.7145499675 Hartrees.
 NAtoms=   12 NActive=   12 NUniq=   12 SFac= 1.00D+00 NAtFMM=   60 NAOKFM=F Big=F
 Integral buffers will be    131072 words long.
 Raffenetti 2 integral format.
 Two-electron integral symmetry is turned on.
 One-electron integrals computed using PRISM.
 NBasis=   126 RedAO= T EigKep=  2.25D-04  NBF=   126
 NBsUse=   126 1.00D-06 EigRej= -1.00D+00 NBFU=   126
 Initial guess from the checkpoint file:  "/scratch/bell/zhao922/YARP/paper-example/KHP-network/pp_0/TS-folder/Gau-4167.chk"
 B after Tr=    -0.000000   -0.000000   -0.000000
         Rot=    0.999868   -0.016237    0.000563    0.000094 Ang=  -1.86 deg.
 ExpMin= 4.38D-02 ExpMax= 5.48D+03 ExpMxC= 8.25D+02 IAcc=3 IRadAn=         5 AccDes= 0.00D+00
 Harris functional with IExCor=  402 and IRadAn=       5 diagonalized for initial guess.
 HarFok:  IExCor=  402 AccDes= 0.00D+00 IRadAn=         5 IDoV= 1 UseB2=F ITyADJ=14
 ICtDFT=  3500011 ScaDFX=  1.000000  1.000000  1.000000  1.000000
 FoFCou: FMM=F IPFlag=           0 FMFlag=      100000 FMFlg1=           0
         NFxFlg=           0 DoJE=T BraDBF=F KetDBF=T FulRan=T
         wScrn=  0.000000 ICntrl=       500 IOpCl=  0 I1Cent=   200000004 NGrid=           0
         NMat0=    1 NMatS0=      1 NMatT0=    0 NMatD0=    1 NMtDS0=    0 NMtDT0=    0
 Petite list used in FoFCou.
 Keep R1 ints in memory in canonical form, NReq=47237561.
 Requested convergence on RMS density matrix=1.00D-08 within 128 cycles.
 Requested convergence on MAX density matrix=1.00D-06.
 Requested convergence on             energy=1.00D-06.
 No special actions if energy rises.
 EnCoef did     2 forward-backward iterations
 SCF Done:  E(RB3LYP) =  -343.318685599     A.U. after   15 cycles
            NFock= 15  Conv=0.29D-08     -V/T= 2.0089
 DoSCS=F DFT=T ScalE2(SS,OS)=  1.000000  1.000000
 Range of M.O.s used for correlation:     1   126
 NBasis=   126 NAE=    24 NBE=    24 NFC=     0 NFV=     0
 NROrb=    126 NOA=    24 NOB=    24 NVA=   102 NVB=   102

 **** Warning!!: The largest alpha MO coefficient is  0.18451998D+02


 **** Warning!!: The smallest alpha delta epsilon is  0.89335010D-01

 Symmetrizing basis deriv contribution to polar:
 IMax=3 JMax=2 DiffMx= 0.00D+00
 G2DrvN: will do    13 centers at a time, making    1 passes.
 Calling FoFCou, ICntrl=  3107 FMM=F I1Cent=   0 AccDes= 0.00D+00.
 End of G2Drv F.D. properties file   721 does not exist.
 End of G2Drv F.D. properties file   722 does not exist.
 End of G2Drv F.D. properties file   788 does not exist.
          IDoAtm=111111111111
          Differentiating once with respect to electric field.
                with respect to dipole field.
          Differentiating once with respect to nuclear coordinates.
 Keep R1 ints in memory in canonical form, NReq=47193569.
          There are    39 degrees of freedom in the 1st order CPHF.  IDoFFX=6 NUNeed=     3.
     36 vectors produced by pass  0 Test12= 6.28D-15 2.56D-09 XBig12= 1.15D+03 3.08D+01.
 AX will form    36 AO Fock derivatives at one time.
     36 vectors produced by pass  1 Test12= 6.28D-15 2.56D-09 XBig12= 5.06D+02 5.68D+00.
     36 vectors produced by pass  2 Test12= 6.28D-15 2.56D-09 XBig12= 1.17D+01 7.20D-01.
     36 vectors produced by pass  3 Test12= 6.28D-15 2.56D-09 XBig12= 6.18D-02 4.32D-02.
     36 vectors produced by pass  4 Test12= 6.28D-15 2.56D-09 XBig12= 9.31D-05 1.46D-03.
     29 vectors produced by pass  5 Test12= 6.28D-15 2.56D-09 XBig12= 1.21D-07 4.97D-05.
      5 vectors produced by pass  6 Test12= 6.28D-15 2.56D-09 XBig12= 1.26D-10 1.46D-06.
      2 vectors produced by pass  7 Test12= 6.28D-15 2.56D-09 XBig12= 9.66D-14 3.59D-08.
 InvSVY:  IOpt=1 It=  1 EMax= 1.42D-14
 Solved reduced A of dimension   216 with    39 vectors.
 Isotropic polarizability for W=    0.000000       85.45 Bohr**3.
 End of Minotr F.D. properties file   721 does not exist.
 End of Minotr F.D. properties file   722 does not exist.
 End of Minotr F.D. properties file   788 does not exist.
 Calling FoFJK, ICntrl=    100127 FMM=F ISym2X=0 I1Cent= 0 IOpClX= 0 NMat=1 NMatS=1 NMatT=0.
 ***** Axes restored to original set *****
 -------------------------------------------------------------------
 Center     Atomic                   Forces (Hartrees/Bohr)
 Number     Number              X              Y              Z
 -------------------------------------------------------------------
      1        6           0.048948997    0.008404842    0.005352334
      2        6          -0.020512847    0.023318876   -0.011870578
      3        6          -0.027743861   -0.014396643    0.000839875
      4        8           0.007513143   -0.011661302    0.002644648
      5        8          -0.013057378    0.012307035   -0.001694977
      6        8           0.014350579    0.008501039    0.008750780
      7        1           0.001396082    0.000945627   -0.004024667
      8        1          -0.016854541    0.000908554    0.005802329
      9        1           0.001066458   -0.010757521    0.000929750
     10        1          -0.001380335   -0.001659281   -0.008935873
     11        1           0.000928874   -0.000757964   -0.003719375
     12        1           0.005344829   -0.015153263    0.005925754
 -------------------------------------------------------------------
 Cartesian Forces:  Max     0.048948997 RMS     0.013234950
 FormGI is forming the generalized inverse of G from B-inverse, IUseBI=4.

 GradGradGradGradGradGradGradGradGradGradGradGradGradGradGradGradGradGrad
 Berny optimization.
 Internal  Forces:  Max     0.016754727 RMS     0.006100027
 Search for a saddle point.
 Step number   4 out of a maximum of  100
 All quantities printed in internal units (Hartrees-Bohrs-Radians)
 Swapping is turned off.
 Second derivative matrix not updated -- analytic derivatives used.
 ITU=  0  0  0  0
     Eigenvalues ---   -0.06620  -0.00919  -0.00043   0.00377   0.00410
     Eigenvalues ---    0.00678   0.01365   0.01598   0.02334   0.02556
     Eigenvalues ---    0.03560   0.03794   0.04939   0.05686   0.06527
     Eigenvalues ---    0.07107   0.07954   0.09042   0.10338   0.12660
     Eigenvalues ---    0.15541   0.18836   0.24178   0.34188   0.35619
     Eigenvalues ---    0.36107   0.36928   0.51071   0.79074   0.89425
 Eigenvectors required to have negative eigenvalues:
                          R5        R2        A6        D2        D5
   1                    0.42906  -0.42202   0.32345   0.31453   0.26068
                          D8        R1        D11       A3        A16
   1                   -0.22521  -0.21541  -0.17573  -0.16324   0.14704
 RFO step:  Lambda0=4.546106975D-05 Lambda=-3.32509018D-02.
 Linear search not attempted -- option 19 set.
 Maximum step size (   0.300) exceeded in Quadratic search.
    -- Step size scaled by   0.527
 Iteration  1 RMS(Cart)=  0.07584976 RMS(Int)=  0.01630471
 Iteration  2 RMS(Cart)=  0.01456009 RMS(Int)=  0.00329757
 Iteration  3 RMS(Cart)=  0.00027749 RMS(Int)=  0.00328627
 Iteration  4 RMS(Cart)=  0.00000099 RMS(Int)=  0.00328627
 Variable       Old X    -DE/DX   Delta X   Delta X   Delta X     New X
                                 (Linear)    (Quad)   (Total)
    R1        3.20771   0.01585   0.00000   0.15381   0.15665   3.36436
    R2        3.95765   0.00573   0.00000  -0.09002  -0.09245   3.86520
    R3        2.28270   0.00151   0.00000  -0.01555  -0.01555   2.26715
    R4        2.05787   0.00052   0.00000  -0.00448  -0.00448   2.05339
    R5        3.33598  -0.00416   0.00000  -0.11241  -0.11245   3.22353
    R6        2.16861  -0.00957   0.00000  -0.03295  -0.03295   2.13566
    R7        2.06937   0.00249   0.00000   0.00799   0.00799   2.07736
    R8        2.05626   0.00127   0.00000   0.00053   0.00053   2.05679
    R9        2.25726  -0.00196   0.00000   0.01404   0.01404   2.27129
   R10        2.04606   0.00460   0.00000   0.00900   0.00900   2.05507
   R11        3.58708   0.01675   0.00000   0.03132   0.03132   3.61840
   R12        1.83427   0.00435   0.00000   0.00397   0.00397   1.83824
    A1        2.12315  -0.00568   0.00000  -0.03711  -0.03289   2.09026
    A2        1.98284  -0.00117   0.00000  -0.02906  -0.03525   1.94759
    A3        1.93554   0.00239   0.00000   0.02519   0.02276   1.95830
    A4        1.71879   0.00188   0.00000   0.06820   0.06511   1.78390
    A5        2.17630   0.00710   0.00000   0.07181   0.06470   2.24100
    A6        1.25020   0.00588   0.00000   0.00610   0.00677   1.25697
    A7        2.40423   0.00215   0.00000   0.04912   0.04823   2.45246
    A8        1.89066  -0.00115   0.00000  -0.02683  -0.02699   1.86367
    A9        2.43227   0.00442   0.00000  -0.04514  -0.04783   2.38443
   A10        1.62006   0.00071   0.00000   0.04314   0.04471   1.66477
   A11        1.95490  -0.00857   0.00000  -0.03674  -0.03534   1.91955
   A12        1.70154  -0.00350   0.00000  -0.00075  -0.00001   1.70152
   A13        1.73589   0.00647   0.00000   0.05770   0.05744   1.79333
   A14        1.98551  -0.00040   0.00000  -0.01877  -0.01884   1.96666
   A15        2.45104  -0.00308   0.00000  -0.09617  -0.10478   2.34626
   A16        1.43696  -0.00178   0.00000   0.06108   0.06420   1.50115
   A17        1.92289   0.00155   0.00000   0.00811   0.01978   1.94267
   A18        2.06062  -0.00237   0.00000   0.01570   0.00850   2.06912
[...]
   D14       -3.12278  -0.00000   0.00000   0.00040   0.00040  -3.12238
   D15       -0.80572   0.00000   0.00000   0.00044   0.00044  -0.80528
   D16       -1.09015  -0.00000   0.00000   0.00043   0.00043  -1.08972
   D17        1.22691   0.00000   0.00000   0.00048   0.00048   1.22739
   D18        0.89464   0.00000   0.00000   0.00051   0.00051   0.89515
   D19       -3.07149   0.00000   0.00000   0.00055   0.00055  -3.07093
   D20        2.70994   0.00000   0.00000   0.00004   0.00004   2.70997
         Item               Value     Threshold  Converged?
 Maximum Force            0.000006     0.000450     YES
 RMS     Force            0.000002     0.000300     YES
 Maximum Displacement     0.000946     0.001800     YES
 RMS     Displacement     0.000243     0.001200     YES
 Predicted change in Energy=-3.007069D-09
 Optimization completed.
    -- Stationary point found.
                           ----------------------------
                           !   Optimized Parameters   !
                           ! (Angstroms and Degrees)  !
 --------------------------                            --------------------------
 ! Name  Definition              Value          Derivative Info.                !
 --------------------------------------------------------------------------------
 ! R1    R(1,2)                  2.1688         -DE/DX =    0.0                 !
 ! R2    R(1,3)                  1.5355         -DE/DX =    0.0                 !
 ! R3    R(1,4)                  1.248          -DE/DX =    0.0                 !
 ! R4    R(1,8)                  1.0908         -DE/DX =    0.0                 !
 ! R5    R(2,3)                  1.7019         -DE/DX =    0.0                 !
 ! R6    R(2,9)                  1.0927         -DE/DX =    0.0                 !
 ! R7    R(2,11)                 1.0931         -DE/DX =    0.0                 !
 ! R8    R(2,12)                 1.0921         -DE/DX =    0.0                 !
 ! R9    R(3,6)                  1.2677         -DE/DX =    0.0                 !
 ! R10   R(3,10)                 1.1095         -DE/DX =    0.0                 !
 ! R11   R(4,5)                  1.6736         -DE/DX =    0.0                 !
 ! R12   R(5,7)                  0.9773         -DE/DX =    0.0                 !
 ! A1    A(2,1,4)              111.644          -DE/DX =    0.0                 !
 ! A2    A(2,1,8)              100.6612         -DE/DX =    0.0                 !
 ! A3    A(3,1,4)              120.8805         -DE/DX =    0.0                 !
 ! A4    A(3,1,8)              117.4292         -DE/DX =    0.0                 !
 ! A5    A(4,1,8)              121.5354         -DE/DX =    0.0                 !
 ! A6    A(1,2,9)               90.2966         -DE/DX =    0.0                 !
 ! A7    A(1,2,11)             141.6954         -DE/DX =    0.0                 !
 ! A8    A(1,2,12)              90.6093         -DE/DX =    0.0                 !
 ! A9    A(3,2,9)              114.2657         -DE/DX =    0.0                 !
 ! A10   A(3,2,11)              96.9407         -DE/DX =    0.0                 !
 ! A11   A(3,2,12)             112.4904         -DE/DX =    0.0                 !
 ! A12   A(9,2,11)             110.7069         -DE/DX =    0.0                 !
 ! A13   A(9,2,12)             112.4685         -DE/DX =    0.0                 !
 ! A14   A(11,2,12)            108.8278         -DE/DX =    0.0                 !
 ! A15   A(1,3,6)              117.6957         -DE/DX =    0.0                 !
 ! A16   A(1,3,10)             110.4684         -DE/DX =    0.0                 !
 ! A17   A(2,3,6)              113.3701         -DE/DX =    0.0                 !
 ! A18   A(2,3,10)             103.7801         -DE/DX =    0.0                 !
 ! A19   A(6,3,10)             120.7159         -DE/DX =    0.0                 !
 ! A20   A(1,4,5)              110.7533         -DE/DX =    0.0                 !
 ! A21   A(4,5,7)               96.352          -DE/DX =    0.0                 !
 ! D1    D(4,1,2,9)            -12.4137         -DE/DX =    0.0                 !
 ! D2    D(4,1,2,11)           112.8266         -DE/DX =    0.0                 !
 ! D3    D(4,1,2,12)          -124.8872         -DE/DX =    0.0                 !
 ! D4    D(8,1,2,9)            117.9234         -DE/DX =    0.0                 !
 ! D5    D(8,1,2,11)          -116.8363         -DE/DX =    0.0                 !
 ! D6    D(8,1,2,12)             5.4498         -DE/DX =    0.0                 !
 ! D7    D(4,1,3,6)            152.6409         -DE/DX =    0.0                 !
 ! D8    D(4,1,3,10)             8.3807         -DE/DX =    0.0                 !
 ! D9    D(8,1,3,6)            -31.8153         -DE/DX =    0.0                 !
 ! D10   D(8,1,3,10)          -176.0755         -DE/DX =    0.0                 !
 ! D11   D(2,1,4,5)             91.4442         -DE/DX =    0.0                 !
 ! D12   D(3,1,4,5)            148.3118         -DE/DX =    0.0                 !
 ! D13   D(8,1,4,5)            -27.0472         -DE/DX =    0.0                 !
 ! D14   D(9,2,3,6)           -178.9223         -DE/DX =    0.0                 !
 ! D15   D(9,2,3,10)           -46.1646         -DE/DX =    0.0                 !
 ! D16   D(11,2,3,6)           -62.4609         -DE/DX =    0.0                 !
 ! D17   D(11,2,3,10)           70.2968         -DE/DX =    0.0                 !
 ! D18   D(12,2,3,6)            51.2592         -DE/DX =    0.0                 !
 ! D19   D(12,2,3,10)         -175.9831         -DE/DX =    0.0                 !
 ! D20   D(1,4,5,7)            155.2679         -DE/DX =    0.0                 !
 --------------------------------------------------------------------------------
 GradGradGradGradGradGradGradGradGradGradGradGradGradGradGradGradGradGrad


 ----------------------------------------------------------------------

 Electric dipole moment (input orientation):
 (Debye = 10**-18 statcoulomb cm , SI units = C m)
                  (au)            (Debye)         (10**-30 SI)
   Tot        0.153581D+01      0.390365D+01      0.130212D+02
   x         -0.332110D+00     -0.844139D+00     -0.281574D+01
   y          0.108592D+01      0.276014D+01      0.920684D+01
   z         -0.103402D+01     -0.262822D+01     -0.876679D+01

 Dipole polarizability, Alpha (input orientation).
 (esu units = cm**3 , SI units = C**2 m**2 J**-1)
 Alpha(0;0):
               (au)            (10**-24 esu)      (10**-40 SI)
   iso        0.754581D+02      0.111817D+02      0.124414D+02
   aniso      0.815604D+02      0.120860D+02      0.134475D+02
   xx         0.508273D+02      0.753183D+01      0.838030D+01
   yx         0.484705D+01      0.718259D+00      0.799171D+00
   yy         0.116351D+03      0.172415D+02      0.191837D+02
   zx        -0.242949D+00     -0.360013D-01     -0.400568D-01
   zy        -0.303665D+02     -0.449985D+01     -0.500676D+01
   zz         0.591958D+02      0.877192D+01      0.976007D+01

 ----------------------------------------------------------------------

 Dipole orientation:
     6          3.90942378         -0.55746703          2.79311624
     6          0.42663340          1.50323064          2.14449444
     6          3.34856105          1.47636112          0.80086417
     8          4.88471900          0.01246611          4.86344079
     8          3.87848246         -1.92881640          7.14852100
     8          3.33067329          0.80690186         -1.49925942
     1          5.33756303         -1.71036772          8.25940650
     1          3.29548604         -2.48232253          2.38401392
     1          0.40567589          2.11026508          4.11806607
     1          4.17914072          3.31378976          1.37497022
     1         -0.39542269          2.95406009          0.92530314
     1         -0.59258277         -0.26742845          1.85308198

 Electric dipole moment (dipole orientation):
 (Debye = 10**-18 statcoulomb cm , SI units = C m)
                  (au)            (Debye)         (10**-30 SI)
   Tot        0.153581D+01      0.390365D+01      0.130212D+02
   x          0.000000D+00      0.000000D+00      0.000000D+00
   y          0.000000D+00      0.000000D+00      0.000000D+00
   z          0.153581D+01      0.390365D+01      0.130212D+02

 Dipole polarizability, Alpha (dipole orientation).
 (esu units = cm**3 , SI units = C**2 m**2 J**-1)
 Alpha(0;0):
               (au)            (10**-24 esu)      (10**-40 SI)
   iso        0.754581D+02      0.111817D+02      0.124414D+02
   aniso      0.815604D+02      0.120860D+02      0.134475D+02
   xx         0.539290D+02      0.799146D+01      0.889170D+01
   yx        -0.874369D+01     -0.129568D+01     -0.144164D+01
   yy         0.577074D+02      0.855136D+01      0.951467D+01
   zx         0.153463D+02      0.227409D+01      0.253027D+01
   zy        -0.272885D+02     -0.404374D+01     -0.449927D+01
   zz         0.114738D+03      0.170024D+02      0.189177D+02

 ----------------------------------------------------------------------
 1\1\GINC-BELL-A103\Freq\RB3LYP\6-31+G(d)\C3H6O3\ZHAO922\23-Dec-2020\0\
 \#N Geom=AllCheck Guess=TCheck SCRF=Check GenChk RB3LYP/6-31+G(d) Freq
 \\pp_9_3 TS\\0,1\C,1.7183003826,1.4409802043,-1.2339078115\C,-0.098629
 8261,0.2652202337,-1.3753152838\C,1.5594295366,-0.0862582014,-1.220912
 5943\O,1.9555127042,2.0512964345,-2.2963757786\O,1.2703015343,3.577983
 1674,-2.2690020372\O,1.8458056314,-0.6993307624,-0.1488900085\H,1.8831
 532937,3.9831301825,-2.9134883396\H,1.5423875043,1.9724754498,-0.29768
 80294\H,-0.3646012324,0.7773944264,-2.3031916897\H,1.8321265285,-0.513
 0980295,-2.2079985544\H,-0.4521271588,-0.7690643239,-1.3897205986\H,-0
 .5039368982,0.7639362186,-0.4923442743\\Version=ES64L-G16RevB.01\State
 =1-A\HF=-343.401827\RMSD=1.115e-09\RMSF=2.663e-06\ZeroPoint=0.0876732\
 Thermal=0.0949491\Dipole=-0.3321098,1.085923,-1.0340199\DipoleDeriv=0.
 4395902,0.2625246,0.0449471,0.5852959,-0.3363519,0.3879242,-0.2904921,
 0.3768064,0.1635049,0.039959,0.1889465,-0.0495688,-0.2522381,-0.252074
 2,-0.0074562,-0.0250635,-0.1398663,0.1776238,0.2303398,-0.39205,0.0936
 598,-0.3987825,1.3033269,-0.5645146,0.1442477,-0.1493302,0.7767376,-0.
 3354353,-0.8143382,0.338377,-0.2440282,1.7281962,-0.9041759,0.3231303,
 -0.5668695,0.06128,-0.1354647,0.6912863,-0.441806,-0.0606521,-2.023946
 2,0.8158448,-0.0693912,0.2286043,-0.4283056,-0.5079349,0.2434631,-0.18
 65881,0.1941522,-0.9653121,0.3414781,-0.2090783,0.5788641,-0.995457,0.
 2347814,0.1519699,0.0389498,0.025666,0.3046672,0.018371,0.0901734,-0.1
 074104,0.3257594,0.0599738,-0.1354085,0.050309,-0.0006611,0.0980244,-0
 .0489307,0.0058976,-0.0359786,0.0668531,-0.0322667,-0.1212984,0.052095
 6,0.040417,0.0448697,0.0678291,-0.0580711,0.0270641,-0.0330414,0.02880
 34,0.0374986,0.0710206,0.0411522,0.0254342,-0.0526351,0.0578955,-0.175
 5466,-0.1798122,-0.0377896,-0.1094975,-0.0089156,0.013556,0.0261821,0.
 0040264,-0.0216072,0.0028507,0.0893442,0.0154436,-0.0030965,-0.0024804
 ,0.0561226,0.0469836,-0.0577612,0.052359,-0.039188,-0.0244865\Polar=50
 .8273371,4.8470535,116.3511463,-0.2429486,-30.3665119,59.1958264\Quadr
 upole=2.1529816,-1.7541532,-0.3988283,5.124158,-2.532675,3.2752054\PG=
 C01 [X(C3H6O3)]\NImag=1\\0.14833509,-0.04519484,0.46204954,-0.10326275
 ,0.00349074,0.78387118,-0.03680109,-0.03388117,0.00967158,0.26576084,0
 .02651857,0.01303754,-0.02028344,0.01018740,0.53919571,-0.00901722,-0.
 00712873,-0.00275696,-0.02855839,-0.00557086,0.60044518,0.02575786,0.0
 6520561,-0.04282622,-0.00805172,-0.05029266,0.01726672,0.17089265,0.02
 147429,-0.07723282,-0.07153490,0.00796060,-0.00945028,-0.00442212,-0.0
 6582335,0.36915688,0.01521790,-0.04599161,-0.07699098,0.03071560,-0.02
 652289,-0.05404296,-0.02333344,-0.01783436,0.71839595,-0.07232564,-0.0
 2466841,0.10920195,0.00526083,-0.01330157,0.00598124,-0.02160861,-0.01
 571126,0.00219212,0.10228177,-0.01705957,-0.10469914,0.12012045,0.0022
 0719,-0.02655582,0.00609881,-0.05567021,-0.04702207,0.01130571,0.04646
 996,0.15421349,0.07608741,0.09085852,-0.43970831,-0.00912130,0.0234039
 9,-0.00304720,0.04985673,0.05830064,0.00073083,-0.15006053,-0.12771468
 ,0.49940654,0.00984419,0.00769281,-0.02303219,-0.00289691,-0.00020720,
 0.00094177,0.00558318,-0.00425072,-0.00107448,-0.03939396,-0.00571405,
 0.04416329,0.23983178,-0.01429864,-0.07852570,0.06554270,0.00120689,0.
 01210075,-0.00421486,0.02632379,0.02297784,0.01752547,0.02411551,0.010
 31215,-0.07033593,0.09989093,0.13832124,-0.01125030,0.03992510,0.00359
 441,-0.00053576,0.00061146,0.00053389,-0.00101650,-0.01038159,-0.00063
 283,0.02720978,-0.01447438,-0.03672374,-0.23100147,-0.12874149,0.25113
 492,-0.00357652,-0.00784918,0.01001104,-0.01811462,0.02303231,-0.02978
 320,-0.07418509,0.04775719,-0.07207531,0.00649123,0.01208008,-0.009498
 59,-0.00198361,-0.00547886,-0.00046594,0.07793747,0.01057422,-0.048264
 60,0.05313157,0.01409775,-0.01578246,0.01397040,0.04160583,-0.15160175
 ,0.16050233,0.00178193,0.00503683,-0.01053749,-0.00017576,-0.00904126,
 0.00355068,-0.06781527,0.19703986,-0.00921429,0.04596974,-0.01274674,-
 0.03084126,0.02851828,-0.00980101,-0.05000633,0.12657965,-0.38725009,-
 0.00137908,0.00133231,0.00811658,-0.00063412,-0.00049373,-0.00309430,0
 .10327299,-0.22353175,0.44511274,0.00001396,0.01001524,-0.00214691,0.0
 0011402,-0.00038764,0.00036763,-0.00194956,-0.00362733,-0.00108775,0.0
 0849553,0.00287972,-0.00826482,-0.21355100,-0.11918770,0.21721859,0.00
 025001,0.00155396,-0.00102447,0.20575198,0.00102293,-0.01396314,0.0029
 3701,-0.00043273,0.00121259,-0.00005447,0.00445103,0.00347151,0.001285
 82,-0.01652735,-0.00661574,0.01621104,-0.09580143,-0.09677166,0.109283
 15,-0.00105302,-0.00110752,0.00018704,0.10859860,0.11428995,0.00113072
 ,-0.00118764,-0.00069214,0.00036462,-0.00033722,-0.00012577,0.00005454
 ,0.00124468,0.00113579,-0.00325957,-0.00152456,0.00152221,0.20797733,0
 .13119620,-0.21749615,0.00003900,-0.00092238,0.00038570,-0.20549531,-0
 .12882908,0.21517798,-0.05112749,0.03473218,0.04124888,0.00402269,-0.0
 0643381,-0.00288498,-0.00462881,-0.01021810,-0.00050070,0.01366028,0.0
 0608516,0.01549389,-0.00273983,-0.00366942,-0.00238205,0.00058562,-0.0
 0008514,0.00142579,0.00011500,-0.00008199,-0.00027552,0.03877284,0.019
 19736,-0.12613344,-0.13327942,0.00208546,0.00283182,-0.00038294,0.0053
 1363,-0.01328273,-0.02253847,-0.00424242,0.00757107,0.02779692,-0.0014
 1174,0.00349985,-0.00037950,-0.00017622,0.00464693,0.00079988,-0.00008
 740,-0.00014763,0.00028688,-0.01898037,0.12541932,0.04005389,-0.119973
 01,-0.25016710,0.00093695,-0.00004117,-0.00007166,-0.00017852,0.000674
 32,0.00156592,0.00812838,-0.00206969,-0.03101705,0.00120734,-0.0047807
 1,0.00171145,0.00029860,-0.00070910,0.00178941,-0.00001368,-0.00057023
 ,0.00035949,-0.05063406,0.12637216,0.27521378,-0.01215312,0.00035683,-
 0.00492773,-0.05934394,0.03677875,-0.05333934,0.00394403,0.00112130,-0
 .01622597,0.00084172,0.00701150,-0.00226071,0.00276901,-0.00602063,0.0
 0076654,-0.00615130,0.00406400,-0.00316117,0.00032453,-0.00005742,-0.0
 0029286,-0.00082372,-0.00034802,-0.00010487,0.06150513,-0.00427673,-0.
 00038005,-0.00186766,0.03277224,-0.11163405,0.11097371,-0.00281438,-0.
 00275170,0.00106563,-0.00033472,0.00077544,-0.00090816,0.00034126,-0.0
 0060216,-0.00007419,0.00190973,0.00104402,0.00044898,0.00007789,0.0000
 9310,-0.00000593,0.00009301,0.00000898,0.00000262,-0.03118609,0.115951
 41,-0.00060352,0.00028972,-0.00239668,-0.05257238,0.10984964,-0.251886
 58,0.00090701,-0.00089451,0.00011978,0.00011497,0.00087717,0.00103389,
 0.00076346,-0.00051039,0.00030279,-0.00121867,0.00055946,0.00113655,0.
 00015794,-0.00007401,-0.00001014,-0.00044901,0.00011573,-0.00007117,0.
 05956422,-0.12116051,0.26498165,-0.00591455,-0.01843524,0.00287826,-0.
 01618100,0.01678979,0.01823646,-0.05296130,0.03442565,0.05303173,0.002
 19198,0.00624024,-0.00969650,0.00034181,-0.00365546,0.00080015,0.01063
 928,-0.00261580,-0.01139751,0.00033169,-0.00048275,0.00004632,0.002817
 74,-0.00108626,0.00079258,0.00084613,0.00037743,-0.00034641,0.06047108
 ,0.00839562,-0.02281516,-0.02243782,-0.00226039,-0.00127030,-0.0024921
 3,0.02888683,-0.09188437,-0.07806682,0.00156037,0.00469242,-0.00417035
 ,-0.00053859,-0.00176713,0.00081897,-0.00416909,0.01605953,0.01972299,
 0.00013942,-0.00046537,0.00005434,-0.00055748,-0.00448335,0.00063675,0
 .00049008,-0.00010618,0.00004029,-0.03226904,0.10058755,0.00156937,-0.
 00587314,0.00249119,0.00015247,-0.00295548,0.00110948,0.05177369,-0.08
 200049,-0.20793277,-0.00103144,0.00436890,-0.00137835,0.00105644,-0.00
 472815,0.00083904,-0.00047880,0.00519566,-0.04358215,0.00039497,-0.000
 37643,-0.00027679,0.00028079,0.00098336,-0.00008909,0.00111730,-0.0005
 5774,0.00012261,-0.05439437,0.08498836,0.24810485,0.00624885,0.0081072
 4,-0.00534609,-0.05518731,-0.09629489,-0.00038453,-0.03686922,-0.01610
 988,-0.00851135,-0.00326545,-0.00670942,0.00619030,0.00069733,0.003035
 73,0.00045206,0.00484325,-0.00223264,0.00632591,0.00002455,0.00027600,
 -0.00014921,-0.00098980,0.00092326,-0.00017733,0.00382060,0.00862392,0
 .00082128,0.00240159,-0.00015074,-0.00021252,0.07325024,-0.00260471,-0
 .00212125,0.00151040,-0.08299962,-0.29697822,-0.00375500,0.00352079,-0
 .00058482,0.00137808,0.00100473,0.00104342,-0.00160954,-0.00019718,0.0
 0015115,-0.00012098,0.00198975,0.00208531,-0.00083458,-0.00004999,-0.0
 0000156,0.00004992,0.00006279,0.00005235,0.00027409,-0.00418214,-0.010
 83645,-0.00166471,0.00010697,0.00114244,0.00051420,0.08805515,0.318234
 55,0.00014315,0.00057428,-0.00492557,-0.00101468,-0.00308074,-0.045790
 39,-0.00261348,-0.00110124,0.00233699,0.00228587,0.00061534,0.00159654
 ,-0.00018854,-0.00016187,-0.00010703,-0.00027677,-0.00097146,-0.000662
 87,-0.00000769,-0.00001667,0.00000969,-0.00103454,0.00013183,0.0002151
 2,0.00907932,0.02539384,0.00243077,0.00074086,0.00057359,-0.00026840,0
 .00101235,0.00355846,0.04504640,-0.00830154,0.00391892,0.00853019,-0.0
 7858180,0.05361095,0.08117385,-0.00592340,0.00300162,0.02165166,-0.002
 62967,0.00217941,-0.00288917,0.00149800,-0.00226214,0.00020489,0.00326
 427,-0.00075306,-0.00336645,0.00007931,0.00008813,-0.00014007,0.000335
 49,-0.00118730,-0.00030929,0.00442093,-0.00558356,-0.00713889,-0.00498
 444,0.00047301,-0.00022788,0.00502537,-0.00470654,-0.00812586,0.085797
 49,-0.00374848,-0.00095176,0.00267037,0.04905637,-0.10670728,-0.103021
 82,-0.00070690,-0.00179569,-0.00210888,-0.00014676,0.00124796,-0.00129
 496,0.00037167,-0.00065507,-0.00001722,-0.00022743,-0.00011488,0.00130
 120,0.00007522,0.00000548,-0.00002521,-0.00094684,0.00001684,0.0001839
 5,-0.00802815,0.00843763,0.01257211,0.00060447,0.00030992,0.00044097,0
 .01247627,-0.01218691,-0.02551534,-0.04877943,0.11239377,-0.00085436,-
 0.00095396,0.00042769,0.08080254,-0.10359156,-0.23456602,0.00011581,0.
 00136994,0.00256437,0.00061631,0.00106461,-0.00053194,-0.00017881,-0.0
 0029723,-0.00006245,0.00017565,-0.00023791,0.00059618,-0.00009849,0.00
 001682,0.00001012,-0.00028848,0.00009356,0.00056091,0.00978527,-0.0133
 1059,-0.01576345,-0.00069158,0.00033182,0.00086037,-0.00002086,0.00069
 967,0.00011876,-0.08936299,0.11481484,0.24578546\\-0.00000271,0.000005
 27,0.00000198,0.00000440,0.00000450,-0.00000095,0.00000021,0.00000139,
 -0.00000073,0.00000156,0.00000422,-0.00000200,-0.00000025,-0.00000174,
 0.00000061,-0.00000142,-0.00000125,0.00000264,-0.00000061,0.00000041,0
 .00000062,0.00000059,0.00000129,-0.00000021,0.00000265,-0.00000451,-0.
 00000225,-0.00000292,-0.00000192,-0.00000229,-0.00000271,0.00000016,-0
 .00000083,0.00000121,-0.00000781,0.00000341\\\@


 "TIGER, TIGER BURNING BRIGHT
 IN THE FOREST OF THE NIGHT.
 WHAT IMMORTAL HAND OR EYE
 CAN FRAME THY FEARFUL SYMMETRYE?"
                     - WILLIAM BLAKE
 Job cpu time:       0 days  0 hours  4 minutes 25.8 seconds.
 Elapsed time:       0 days  0 hours  0 minutes 16.8 seconds.
 File lengths (MBytes):  RWF=     27 Int=      0 D2E=      0 Chk=      3 Scr=      1
 Normal termination of Gaussian 16 at Wed Dec 23 22:06:09 2020.
