 Entering Gaussian System, Link 0=g16
 Initial command:
 /apps/cent7/gaussian/g16-B.01/g16-haswell/g16/l1.exe "/scratch/bell/zhao922/YARP/paper-example/KHP-network/pp_0/TS-folder/Gau-3501.inp" -scrdir="/scratch/bell/zhao922/YARP/paper-example/KHP-network/pp_0/TS-folder/"
 Entering Link 1 = /apps/cent7/gaussian/g16-B.01/g16-haswell/g16/l1.exe PID=      3503.
  
 Copyright (c) 1988-2017, Gaussian, Inc.  All Rights Reserved.
  
 This is part of the Gaussian(R) 16 program.  It is based on
 the Gaussian(R) 09 system (copyright 2009, Gaussian, Inc.),
 the Gaussian(R) 03 system (copyright 2003, Gaussian, Inc.),
 the Gaussian(R) 98 system (copyright 1998, Gaussian, Inc.),
 the Gaussian(R) 94 system (copyright 1995, Gaussian, Inc.),
 the Gaussian 92(TM) system (copyright 1992, Gaussian, Inc.),
 the Gaussian 90(TM) system (copyright 1990, Gaussian, Inc.),
 the Gaussian 88(TM) system (copyright 1988, Gaussian, Inc.),
 the Gaussian 86(TM) system (copyright 1986, Carnegie Mellon
 University), and the Gaussian 82(TM) system (copyright 1983,
 Carnegie Mellon University). Gaussian is a federally registered
 trademark of Gaussian, Inc.
  
 This software contains proprietary and confidential information,
 including trade secrets, belonging to Gaussian, Inc.
  
 This software is provided under written license and may be
 used, copied, transmitted, or stored only in accord with that
 written license.
  
 The following legend is applicable only to US Government
 contracts under FAR:
  
                    RESTRICTED RIGHTS LEGEND
  
 Use, reproduction and disclosure by the US Government is
 subject to restrictions as set forth in subparagraphs (a)
 and (c) of the Commercial Computer Software - Restricted
 Rights clause in FAR 52.227-19.
  
 Gaussian, Inc.
 340 Quinnipiac St., Bldg. 40, Wallingford CT 06492
  
  
 ---------------------------------------------------------------
 Warning -- This program may not be used in any manner that
 competes with the business of Gaussian, Inc. or will provide
 assistance to any competitor of Gaussian, Inc.  The licensee
 of this program is prohibited from giving any competitor of
 Gaussian, Inc. access to this program.  By using this program,
 the user acknowledges that Gaussian, Inc. is engaged in the
 business of creating and licensing software in the field of
 computational chemistry and represents and warrants to the
 licensee that it is not a competitor of Gaussian, Inc. and that
 it will not use this program in any manner prohibited above.
 ---------------------------------------------------------------
  

 Cite this work as:
 Gaussian 16, Revision B.01,
 M. J. Frisch, G. W. Trucks, H. B. Schlegel, G. E. Scuseria, 
 M. A. Robb, J. R. Cheeseman, G. Scalmani, V. Barone, 
 G. A. Petersson, H. Nakatsuji, X. Li, M. Caricato, A. V. Marenich, 
 J. Bloino, B. G. Janesko, R. Gomperts, B. Mennucci, H. P. Hratchian, 
 J. V. Ortiz, A. F. Izmaylov, J. L. Sonnenberg, D. Williams-Young, 
 F. Ding, F. Lipparini, F. Egidi, J. Goings, B. Peng, A. Petrone, 
 T. Henderson, D. Ranasinghe, V. G. Zakrzewski, J. Gao, N. Rega, 
 G. Zheng, W. Liang, M. Hada, M. Ehara, K. Toyota, R. Fukuda, 
 J. Hasegawa, M. Ishida, T. Nakajima, Y. Honda, O. Kitao, H. Nakai, 
 T. Vreven, K. Throssell, J. A. Montgomery, Jr., J. E. Peralta, 
 F. Ogliaro, M. J. Bearpark, J. J. Heyd, E. N. Brothers, K. N. Kudin, 
 V. N. Staroverov, T. A. Keith, R. Kobayashi, J. Normand, 
 K. Raghavachari, A. P. Rendell, J. C. Burant, S. S. Iyengar, 
 J. Tomasi, M. Cossi, J. M. Millam, M. Klene, C. Adamo, R. Cammi, 
 J. W. Ochterski, R. L. Martin, K. Morokuma, O. Farkas, 
 J. B. Foresman, and D. J. Fox, Gaussian, Inc., Wallingford CT, 2016.
 
 ******************************************
 Gaussian 16:  ES64L-G16RevB.01 20-Dec-2017
                23-Dec-2020 
 ******************************************
 %NProcShared=16
 Will use up to   16 processors via shared memory.
 %Mem=6GB
 --------------------------------------------------------------
 # B3LYP/6-31+G* OPT=(TS, CALCALL, NOEIGEN, maxcycles=100) Freq
 --------------------------------------------------------------
 1/5=1,6=100,10=4,11=1,18=20,26=3,38=1/1,3;
 2/9=110,12=2,17=6,18=5,40=1/2;
 3/5=1,6=6,7=11,11=2,25=1,30=1,71=2,74=-5,140=1/1,2,3;
 4//1;
 5/5=2,38=5/2;
 8/6=4,10=90,11=11/1;
 11/6=1,8=1,9=11,15=111,16=1/1,2,10;
 10/6=1/2;
 6/7=2,8=2,9=2,10=2,18=1,28=1/1;
 7/10=1,25=1/1,2,3,16;
 1/5=1,6=100,10=4,11=1,18=20,26=3/3(3);
 2/9=110/2;
 7/8=1,9=1,25=1,44=-1/16;
 99//99;
 2/9=110/2;
 3/5=1,6=6,7=11,11=2,25=1,30=1,71=2,74=-5,140=1/1,2,3;
 4/5=5,16=3,69=1/1;
 5/5=2,38=5/2;
 8/6=4,10=90,11=11/1;
 11/6=1,8=1,9=11,15=111,16=1/1,2,10;
 10/6=1/2;
 7/10=1,25=1/1,2,3,16;
 1/5=1,6=100,10=4,11=1,18=20,26=3/3(-8);
 2/9=110/2;
 6/7=2,8=2,9=2,10=2,18=1,19=2,28=1/1;
 7/8=1,9=1,25=1,44=-1/16;
 99//99;
 ---------
 pp_9_0 TS
 ---------
 Symbolic Z-matrix:
 Charge =  0 Multiplicity = 1
 C                     2.09326   1.6326   -2.40194 
 C                     1.45589   0.55306  -1.58904 
 C                     0.87037   0.02951  -0.32019 
 O                    -0.07026   1.73322  -2.36858 
 O                    -0.33272   2.67157  -1.38579 
 O                     1.55325  -0.394     0.56782 
 H                    -1.01898   3.23018  -1.78374 
 H                     2.6965    1.07496  -3.10457 
 H                     2.41784   2.60411  -2.06422 
 H                    -0.22476   0.0287   -0.28001 
 H                     1.08378   0.02685  -2.5105 
 H                     2.5944    0.65952  -1.19614 
 
 Add virtual bond connecting atoms C1         and O4         Dist= 4.09D+00.
 Add virtual bond connecting atoms C2         and O4         Dist= 3.93D+00.
 Add virtual bond connecting atoms H11        and O4         Dist= 3.90D+00.

 GradGradGradGradGradGradGradGradGradGradGradGradGradGradGradGradGradGrad
 Berny optimization.
 Initialization pass.
                           ----------------------------
                           !    Initial Parameters    !
                           ! (Angstroms and Degrees)  !
 --------------------------                            --------------------------
 ! Name  Definition              Value          Derivative Info.                !
 --------------------------------------------------------------------------------
 ! R1    R(1,2)                  1.4941         calculate D2E/DX2 analytically  !
 ! R2    R(1,4)                  2.1661         calculate D2E/DX2 analytically  !
 ! R3    R(1,8)                  1.081          calculate D2E/DX2 analytically  !
 ! R4    R(1,9)                  1.0785         calculate D2E/DX2 analytically  !
 ! R5    R(2,3)                  1.4923         calculate D2E/DX2 analytically  !
 ! R6    R(2,4)                  2.0808         calculate D2E/DX2 analytically  !
 ! R7    R(2,11)                 1.1245         calculate D2E/DX2 analytically  !
 ! R8    R(2,12)                 1.2091         calculate D2E/DX2 analytically  !
 ! R9    R(3,6)                  1.1976         calculate D2E/DX2 analytically  !
 ! R10   R(3,10)                 1.0959         calculate D2E/DX2 analytically  !
 ! R11   R(4,5)                  1.3839         calculate D2E/DX2 analytically  !
 ! R12   R(4,11)                 2.0649         calculate D2E/DX2 analytically  !
 ! R13   R(5,7)                  0.9702         calculate D2E/DX2 analytically  !
 ! A1    A(2,1,8)              102.6479         calculate D2E/DX2 analytically  !
 ! A2    A(2,1,9)              127.5051         calculate D2E/DX2 analytically  !
 ! A3    A(4,1,8)              126.2527         calculate D2E/DX2 analytically  !
 ! A4    A(4,1,9)              104.7099         calculate D2E/DX2 analytically  !
 ! A5    A(8,1,9)              120.0171         calculate D2E/DX2 analytically  !
 ! A6    A(1,2,3)              152.0623         calculate D2E/DX2 analytically  !
 ! A7    A(1,2,11)              91.9164         calculate D2E/DX2 analytically  !
 ! A8    A(1,2,12)              73.232          calculate D2E/DX2 analytically  !
 ! A9    A(3,2,4)              103.2824         calculate D2E/DX2 analytically  !
 ! A10   A(3,2,11)             113.7498         calculate D2E/DX2 analytically  !
 ! A11   A(3,2,12)              97.1256         calculate D2E/DX2 analytically  !
 ! A12   A(4,2,12)             139.6798         calculate D2E/DX2 analytically  !
 ! A13   A(11,2,12)            128.2497         calculate D2E/DX2 analytically  !
 ! A14   A(2,3,6)              122.06           calculate D2E/DX2 analytically  !
 ! A15   A(2,3,10)             115.0578         calculate D2E/DX2 analytically  !
 ! A16   A(6,3,10)             122.8457         calculate D2E/DX2 analytically  !
 ! A17   A(1,4,5)              103.4061         calculate D2E/DX2 analytically  !
 ! A18   A(1,4,11)              53.2969         calculate D2E/DX2 analytically  !
 ! A19   A(2,4,5)              104.9286         calculate D2E/DX2 analytically  !
 ! A20   A(5,4,11)             135.6531         calculate D2E/DX2 analytically  !
 ! A21   A(4,5,7)              103.488          calculate D2E/DX2 analytically  !
 ! D1    D(8,1,2,3)            150.3266         calculate D2E/DX2 analytically  !
 ! D2    D(8,1,2,11)           -52.2752         calculate D2E/DX2 analytically  !
 ! D3    D(8,1,2,12)            77.283          calculate D2E/DX2 analytically  !
 ! D4    D(9,1,2,3)              5.3906         calculate D2E/DX2 analytically  !
 ! D5    D(9,1,2,11)           162.7887         calculate D2E/DX2 analytically  !
 ! D6    D(9,1,2,12)           -67.653          calculate D2E/DX2 analytically  !
 ! D7    D(8,1,4,5)           -173.9522         calculate D2E/DX2 analytically  !
 ! D8    D(8,1,4,11)            48.3789         calculate D2E/DX2 analytically  !
 ! D9    D(9,1,4,5)            -27.4525         calculate D2E/DX2 analytically  !
 ! D10   D(9,1,4,11)          -165.1214         calculate D2E/DX2 analytically  !
 ! D11   D(1,2,3,6)            -82.2906         calculate D2E/DX2 analytically  !
 ! D12   D(1,2,3,10)            99.8499         calculate D2E/DX2 analytically  !
 ! D13   D(4,2,3,6)           -159.9095         calculate D2E/DX2 analytically  !
 ! D14   D(4,2,3,10)            22.231          calculate D2E/DX2 analytically  !
 ! D15   D(11,2,3,6)           122.5218         calculate D2E/DX2 analytically  !
 ! D16   D(11,2,3,10)          -55.3377         calculate D2E/DX2 analytically  !
 ! D17   D(12,2,3,6)           -14.9242         calculate D2E/DX2 analytically  !
 ! D18   D(12,2,3,10)          167.2164         calculate D2E/DX2 analytically  !
 ! D19   D(3,2,4,5)             57.9139         calculate D2E/DX2 analytically  !
 ! D20   D(12,2,4,5)           -60.4544         calculate D2E/DX2 analytically  !
 ! D21   D(1,4,5,7)            135.3391         calculate D2E/DX2 analytically  !
 ! D22   D(2,4,5,7)            177.7992         calculate D2E/DX2 analytically  !
 ! D23   D(11,4,5,7)          -174.0913         calculate D2E/DX2 analytically  !
 --------------------------------------------------------------------------------
 Trust Radius=3.00D-01 FncErr=1.00D-07 GrdErr=1.00D-06 EigMax=2.50D+02 EigMin=1.00D-04
 Number of steps in this run=    100 maximum allowed number of steps=    100.
 Search for a saddle point of order  1.
 GradGradGradGradGradGradGradGradGradGradGradGradGradGradGradGradGradGrad

                          Input orientation:                          
 ---------------------------------------------------------------------
 Center     Atomic      Atomic             Coordinates (Angstroms)
 Number     Number       Type             X           Y           Z
 ---------------------------------------------------------------------
      1          6           0        2.093259    1.632604   -2.401943
      2          6           0        1.455889    0.553060   -1.589041
      3          6           0        0.870372    0.029513   -0.320190
      4          8           0       -0.070259    1.733218   -2.368578
      5          8           0       -0.332716    2.671571   -1.385791
      6          8           0        1.553254   -0.393998    0.567816
      7          1           0       -1.018982    3.230179   -1.783744
      8          1           0        2.696499    1.074963   -3.104567
      9          1           0        2.417841    2.604106   -2.064217
     10          1           0       -0.224764    0.028695   -0.280014
     11          1           0        1.083778    0.026848   -2.510501
     12          1           0        2.594404    0.659519   -1.196136
 ---------------------------------------------------------------------
                    Distance matrix (angstroms):
                    1          2          3          4          5
     1  C    0.000000
     2  C    1.494144   0.000000
     3  C    2.898111   1.492285   0.000000
     4  O    2.166113   2.080764   2.825472   0.000000
     5  O    2.827963   2.780019   3.092474   1.383929   0.000000
     6  O    3.635683   2.357632   1.197599   3.972814   4.095263
     7  H    3.552529   3.651008   3.994485   1.866279   0.970243
     8  H    1.080991   2.026898   3.490052   2.937674   3.831382
     9  H    1.078531   2.314721   3.473445   2.653625   2.833792
    10  H    3.528220   2.193879   1.095873   2.700254   2.866913
    11  H    1.899813   1.124480   2.200684   2.064859   3.204058
    12  H    1.628500   1.209101   2.033833   3.102882   3.557015
                    6          7          8          9         10
     6  O    0.000000
     7  H    5.028011   0.000000
     8  H    4.117190   4.493810   0.000000
     9  H    4.082124   3.504623   1.870363   0.000000
    10  H    2.014655   3.625119   4.196016   4.098717   0.000000
    11  H    3.142221   3.900142   2.013040   2.936180   2.585993
    12  H    2.303349   4.473269   1.955793   2.136857   3.030664
                   11         12
    11  H    0.000000
    12  H    2.099957   0.000000
 Stoichiometry    C3H6O3
 Framework group  C1[X(C3H6O3)]
 Deg. of freedom    30
 Full point group                 C1      NOp   1
 Largest Abelian subgroup         C1      NOp   1
 Largest concise Abelian subgroup C1      NOp   1
                         Standard orientation:                         
 ---------------------------------------------------------------------
 Center     Atomic      Atomic             Coordinates (Angstroms)
 Number     Number       Type             X           Y           Z
 ---------------------------------------------------------------------
      1          6           0        0.588798    1.573257   -0.311137
      2          6           0       -0.426197    0.656052    0.289684
      3          6           0       -1.335443   -0.525647    0.228257
      4          8           0        1.446821   -0.197287    0.594964
      5          8           0        1.628890   -1.051140   -0.478836
      6          8           0       -2.419615   -0.467941   -0.277198
      7          1           0        2.519222   -1.408915   -0.335042
      8          1           0        0.384437    2.510917    0.186429
      9          1           0        0.959262    1.569472   -1.324039
     10          1           0       -0.951842   -1.431989    0.710266
     11          1           0       -0.114620    0.933945    1.333786
     12          1           0       -1.008179    1.335534   -0.523658
 ---------------------------------------------------------------------
 Rotational constants (GHZ):           5.4205941           2.2510921           1.7909124
 Standard basis: 6-31+G(d) (6D, 7F)
 There are   126 symmetry adapted cartesian basis functions of A   symmetry.
 There are   126 symmetry adapted basis functions of A   symmetry.
   126 basis functions,   216 primitive gaussians,   126 cartesian basis functions
    24 alpha electrons       24 beta electrons
       nuclear repulsion energy       234.3319559826 Hartrees.
 NAtoms=   12 NActive=   12 NUniq=   12 SFac= 1.00D+00 NAtFMM=   60 NAOKFM=F Big=F
 Integral buffers will be    131072 words long.
 Raffenetti 2 integral format.
 Two-electron integral symmetry is turned on.
 One-electron integrals computed using PRISM.
 NBasis=   126 RedAO= T EigKep=  6.81D-05  NBF=   126
 NBsUse=   126 1.00D-06 EigRej= -1.00D+00 NBFU=   126
 ExpMin= 4.38D-02 ExpMax= 5.48D+03 ExpMxC= 8.25D+02 IAcc=3 IRadAn=         5 AccDes= 0.00D+00
 Harris functional with IExCor=  402 and IRadAn=       5 diagonalized for initial guess.
 HarFok:  IExCor=  402 AccDes= 0.00D+00 IRadAn=         5 IDoV= 1 UseB2=F ITyADJ=14
 ICtDFT=  3500011 ScaDFX=  1.000000  1.000000  1.000000  1.000000
 FoFCou: FMM=F IPFlag=           0 FMFlag=      100000 FMFlg1=           0
         NFxFlg=           0 DoJE=T BraDBF=F KetDBF=T FulRan=T
         wScrn=  0.000000 ICntrl=       500 IOpCl=  0 I1Cent=   200000004 NGrid=           0
         NMat0=    1 NMatS0=      1 NMatT0=    0 NMatD0=    1 NMtDS0=    0 NMtDT0=    0
 Petite list used in FoFCou.
 Keep R1 ints in memory in canonical form, NReq=47237561.
 Requested convergence on RMS density matrix=1.00D-08 within 128 cycles.
 Requested convergence on MAX density matrix=1.00D-06.
 Requested convergence on             energy=1.00D-06.
 No special actions if energy rises.
 SCF Done:  E(RB3LYP) =  -343.280316560     A.U. after   16 cycles
            NFock= 16  Conv=0.43D-08     -V/T= 2.0085
 DoSCS=F DFT=T ScalE2(SS,OS)=  1.000000  1.000000
 Range of M.O.s used for correlation:     1   126
 NBasis=   126 NAE=    24 NBE=    24 NFC=     0 NFV=     0
 NROrb=    126 NOA=    24 NOB=    24 NVA=   102 NVB=   102

 **** Warning!!: The largest alpha MO coefficient is  0.48463392D+02

 Symmetrizing basis deriv contribution to polar:
 IMax=3 JMax=2 DiffMx= 0.00D+00
 G2DrvN: will do    13 centers at a time, making    1 passes.
 Calling FoFCou, ICntrl=  3107 FMM=F I1Cent=   0 AccDes= 0.00D+00.
 End of G2Drv F.D. properties file   721 does not exist.
 End of G2Drv F.D. properties file   722 does not exist.
 End of G2Drv F.D. properties file   788 does not exist.
          IDoAtm=111111111111
          Differentiating once with respect to electric field.
                with respect to dipole field.
          Differentiating once with respect to nuclear coordinates.
 Keep R1 ints in memory in canonical form, NReq=47193576.
          There are    39 degrees of freedom in the 1st order CPHF.  IDoFFX=6 NUNeed=     3.
     36 vectors produced by pass  0 Test12= 6.28D-15 2.56D-09 XBig12= 1.19D+02 7.46D+00.
 AX will form    36 AO Fock derivatives at one time.
     36 vectors produced by pass  1 Test12= 6.28D-15 2.56D-09 XBig12= 4.80D+01 1.56D+00.
     36 vectors produced by pass  2 Test12= 6.28D-15 2.56D-09 XBig12= 8.56D-01 1.42D-01.
     36 vectors produced by pass  3 Test12= 6.28D-15 2.56D-09 XBig12= 2.05D-03 5.41D-03.
     36 vectors produced by pass  4 Test12= 6.28D-15 2.56D-09 XBig12= 2.93D-06 2.30D-04.
     31 vectors produced by pass  5 Test12= 6.28D-15 2.56D-09 XBig12= 3.48D-09 7.39D-06.
      5 vectors produced by pass  6 Test12= 6.28D-15 2.56D-09 XBig12= 3.48D-12 2.57D-07.
      3 vectors produced by pass  7 Test12= 6.28D-15 2.56D-09 XBig12= 3.38D-15 7.67D-09.
 InvSVY:  IOpt=1 It=  1 EMax= 3.55D-15
 Solved reduced A of dimension   219 with    39 vectors.
 Isotropic polarizability for W=    0.000000       63.94 Bohr**3.
 End of Minotr F.D. properties file   721 does not exist.
 End of Minotr F.D. properties file   722 does not exist.
 End of Minotr F.D. properties file   788 does not exist.

 **********************************************************************

            Population analysis using the SCF Density.

 **********************************************************************

 Orbital symmetries:
       Occupied  (A) (A) (A) (A) (A) (A) (A) (A) (A) (A) (A) (A)
                 (A) (A) (A) (A) (A) (A) (A) (A) (A) (A) (A) (A)
       Virtual   (A) (A) (A) (A) (A) (A) (A) (A) (A) (A) (A) (A)
                 (A) (A) (A) (A) (A) (A) (A) (A) (A) (A) (A) (A)
                 (A) (A) (A) (A) (A) (A) (A) (A) (A) (A) (A) (A)
                 (A) (A) (A) (A) (A) (A) (A) (A) (A) (A) (A) (A)
                 (A) (A) (A) (A) (A) (A) (A) (A) (A) (A) (A) (A)
                 (A) (A) (A) (A) (A) (A) (A) (A) (A) (A) (A) (A)
                 (A) (A) (A) (A) (A) (A) (A) (A) (A) (A) (A) (A)
                 (A) (A) (A) (A) (A) (A) (A) (A) (A) (A) (A) (A)
                 (A) (A) (A) (A) (A) (A)
 The electronic state is 1-A.
 Alpha  occ. eigenvalues --  -19.21006 -19.17421 -19.17345 -10.29883 -10.29284
 Alpha  occ. eigenvalues --  -10.25541  -1.11366  -1.07769  -0.86056  -0.80732
 Alpha  occ. eigenvalues --   -0.69862  -0.58712  -0.54768  -0.50870  -0.49209
 Alpha  occ. eigenvalues --   -0.47903  -0.45439  -0.42618  -0.40079  -0.39389
 Alpha  occ. eigenvalues --   -0.34115  -0.28165  -0.24317  -0.21953
 Alpha virt. eigenvalues --   -0.10264  -0.05545   0.00149   0.01756   0.02545
 Alpha virt. eigenvalues --    0.03642   0.04375   0.05093   0.06009   0.07723
 Alpha virt. eigenvalues --    0.08280   0.10541   0.11476   0.11927   0.13800
 Alpha virt. eigenvalues --    0.16786   0.16928   0.17673   0.17727   0.20204
 Alpha virt. eigenvalues --    0.21368   0.21697   0.23412   0.24125   0.25337
 Alpha virt. eigenvalues --    0.26266   0.28046   0.28707   0.29721   0.30652
 Alpha virt. eigenvalues --    0.32149   0.32985   0.34466   0.37243   0.40205
 Alpha virt. eigenvalues --    0.48389   0.61786   0.66402   0.67325   0.68112
 Alpha virt. eigenvalues --    0.75014   0.76169   0.76528   0.81160   0.86039
 Alpha virt. eigenvalues --    0.92259   0.94838   0.96189   1.00722   1.03439
 Alpha virt. eigenvalues --    1.04117   1.07496   1.09428   1.11494   1.13093
 Alpha virt. eigenvalues --    1.17214   1.22122   1.22791   1.25068   1.27041
 Alpha virt. eigenvalues --    1.28334   1.29639   1.35399   1.45742   1.50120
 Alpha virt. eigenvalues --    1.51217   1.57333   1.58860   1.60946   1.65927
 Alpha virt. eigenvalues --    1.66885   1.71543   1.77880   1.78524   1.82572
 Alpha virt. eigenvalues --    1.87753   1.92905   1.97295   2.02335   2.04807
 Alpha virt. eigenvalues --    2.10208   2.11699   2.16020   2.24428   2.25934
 Alpha virt. eigenvalues --    2.37411   2.44420   2.45528   2.47786   2.51234
 Alpha virt. eigenvalues --    2.55604   2.63445   2.76131   2.98168   3.08841
 Alpha virt. eigenvalues --    3.13114   3.98832   4.12527   4.15109   4.23098
 Alpha virt. eigenvalues --    4.34499   4.52685
          Condensed to atoms (all electrons):
               1          2          3          4          5          6
     1  C    5.963160  -0.064536  -0.132801   0.061218  -0.029005  -0.029338
     2  C   -0.064536   6.389058  -0.075932  -0.329900   0.076495  -0.137444
     3  C   -0.132801  -0.075932   5.234702  -0.024153  -0.012463   0.499123
     4  O    0.061218  -0.329900  -0.024153   8.540536  -0.017447  -0.003964
     5  O   -0.029005   0.076495  -0.012463  -0.017447   8.404674   0.000770
     6  O   -0.029338  -0.137444   0.499123  -0.003964   0.000770   8.088337
     7  H   -0.007737   0.001624  -0.000743  -0.041196   0.192286  -0.000042
     8  H    0.314178  -0.005025   0.000389   0.007217   0.001235  -0.000382
     9  H    0.381507  -0.038623  -0.003461  -0.016801   0.002863   0.000654
    10  H    0.000093  -0.192471   0.482527   0.004332   0.000881  -0.068642
    11  H   -0.132288   0.454458   0.000869  -0.049802   0.002351   0.000247
    12  H    0.032355   0.071592   0.002709   0.056321  -0.010839  -0.005276
               7          8          9         10         11         12
     1  C   -0.007737   0.314178   0.381507   0.000093  -0.132288   0.032355
     2  C    0.001624  -0.005025  -0.038623  -0.192471   0.454458   0.071592
     3  C   -0.000743   0.000389  -0.003461   0.482527   0.000869   0.002709
     4  O   -0.041196   0.007217  -0.016801   0.004332  -0.049802   0.056321
     5  O    0.192286   0.001235   0.002863   0.000881   0.002351  -0.010839
     6  O   -0.000042  -0.000382   0.000654  -0.068642   0.000247  -0.005276
     7  H    0.367690   0.000015  -0.000223   0.000064  -0.000285   0.000095
     8  H    0.000015   0.506344  -0.033470  -0.000151  -0.018366  -0.009613
     9  H   -0.000223  -0.033470   0.447530   0.000050   0.005759   0.000226
    10  H    0.000064  -0.000151   0.000050   0.569493   0.002178   0.005156
    11  H   -0.000285  -0.018366   0.005759   0.002178   0.479707  -0.005922
    12  H    0.000095  -0.009613   0.000226   0.005156  -0.005922   0.681772
 Mulliken charges:
               1
     1  C   -0.356806
     2  C   -0.149294
     3  C    0.029233
     4  O   -0.186362
     5  O   -0.611802
     6  O   -0.344042
     7  H    0.488452
     8  H    0.237628
     9  H    0.253988
    10  H    0.196491
    11  H    0.261094
    12  H    0.181422
 Sum of Mulliken charges =  -0.00000
 Mulliken charges with hydrogens summed into heavy atoms:
               1
     1  C    0.134810
     2  C    0.293221
     3  C    0.225724
     4  O   -0.186362
     5  O   -0.123350
     6  O   -0.344042
 APT charges:
               1
     1  C    0.506289
     2  C   -0.264140
     3  C    0.814621
     4  O   -0.229957
     5  O   -0.481755
     6  O   -0.636500
     7  H    0.276244
     8  H    0.004381
     9  H    0.039901
    10  H   -0.029151
    11  H    0.089179
    12  H   -0.089111
 Sum of APT charges =  -0.00000
 APT charges with hydrogens summed into heavy atoms:
               1
     1  C    0.550571
     2  C   -0.264073
     3  C    0.785471
     4  O   -0.229957
     5  O   -0.205511
     6  O   -0.636500
 Electronic spatial extent (au):  <R**2>=            669.3825
 Charge=             -0.0000 electrons
 Dipole moment (field-independent basis, Debye):
    X=              2.2019    Y=              2.2089    Z=             -0.0117  Tot=              3.1189
 Quadrupole moment (field-independent basis, Debye-Ang):
   XX=            -43.0415   YY=            -30.4373   ZZ=            -36.1709
   XY=             -2.2551   XZ=             -4.4358   YZ=             -1.2619
 Traceless Quadrupole moment (field-independent basis, Debye-Ang):
   XX=             -6.4915   YY=              6.1126   ZZ=              0.3790
   XY=             -2.2551   XZ=             -4.4358   YZ=             -1.2619
 Octapole moment (field-independent basis, Debye-Ang**2):
  XXX=             45.2092  YYY=             -1.1862  ZZZ=             -1.4350  XYY=             10.3035
  XXY=            -10.3681  XXZ=             -1.9494  XZZ=             -0.3370  YZZ=              0.8177
  YYZ=              0.0566  XYZ=              1.1662
 Hexadecapole moment (field-independent basis, Debye-Ang**3):
 XXXX=           -519.8277 YYYY=           -225.2946 ZZZZ=            -83.6057 XXXY=            -52.5254
 XXXZ=            -24.2656 YYYX=             -7.8668 YYYZ=              2.6498 ZZZX=             -2.7619
 ZZZY=              1.2817 XXYY=           -110.7306 XXZZ=           -102.2917 YYZZ=            -52.5630
 XXYZ=              0.1718 YYXZ=             -3.6444 ZZXY=              2.6361
 N-N= 2.343319559826D+02 E-N=-1.273352519806D+03  KE= 3.403876798196D+02
  Exact polarizability:  74.643  -9.642  72.099   4.145  -4.573  45.083
 Approx polarizability: 118.605 -32.850 133.202  19.122 -17.533  71.791
 Calling FoFJK, ICntrl=    100127 FMM=F ISym2X=0 I1Cent= 0 IOpClX= 0 NMat=1 NMatS=1 NMatT=0.
 ***** Axes restored to original set *****
 -------------------------------------------------------------------
 Center     Atomic                   Forces (Hartrees/Bohr)
 Number     Number              X              Y              Z
 -------------------------------------------------------------------
      1        6          -0.037735980   -0.010588183    0.038870481
      2        6           0.050475635    0.012291114   -0.030136635
      3        6          -0.029446675    0.034304464   -0.009443917
      4        8          -0.007796725    0.009652426   -0.033979022
      5        8          -0.004963082    0.012560751    0.015286229
      6        8           0.014733522   -0.009710990    0.020134190
      7        1          -0.002603995    0.002577534   -0.000728006
      8        1          -0.000247587    0.015468934   -0.020681881
      9        1          -0.001621920    0.006318716    0.004750207
     10        1          -0.006455689   -0.005396850    0.000286868
     11        1           0.015804366   -0.026843129    0.027904922
     12        1           0.009858132   -0.040634787   -0.012263436
 -------------------------------------------------------------------
 Cartesian Forces:  Max     0.050475635 RMS     0.020878879
 FormGI is forming the generalized inverse of G from B-inverse, IUseBI=4.

 GradGradGradGradGradGradGradGradGradGradGradGradGradGradGradGradGradGrad
 Berny optimization.
 Internal  Forces:  Max     0.031017727 RMS     0.012120350
 Search for a saddle point.
 Step number   1 out of a maximum of  100
 All quantities printed in internal units (Hartrees-Bohrs-Radians)
 Swapping is turned off.
 Second derivative matrix not updated -- analytic derivatives used.
 ITU=  0
     Eigenvalues ---   -0.09152  -0.00465   0.00056   0.00267   0.00660
     Eigenvalues ---    0.00954   0.01012   0.01887   0.02241   0.02703
     Eigenvalues ---    0.03785   0.04200   0.04527   0.05483   0.06311
     Eigenvalues ---    0.07752   0.13091   0.13752   0.16555   0.18687
     Eigenvalues ---    0.22327   0.24478   0.27228   0.30017   0.33906
     Eigenvalues ---    0.37353   0.38675   0.39465   0.49814   0.95713
 Eigenvectors required to have negative eigenvalues:
                          R2        R6        A8        A9        D11
   1                    0.56781  -0.33317  -0.29736  -0.24159   0.21519
                          D12       D4        R8        A11       D8
   1                    0.20986  -0.20156   0.19684   0.17227  -0.15531
 RFO step:  Lambda0=1.365485306D-02 Lambda=-5.76766289D-02.
 Linear search not attempted -- option 19 set.
 Maximum step size (   0.300) exceeded in Quadratic search.
    -- Step size scaled by   0.308
 Iteration  1 RMS(Cart)=  0.10950392 RMS(Int)=  0.00455254
 Iteration  2 RMS(Cart)=  0.00572786 RMS(Int)=  0.00259327
 Iteration  3 RMS(Cart)=  0.00003798 RMS(Int)=  0.00259320
 Iteration  4 RMS(Cart)=  0.00000029 RMS(Int)=  0.00259320
 Variable       Old X    -DE/DX   Delta X   Delta X   Delta X     New X
                                 (Linear)    (Quad)   (Total)
    R1        2.82352  -0.01763   0.00000  -0.05196  -0.04924   2.77428
    R2        4.09336  -0.00804   0.00000   0.16210   0.15660   4.24996
    R3        2.04278   0.00533   0.00000   0.00514   0.00514   2.04792
    R4        2.03813   0.00669   0.00000   0.00359   0.00359   2.04172
    R5        2.82001   0.01091   0.00000   0.01926   0.01926   2.83927
    R6        3.93207   0.01654   0.00000  -0.04891  -0.04408   3.88799
    R7        2.12496  -0.01227   0.00000  -0.02052  -0.01990   2.10506
    R8        2.28487   0.00172   0.00000   0.02849   0.02849   2.31336
    R9        2.26313   0.02676   0.00000   0.00734   0.00734   2.27048
   R10        2.07090   0.00647   0.00000   0.00020   0.00020   2.07110
   R11        2.61525   0.02204   0.00000   0.02283   0.02283   2.63807
   R12        3.90202   0.02019   0.00000   0.05696   0.05590   3.95792
   R13        1.83349   0.00362   0.00000   0.00099   0.00099   1.83449
    A1        1.79154  -0.00297   0.00000   0.04295   0.04222   1.83377
    A2        2.22538   0.00594   0.00000  -0.00893  -0.00961   2.21577
    A3        2.20353  -0.00985   0.00000   0.02402   0.02586   2.22939
    A4        1.82753   0.00126   0.00000  -0.01097  -0.01326   1.81427
    A5        2.09469  -0.00052   0.00000  -0.00756  -0.00749   2.08720
    A6        2.65399  -0.03102   0.00000  -0.12458  -0.12626   2.52773
    A7        1.60424   0.02792   0.00000   0.08767   0.08797   1.69221
    A8        1.27814   0.01272   0.00000  -0.00543  -0.00407   1.27407
    A9        1.80262  -0.00243   0.00000  -0.13632  -0.14045   1.66217
   A10        1.98531  -0.00045   0.00000   0.01898   0.01851   2.00382
   A11        1.69516  -0.01180   0.00000   0.00174   0.00961   1.70478
   A12        2.43787   0.01974   0.00000   0.08075   0.07960   2.51747
   A13        2.23838  -0.00711   0.00000  -0.02963  -0.03337   2.20501
   A14        2.13035  -0.00054   0.00000  -0.00944  -0.00944   2.12091
   A15        2.00814   0.00244   0.00000   0.00746   0.00746   2.01559
   A16        2.14406  -0.00198   0.00000   0.00211   0.00211   2.14617
   A17        1.80478  -0.00858   0.00000  -0.00867  -0.00709   1.79769
   A18        0.93021   0.00577   0.00000  -0.00302  -0.00289   0.92731
   A19        1.83135   0.00146   0.00000  -0.00604  -0.00488   1.82647
   A20        2.36759  -0.00630   0.00000  -0.01659  -0.01726   2.35033
   A21        1.80621   0.00166   0.00000  -0.00227  -0.00227   1.80394
    D1        2.62369   0.01064   0.00000   0.06505   0.06506   2.68875
    D2       -0.91237   0.00440   0.00000   0.02363   0.02488  -0.88750
    D3        1.34884  -0.01592   0.00000  -0.03863  -0.03830   1.31054
    D4        0.09408   0.00776   0.00000   0.02191   0.02215   0.11623
    D5        2.84120   0.00152   0.00000  -0.01951  -0.01803   2.82317
    D6       -1.18077  -0.01880   0.00000  -0.08177  -0.08121  -1.26198
    D7       -3.03604   0.01967   0.00000   0.00093  -0.00018  -3.03622
    D8        0.84437   0.02348   0.00000   0.01428   0.01546   0.85983
    D9       -0.47914   0.00519   0.00000   0.00482   0.00282  -0.47632
   D10       -2.88191   0.00900   0.00000   0.01818   0.01845  -2.86346
   D11       -1.43624  -0.01050   0.00000  -0.05799  -0.05319  -1.48943
   D12        1.74271  -0.00815   0.00000  -0.06189  -0.05709   1.68562
   D13       -2.79095  -0.00017   0.00000  -0.00526  -0.01258  -2.80353
   D14        0.38800   0.00219   0.00000  -0.00916  -0.01649   0.37152
   D15        2.13841  -0.00410   0.00000  -0.00949  -0.00768   2.13073
   D16       -0.96582  -0.00174   0.00000  -0.01339  -0.01159  -0.97741
   D17       -0.26048   0.01457   0.00000   0.01443   0.01515  -0.24533
   D18        2.91848   0.01693   0.00000   0.01052   0.01124   2.92972
   D19        1.01079  -0.01581   0.00000  -0.09562  -0.09657   0.91422
   D20       -1.05513  -0.00897   0.00000   0.02816   0.03373  -1.02139
   D21        2.36211   0.00133   0.00000   0.04272   0.04196   2.40407
   D22        3.10318  -0.00510   0.00000   0.01292   0.01207   3.11525
   D23       -3.03847   0.00381   0.00000   0.03717   0.03878  -2.99968
         Item               Value     Threshold  Converged?
 Maximum Force            0.031018     0.000450     NO 
 RMS     Force            0.012120     0.000300     NO 
 Maximum Displacement     0.392706     0.001800     NO 
 RMS     Displacement     0.112719     0.001200     NO 
 Predicted change in Energy=-1.546910D-02
 GradGradGradGradGradGradGradGradGradGradGradGradGradGradGradGradGradGrad

                          Input orientation:                          
 ---------------------------------------------------------------------
 Center     Atomic      Atomic             Coordinates (Angstroms)
 Number     Number       Type             X           Y           Z
 ---------------------------------------------------------------------
      1          6           0        2.153547    1.608724   -2.399936
      2          6           0        1.478982    0.531331   -1.665452
      3          6           0        0.827065    0.151783   -0.366073
      4          8           0       -0.093581    1.675280   -2.337366
      5          8           0       -0.352439    2.566796   -1.294759
      6          8           0        1.470462   -0.250195    0.565604
      7          1           0       -1.078134    3.111256   -1.640187
      8          1           0        2.782224    1.104866   -3.124724
      9          1           0        2.453560    2.571065   -2.011056
     10          1           0       -0.265412    0.236506   -0.344157
     11          1           0        1.107618   -0.026581   -2.555231
     12          1           0        2.634685    0.569447   -1.263570
 ---------------------------------------------------------------------
                    Distance matrix (angstroms):
                    1          2          3          4          5
     1  C    0.000000
     2  C    1.468087   0.000000
     3  C    2.831753   1.502477   0.000000
     4  O    2.248984   2.057436   2.656055   0.000000
     5  O    2.901600   2.763084   2.843585   1.396008   0.000000
     6  O    3.566035   2.363993   1.201485   3.818496   3.836581
     7  H    3.643979   3.632560   3.743212   1.875481   0.970768
     8  H    1.083710   2.038837   3.513000   3.035715   3.913072
     9  H    1.080433   2.286866   3.347294   2.719713   2.895985
    10  H    3.458406   2.208088   1.095977   2.464240   2.518227
    11  H    1.947384   1.113950   2.214258   2.094439   3.232052
    12  H    1.613356   1.224177   2.060930   3.133582   3.593506
                    6          7          8          9         10
     6  O    0.000000
     7  H    4.760274   0.000000
     8  H    4.144325   4.596936   0.000000
     9  H    3.945270   3.591965   1.870299   0.000000
    10  H    2.019356   3.256440   4.215885   3.952407   0.000000
    11  H    3.149804   3.932027   2.099714   2.975810   2.615966
    12  H    2.317995   4.515269   1.942250   2.144298   3.060511
                   11         12
    11  H    0.000000
    12  H    2.087000   0.000000
 Stoichiometry    C3H6O3
 Framework group  C1[X(C3H6O3)]
 Deg. of freedom    30
 Full point group                 C1      NOp   1
 Largest Abelian subgroup         C1      NOp   1
 Largest concise Abelian subgroup C1      NOp   1
                         Standard orientation:                         
 ---------------------------------------------------------------------
 Center     Atomic      Atomic             Coordinates (Angstroms)
 Number     Number       Type             X           Y           Z
 ---------------------------------------------------------------------
      1          6           0        0.520735    1.635685   -0.362889
      2          6           0       -0.405670    0.737871    0.337812
      3          6           0       -1.201067   -0.532385    0.231836
      4          8           0        1.409410   -0.197621    0.589568
      5          8           0        1.494834   -1.095170   -0.476241
      6          8           0       -2.296487   -0.548252   -0.261488
      7          1           0        2.365349   -1.506908   -0.353500
      8          1           0        0.365657    2.608634    0.088495
      9          1           0        0.832768    1.570145   -1.395205
     10          1           0       -0.727648   -1.422471    0.661704
     11          1           0       -0.106128    1.016757    1.373854
     12          1           0       -1.076044    1.415167   -0.430614
 ---------------------------------------------------------------------
 Rotational constants (GHZ):           4.9702447           2.5135536           1.9008721
 Standard basis: 6-31+G(d) (6D, 7F)
 There are   126 symmetry adapted cartesian basis functions of A   symmetry.
 There are   126 symmetry adapted basis functions of A   symmetry.
   126 basis functions,   216 primitive gaussians,   126 cartesian basis functions
    24 alpha electrons       24 beta electrons
       nuclear repulsion energy       236.3806785638 Hartrees.
 NAtoms=   12 NActive=   12 NUniq=   12 SFac= 1.00D+00 NAtFMM=   60 NAOKFM=F Big=F
 Integral buffers will be    131072 words long.
 Raffenetti 2 integral format.
 Two-electron integral symmetry is turned on.
 One-electron integrals computed using PRISM.
 NBasis=   126 RedAO= T EigKep=  8.21D-05  NBF=   126
 NBsUse=   126 1.00D-06 EigRej= -1.00D+00 NBFU=   126
 Initial guess from the checkpoint file:  "/scratch/bell/zhao922/YARP/paper-example/KHP-network/pp_0/TS-folder/Gau-3503.chk"
 B after Tr=    -0.000000   -0.000000    0.000000
         Rot=    0.999926    0.008230   -0.007549   -0.004789 Ang=   1.39 deg.
 ExpMin= 4.38D-02 ExpMax= 5.48D+03 ExpMxC= 8.25D+02 IAcc=3 IRadAn=         5 AccDes= 0.00D+00
 Harris functional with IExCor=  402 and IRadAn=       5 diagonalized for initial guess.
 HarFok:  IExCor=  402 AccDes= 0.00D+00 IRadAn=         5 IDoV= 1 UseB2=F ITyADJ=14
 ICtDFT=  3500011 ScaDFX=  1.000000  1.000000  1.000000  1.000000
 FoFCou: FMM=F IPFlag=           0 FMFlag=      100000 FMFlg1=           0
         NFxFlg=           0 DoJE=T BraDBF=F KetDBF=T FulRan=T
         wScrn=  0.000000 ICntrl=       500 IOpCl=  0 I1Cent=   200000004 NGrid=           0
         NMat0=    1 NMatS0=      1 NMatT0=    0 NMatD0=    1 NMtDS0=    0 NMtDT0=    0
 Petite list used in FoFCou.
 Keep R1 ints in memory in canonical form, NReq=47237561.
 Requested convergence on RMS density matrix=1.00D-08 within 128 cycles.
 Requested convergence on MAX density matrix=1.00D-06.
 Requested convergence on             energy=1.00D-06.
 No special actions if energy rises.
 SCF Done:  E(RB3LYP) =  -343.295108989     A.U. after   15 cycles
            NFock= 15  Conv=0.26D-08     -V/T= 2.0086
 DoSCS=F DFT=T ScalE2(SS,OS)=  1.000000  1.000000
 Range of M.O.s used for correlation:     1   126
 NBasis=   126 NAE=    24 NBE=    24 NFC=     0 NFV=     0
 NROrb=    126 NOA=    24 NOB=    24 NVA=   102 NVB=   102

 **** Warning!!: The largest alpha MO coefficient is  0.49276143D+02

 Symmetrizing basis deriv contribution to polar:
 IMax=3 JMax=2 DiffMx= 0.00D+00
 G2DrvN: will do    13 centers at a time, making    1 passes.
 Calling FoFCou, ICntrl=  3107 FMM=F I1Cent=   0 AccDes= 0.00D+00.
 End of G2Drv F.D. properties file   721 does not exist.
 End of G2Drv F.D. properties file   722 does not exist.
 End of G2Drv F.D. properties file   788 does not exist.
          IDoAtm=111111111111
          Differentiating once with respect to electric field.
                with respect to dipole field.
          Differentiating once with respect to nuclear coordinates.
 Keep R1 ints in memory in canonical form, NReq=47193576.
          There are    39 degrees of freedom in the 1st order CPHF.  IDoFFX=6 NUNeed=     3.
     36 vectors produced by pass  0 Test12= 6.28D-15 2.56D-09 XBig12= 1.22D+02 7.71D+00.
 AX will form    36 AO Fock derivatives at one time.
     36 vectors produced by pass  1 Test12= 6.28D-15 2.56D-09 XBig12= 5.23D+01 1.76D+00.
     36 vectors produced by pass  2 Test12= 6.28D-15 2.56D-09 XBig12= 1.04D+00 1.78D-01.
     36 vectors produced by pass  3 Test12= 6.28D-15 2.56D-09 XBig12= 3.21D-03 8.43D-03.
     36 vectors produced by pass  4 Test12= 6.28D-15 2.56D-09 XBig12= 5.57D-06 2.82D-04.
     29 vectors produced by pass  5 Test12= 6.28D-15 2.56D-09 XBig12= 6.86D-09 1.09D-05.
      4 vectors produced by pass  6 Test12= 6.28D-15 2.56D-09 XBig12= 5.98D-12 3.55D-07.
      3 vectors produced by pass  7 Test12= 6.28D-15 2.56D-09 XBig12= 5.37D-15 1.22D-08.
 InvSVY:  IOpt=1 It=  1 EMax= 5.33D-15
 Solved reduced A of dimension   216 with    39 vectors.
 Isotropic polarizability for W=    0.000000       63.61 Bohr**3.
 End of Minotr F.D. properties file   721 does not exist.
 End of Minotr F.D. properties file   722 does not exist.
 End of Minotr F.D. properties file   788 does not exist.
 Calling FoFJK, ICntrl=    100127 FMM=F ISym2X=0 I1Cent= 0 IOpClX= 0 NMat=1 NMatS=1 NMatT=0.
 ***** Axes restored to original set *****
 -------------------------------------------------------------------
 Center     Atomic                   Forces (Hartrees/Bohr)
 Number     Number              X              Y              Z
 -------------------------------------------------------------------
      1        6          -0.020833010   -0.013706745    0.032529797
      2        6           0.031826017    0.014421835   -0.020891881
      3        6          -0.017807911    0.024407413   -0.007179631
      4        8          -0.009509063    0.011798119   -0.029234894
      5        8          -0.003500262    0.009644729    0.012153939
      6        8           0.010360976   -0.006359975    0.015482486
      7        1          -0.002770959    0.000922387   -0.000061457
      8        1          -0.001760497    0.015527865   -0.018057388
      9        1          -0.002508800    0.004655557    0.003928820
     10        1          -0.004326176   -0.004055648    0.000723403
     11        1           0.014477778   -0.023829763    0.022242175
     12        1           0.006351908   -0.033425775   -0.011635370
 -------------------------------------------------------------------
 Cartesian Forces:  Max     0.033425775 RMS     0.016029238
 FormGI is forming the generalized inverse of G from B-inverse, IUseBI=4.

 GradGradGradGradGradGradGradGradGradGradGradGradGradGradGradGradGradGrad
 Berny optimization.
 Internal  Forces:  Max     0.025532320 RMS     0.009830137
 Search for a saddle point.
 Step number   2 out of a maximum of  100
 All quantities printed in internal units (Hartrees-Bohrs-Radians)
 Swapping is turned off.
 Second derivative matrix not updated -- analytic derivatives used.
 ITU=  0  0
     Eigenvalues ---   -0.10246  -0.00046   0.00292   0.00328   0.00876
     Eigenvalues ---    0.01234   0.01675   0.01959   0.02567   0.02681
     Eigenvalues ---    0.03672   0.04160   0.05321   0.05802   0.06851
     Eigenvalues ---    0.07509   0.13195   0.13497   0.15801   0.17991
     Eigenvalues ---    0.22917   0.26487   0.28949   0.29651   0.34022
     Eigenvalues ---    0.36853   0.37527   0.38315   0.49767   0.93640
 Eigenvectors required to have negative eigenvalues:
                          R2        A8        R6        D11       D12
   1                   -0.45690   0.36340   0.33168  -0.27227  -0.26936
                          D4        R8        D1        A11       D18
   1                    0.23402  -0.23183   0.16591  -0.16416   0.16012
 RFO step:  Lambda0=9.635817483D-03 Lambda=-4.18393096D-02.
 Linear search not attempted -- option 19 set.
 Maximum step size (   0.300) exceeded in Quadratic search.
    -- Step size scaled by   0.545
 Iteration  1 RMS(Cart)=  0.09165398 RMS(Int)=  0.00714552
 Iteration  2 RMS(Cart)=  0.00797802 RMS(Int)=  0.00169966
 Iteration  3 RMS(Cart)=  0.00006081 RMS(Int)=  0.00169895
 Iteration  4 RMS(Cart)=  0.00000011 RMS(Int)=  0.00169895
 Variable       Old X    -DE/DX   Delta X   Delta X   Delta X     New X
                                 (Linear)    (Quad)   (Total)
    R1        2.77428  -0.01232   0.00000  -0.07422  -0.07450   2.69978
    R2        4.24996  -0.00595   0.00000   0.12630   0.12716   4.37712
    R3        2.04792   0.00384   0.00000   0.00330   0.00330   2.05122
    R4        2.04172   0.00486   0.00000   0.00412   0.00412   2.04584
    R5        2.83927   0.00938   0.00000   0.00721   0.00721   2.84648
    R6        3.88799   0.01571   0.00000  -0.01116  -0.01016   3.87783
    R7        2.10506  -0.00865   0.00000  -0.02350  -0.02232   2.08274
    R8        2.31336   0.00114   0.00000   0.07905   0.07905   2.39241
    R9        2.27048   0.01968   0.00000   0.01224   0.01224   2.28272
   R10        2.07110   0.00401   0.00000   0.00020   0.00020   2.07130
   R11        2.63807   0.01694   0.00000   0.04534   0.04534   2.68342
   R12        3.95792   0.01688   0.00000   0.06519   0.06288   4.02079
   R13        1.83449   0.00261   0.00000   0.00045   0.00045   1.83494
    A1        1.83377  -0.00192   0.00000   0.07304   0.07289   1.90665
    A2        2.21577   0.00458   0.00000  -0.01639  -0.01642   2.19935
    A3        2.22939  -0.00811   0.00000  -0.06458  -0.06065   2.16873
    A4        1.81427   0.00046   0.00000   0.01568   0.01302   1.82729
    A5        2.08720  -0.00021   0.00000  -0.00296  -0.00672   2.08048
    A6        2.52773  -0.02553   0.00000  -0.11672  -0.11738   2.41035
    A7        1.69221   0.02255   0.00000   0.11828   0.12012   1.81233
    A8        1.27407   0.01191   0.00000  -0.07443  -0.07420   1.19987
    A9        1.66217  -0.00242   0.00000  -0.04605  -0.04056   1.62161
   A10        2.00382  -0.00014   0.00000   0.01464   0.01485   2.01867
   A11        1.70478  -0.00712   0.00000   0.02581   0.02304   1.72782
   A12        2.51747   0.01644   0.00000   0.03630   0.03479   2.55226
   A13        2.20501  -0.00811   0.00000  -0.06614  -0.06420   2.14081
   A14        2.12091  -0.00102   0.00000   0.00730   0.00730   2.12821
   A15        2.01559   0.00255   0.00000  -0.00926  -0.00926   2.00634
   A16        2.14617  -0.00158   0.00000   0.00194   0.00194   2.14811
   A17        1.79769  -0.00595   0.00000   0.00272   0.00343   1.80112
   A18        0.92731   0.00443   0.00000   0.00556   0.00388   0.93120
   A19        1.82647   0.00112   0.00000   0.00956   0.01085   1.83732
   A20        2.35033  -0.00542   0.00000  -0.01384  -0.01446   2.33587
   A21        1.80394   0.00086   0.00000  -0.01108  -0.01108   1.79286
    D1        2.68875   0.00863   0.00000   0.03209   0.03633   2.72508
    D2       -0.88750   0.00458   0.00000   0.12641   0.13007  -0.75743
    D3        1.31054  -0.01128   0.00000   0.02816   0.02703   1.33757
    D4        0.11623   0.00488   0.00000  -0.06696  -0.06509   0.05115
    D5        2.82317   0.00083   0.00000   0.02737   0.02866   2.85182
    D6       -1.26198  -0.01503   0.00000  -0.07088  -0.07439  -1.33637
    D7       -3.03622   0.01688   0.00000   0.11621   0.11389  -2.92233
    D8        0.85983   0.02108   0.00000   0.13953   0.13760   0.99743
    D9       -0.47632   0.00405   0.00000   0.03291   0.03384  -0.44248
   D10       -2.86346   0.00825   0.00000   0.05622   0.05756  -2.80590
   D11       -1.48943  -0.00679   0.00000   0.20106   0.20155  -1.28788
   D12        1.68562  -0.00509   0.00000   0.20171   0.20220   1.88781
   D13       -2.80353  -0.00152   0.00000   0.11551   0.11579  -2.68773
   D14        0.37152   0.00018   0.00000   0.11615   0.11644   0.48796
   D15        2.13073  -0.00373   0.00000   0.09169   0.09143   2.22216
   D16       -0.97741  -0.00203   0.00000   0.09234   0.09208  -0.88533
   D17       -0.24533   0.01259   0.00000   0.14643   0.14591  -0.09942
   D18        2.92972   0.01428   0.00000   0.14707   0.14656   3.07627
   D19        0.91422  -0.01358   0.00000  -0.10615  -0.10509   0.80914
   D20       -1.02139  -0.00726   0.00000  -0.10595  -0.10615  -1.12755
   D21        2.40407   0.00118   0.00000   0.04416   0.04502   2.44909
   D22        3.11525  -0.00313   0.00000   0.00987   0.01011   3.12536
   D23       -2.99968   0.00413   0.00000   0.06264   0.06155  -2.93813
         Item               Value     Threshold  Converged?
 Maximum Force            0.025532     0.000450     NO 
 RMS     Force            0.009830     0.000300     NO 
 Maximum Displacement     0.383516     0.001800     NO 
 RMS     Displacement     0.091180     0.001200     NO 
 Predicted change in Energy=-1.727025D-02
 GradGradGradGradGradGradGradGradGradGradGradGradGradGradGradGradGradGrad

                          Input orientation:                          
 ---------------------------------------------------------------------
 Center     Atomic      Atomic             Coordinates (Angstroms)
 Number     Number       Type             X           Y           Z
 ---------------------------------------------------------------------
      1          6           0        2.202671    1.567047   -2.343862
      2          6           0        1.461715    0.513403   -1.725886
      3          6           0        0.821100    0.225139   -0.393433
      4          8           0       -0.111075    1.675110   -2.348549
      5          8           0       -0.397706    2.534006   -1.254680
      6          8           0        1.475557   -0.047246    0.584657
      7          1           0       -1.131228    3.073107   -1.592572
      8          1           0        2.796943    1.158417   -3.155083
      9          1           0        2.519597    2.486381   -1.868014
     10          1           0       -0.274719    0.249183   -0.392310
     11          1           0        1.079069   -0.073828   -2.576444
     12          1           0        2.676651    0.489559   -1.370729
 ---------------------------------------------------------------------
                    Distance matrix (angstroms):
                    1          2          3          4          5
     1  C    0.000000
     2  C    1.428662   0.000000
     3  C    2.741099   1.506291   0.000000
     4  O    2.316273   2.052058   2.606500   0.000000
     5  O    2.980485   2.786093   2.749199   1.420003   0.000000
     6  O    3.422114   2.377631   1.207961   3.753347   3.681731
     7  H    3.734640   3.645985   3.655193   1.888547   0.971007
     8  H    1.085457   2.059486   3.521601   3.061705   3.963528
     9  H    1.082612   2.243202   3.189435   2.794550   2.981460
    10  H    3.418008   2.205320   1.096083   2.426298   2.445245
    11  H    2.002260   1.102138   2.218438   2.127713   3.275472
    12  H    1.527293   1.266008   2.113787   3.183250   3.693901
                    6          7          8          9         10
     6  O    0.000000
     7  H    4.612186   0.000000
     8  H    4.145521   4.640905   0.000000
     9  H    3.677620   3.707915   1.870015   0.000000
    10  H    2.026277   3.185716   4.230216   3.871816   0.000000
    11  H    3.185981   3.969460   2.191880   3.021864   2.589888
    12  H    2.356761   4.606938   1.909387   2.063797   3.118601
                   11         12
    11  H    0.000000
    12  H    2.079285   0.000000
 Stoichiometry    C3H6O3
 Framework group  C1[X(C3H6O3)]
 Deg. of freedom    30
 Full point group                 C1      NOp   1
 Largest Abelian subgroup         C1      NOp   1
 Largest concise Abelian subgroup C1      NOp   1
                         Standard orientation:                         
 ---------------------------------------------------------------------
 Center     Atomic      Atomic             Coordinates (Angstroms)
 Number     Number       Type             X           Y           Z
 ---------------------------------------------------------------------
      1          6           0        0.309276    1.662714   -0.428374
      2          6           0       -0.415367    0.758804    0.407637
      3          6           0       -1.107203   -0.573441    0.283542
      4          8           0        1.441647   -0.101577    0.556580
      5          8           0        1.486855   -1.074855   -0.476421
      6          8           0       -2.169574   -0.691828   -0.279060
      7          1           0        2.379480   -1.445287   -0.382314
      8          1           0        0.251766    2.662195   -0.008914
      9          1           0        0.486891    1.544740   -1.489780
     10          1           0       -0.590791   -1.409662    0.768775
     11          1           0       -0.120380    1.050128    1.428823
     12          1           0       -1.198627    1.455507   -0.302210
 ---------------------------------------------------------------------
 Rotational constants (GHZ):           4.7205603           2.6624983           1.9682294
 Standard basis: 6-31+G(d) (6D, 7F)
 There are   126 symmetry adapted cartesian basis functions of A   symmetry.
 There are   126 symmetry adapted basis functions of A   symmetry.
   126 basis functions,   216 primitive gaussians,   126 cartesian basis functions
    24 alpha electrons       24 beta electrons
       nuclear repulsion energy       236.9783865924 Hartrees.
 NAtoms=   12 NActive=   12 NUniq=   12 SFac= 1.00D+00 NAtFMM=   60 NAOKFM=F Big=F
 Integral buffers will be    131072 words long.
 Raffenetti 2 integral format.
 Two-electron integral symmetry is turned on.
 One-electron integrals computed using PRISM.
 NBasis=   126 RedAO= T EigKep=  7.15D-05  NBF=   126
 NBsUse=   126 1.00D-06 EigRej= -1.00D+00 NBFU=   126
 Initial guess from the checkpoint file:  "/scratch/bell/zhao922/YARP/paper-example/KHP-network/pp_0/TS-folder/Gau-3503.chk"
 B after Tr=    -0.000000    0.000000    0.000000
         Rot=    0.999434    0.010331   -0.010976   -0.030062 Ang=   3.85 deg.
 ExpMin= 4.38D-02 ExpMax= 5.48D+03 ExpMxC= 8.25D+02 IAcc=3 IRadAn=         5 AccDes= 0.00D+00
 Harris functional with IExCor=  402 and IRadAn=       5 diagonalized for initial guess.
 HarFok:  IExCor=  402 AccDes= 0.00D+00 IRadAn=         5 IDoV= 1 UseB2=F ITyADJ=14
 ICtDFT=  3500011 ScaDFX=  1.000000  1.000000  1.000000  1.000000
 FoFCou: FMM=F IPFlag=           0 FMFlag=      100000 FMFlg1=           0
         NFxFlg=           0 DoJE=T BraDBF=F KetDBF=T FulRan=T
         wScrn=  0.000000 ICntrl=       500 IOpCl=  0 I1Cent=   200000004 NGrid=           0
         NMat0=    1 NMatS0=      1 NMatT0=    0 NMatD0=    1 NMtDS0=    0 NMtDT0=    0
 Petite list used in FoFCou.
 Keep R1 ints in memory in canonical form, NReq=47237561.
 Requested convergence on RMS density matrix=1.00D-08 within 128 cycles.
 Requested convergence on MAX density matrix=1.00D-06.
 Requested convergence on             energy=1.00D-06.
 No special actions if energy rises.
 SCF Done:  E(RB3LYP) =  -343.312658521     A.U. after   15 cycles
            NFock= 15  Conv=0.14D-08     -V/T= 2.0088
 DoSCS=F DFT=T ScalE2(SS,OS)=  1.000000  1.000000
 Range of M.O.s used for correlation:     1   126
 NBasis=   126 NAE=    24 NBE=    24 NFC=     0 NFV=     0
 NROrb=    126 NOA=    24 NOB=    24 NVA=   102 NVB=   102

 **** Warning!!: The largest alpha MO coefficient is  0.47603130D+02

 Symmetrizing basis deriv contribution to polar:
 IMax=3 JMax=2 DiffMx= 0.00D+00
 G2DrvN: will do    13 centers at a time, making    1 passes.
 Calling FoFCou, ICntrl=  3107 FMM=F I1Cent=   0 AccDes= 0.00D+00.
 End of G2Drv F.D. properties file   721 does not exist.
 End of G2Drv F.D. properties file   722 does not exist.
 End of G2Drv F.D. properties file   788 does not exist.
          IDoAtm=111111111111
          Differentiating once with respect to electric field.
                with respect to dipole field.
          Differentiating once with respect to nuclear coordinates.
 Keep R1 ints in memory in canonical form, NReq=47193576.
          There are    39 degrees of freedom in the 1st order CPHF.  IDoFFX=6 NUNeed=     3.
     36 vectors produced by pass  0 Test12= 6.28D-15 2.56D-09 XBig12= 1.36D+02 8.02D+00.
 AX will form    36 AO Fock derivatives at one time.
     36 vectors produced by pass  1 Test12= 6.28D-15 2.56D-09 XBig12= 6.53D+01 1.71D+00.
     36 vectors produced by pass  2 Test12= 6.28D-15 2.56D-09 XBig12= 1.32D+00 1.65D-01.
     36 vectors produced by pass  3 Test12= 6.28D-15 2.56D-09 XBig12= 4.44D-03 1.16D-02.
     36 vectors produced by pass  4 Test12= 6.28D-15 2.56D-09 XBig12= 7.15D-06 3.42D-04.
     30 vectors produced by pass  5 Test12= 6.28D-15 2.56D-09 XBig12= 8.76D-09 1.35D-05.
      5 vectors produced by pass  6 Test12= 6.28D-15 2.56D-09 XBig12= 7.92D-12 3.83D-07.
      3 vectors produced by pass  7 Test12= 6.28D-15 2.56D-09 XBig12= 7.98D-15 1.38D-08.
 InvSVY:  IOpt=1 It=  1 EMax= 7.11D-15
 Solved reduced A of dimension   218 with    39 vectors.
 Isotropic polarizability for W=    0.000000       63.19 Bohr**3.
 End of Minotr F.D. properties file   721 does not exist.
 End of Minotr F.D. properties file   722 does not exist.
 End of Minotr F.D. properties file   788 does not exist.
 Calling FoFJK, ICntrl=    100127 FMM=F ISym2X=0 I1Cent= 0 IOpClX= 0 NMat=1 NMatS=1 NMatT=0.
 ***** Axes restored to original set *****
 -------------------------------------------------------------------
 Center     Atomic                   Forces (Hartrees/Bohr)
 Number     Number              X              Y              Z
 -------------------------------------------------------------------
      1        6           0.005991692   -0.015402275    0.024108039
      2        6          -0.003732774    0.012686530   -0.014016846
      3        6          -0.005123312    0.011985037   -0.001492915
      4        8          -0.006765391    0.009140593   -0.018354498
      5        8          -0.002151984    0.006168483    0.007469120
      6        8           0.005369210   -0.000655450    0.007749201
      7        1          -0.002453852   -0.000756653    0.000176615
      8        1          -0.003561518    0.014845039   -0.012761431
      9        1          -0.003692671    0.002812621    0.002919955
     10        1          -0.002231337   -0.003234135    0.000534658
     11        1           0.011731139   -0.019081284    0.014560658
     12        1           0.006620798   -0.018508506   -0.010892557
 -------------------------------------------------------------------
 Cartesian Forces:  Max     0.024108039 RMS     0.010163793
 FormGI is forming the generalized inverse of G from B-inverse, IUseBI=4.

 GradGradGradGradGradGradGradGradGradGradGradGradGradGradGradGradGradGrad
 Berny optimization.
 Internal  Forces:  Max     0.017247492 RMS     0.006255008
 Search for a saddle point.
 Step number   3 out of a maximum of  100
 All quantities printed in internal units (Hartrees-Bohrs-Radians)
 Swapping is turned off.
 Second derivative matrix not updated -- analytic derivatives used.
 ITU=  0  0  0
     Eigenvalues ---   -0.13521  -0.00029   0.00180   0.00378   0.00875
     Eigenvalues ---    0.01405   0.01579   0.01999   0.02443   0.02638
     Eigenvalues ---    0.03607   0.03893   0.05032   0.06083   0.07307
     Eigenvalues ---    0.08392   0.12658   0.13298   0.14727   0.17035
     Eigenvalues ---    0.22517   0.27711   0.29186   0.33602   0.34166
     Eigenvalues ---    0.36245   0.36835   0.37984   0.49872   0.89855
 Eigenvectors required to have negative eigenvalues:
                          A8        R2        R6        R8        D11
   1                    0.42156  -0.37411   0.34149  -0.28473  -0.27892
                          D12       D4        D18       D17       A11
   1                   -0.27353   0.23054   0.17995   0.17456  -0.17062
 RFO step:  Lambda0=6.924915791D-04 Lambda=-2.93000479D-02.
 Linear search not attempted -- option 19 set.
 Maximum step size (   0.300) exceeded in Quadratic search.
    -- Step size scaled by   0.691
 Iteration  1 RMS(Cart)=  0.10907471 RMS(Int)=  0.02105997
 Iteration  2 RMS(Cart)=  0.01963713 RMS(Int)=  0.00161091
 Iteration  3 RMS(Cart)=  0.00045111 RMS(Int)=  0.00156861
 Iteration  4 RMS(Cart)=  0.00000028 RMS(Int)=  0.00156861
 Variable       Old X    -DE/DX   Delta X   Delta X   Delta X     New X
                                 (Linear)    (Quad)   (Total)
    R1        2.69978  -0.00530   0.00000  -0.03605  -0.03657   2.66321
    R2        4.37712   0.00111   0.00000   0.07502   0.07582   4.45294
    R3        2.05122   0.00200   0.00000   0.00089   0.00089   2.05211
    R4        2.04584   0.00259   0.00000   0.00226   0.00226   2.04810
    R5        2.84648   0.00530   0.00000  -0.00407  -0.00407   2.84241
    R6        3.87783   0.00701   0.00000   0.04892   0.04870   3.92653
    R7        2.08274  -0.00436   0.00000  -0.01783  -0.01735   2.06539
    R8        2.39241   0.00365   0.00000   0.04426   0.04426   2.43667
    R9        2.28272   0.00933   0.00000   0.00848   0.00848   2.29119
   R10        2.07130   0.00216   0.00000   0.00350   0.00350   2.07480
   R11        2.68342   0.01009   0.00000   0.02720   0.02720   2.71062
   R12        4.02079   0.01121   0.00000   0.10038   0.09983   4.12063
   R13        1.83494   0.00137   0.00000   0.00122   0.00122   1.83616
    A1        1.90665   0.00145   0.00000   0.06719   0.06794   1.97459
    A2        2.19935   0.00205   0.00000  -0.02285  -0.02397   2.17538
    A3        2.16873  -0.00611   0.00000  -0.08195  -0.08148   2.08725
    A4        1.82729   0.00034   0.00000  -0.00731  -0.00888   1.81841
    A5        2.08048  -0.00067   0.00000   0.00682   0.00113   2.08161
    A6        2.41035  -0.01725   0.00000  -0.14951  -0.15016   2.26020
    A7        1.81233   0.01601   0.00000   0.11195   0.11370   1.92603
    A8        1.19987   0.00412   0.00000  -0.03835  -0.03310   1.16677
    A9        1.62161  -0.00162   0.00000  -0.02353  -0.02085   1.60076
   A10        2.01867   0.00079   0.00000   0.04181   0.04210   2.06077
   A11        1.72782  -0.00253   0.00000   0.01728   0.01684   1.74466
   A12        2.55226   0.00849   0.00000   0.03214   0.02951   2.58177
   A13        2.14081  -0.00695   0.00000  -0.07440  -0.07293   2.06787
   A14        2.12821  -0.00130   0.00000   0.01012   0.01010   2.13831
   A15        2.00634   0.00193   0.00000  -0.00637  -0.00639   1.99994
   A16        2.14811  -0.00065   0.00000  -0.00333  -0.00336   2.14475
   A17        1.80112  -0.00390   0.00000   0.02944   0.02988   1.83100
   A18        0.93120   0.00287   0.00000   0.01116   0.00950   0.94069
   A19        1.83732   0.00051   0.00000   0.04710   0.04809   1.88542
   A20        2.33587  -0.00357   0.00000   0.01322   0.01256   2.34843
   A21        1.79286  -0.00024   0.00000  -0.00855  -0.00855   1.78430
    D1        2.72508   0.00630   0.00000   0.09475   0.09736   2.82244
    D2       -0.75743   0.00717   0.00000   0.13966   0.14154  -0.61589
    D3        1.33757  -0.00497   0.00000   0.02307   0.02291   1.36048
    D4        0.05115   0.00013   0.00000  -0.02673  -0.02620   0.02494
    D5        2.85182   0.00099   0.00000   0.01817   0.01798   2.86980
    D6       -1.33637  -0.01114   0.00000  -0.09842  -0.10065  -1.43702
    D7       -2.92233   0.01233   0.00000   0.16604   0.16335  -2.75899
    D8        0.99743   0.01504   0.00000   0.17754   0.17435   1.17178
    D9       -0.44248   0.00368   0.00000   0.06095   0.06308  -0.37939
   D10       -2.80590   0.00639   0.00000   0.07244   0.07409  -2.73181
   D11       -1.28788  -0.00090   0.00000   0.26848   0.26924  -1.01864
   D12        1.88781  -0.00017   0.00000   0.25492   0.25568   2.14349
   D13       -2.68773  -0.00031   0.00000   0.23971   0.24031  -2.44742
   D14        0.48796   0.00042   0.00000   0.22615   0.22675   0.71471
   D15        2.22216  -0.00322   0.00000   0.21672   0.21672   2.43888
   D16       -0.88533  -0.00249   0.00000   0.20316   0.20316  -0.68218
   D17       -0.09942   0.00728   0.00000   0.27124   0.26988   0.17046
   D18        3.07627   0.00801   0.00000   0.25768   0.25632  -2.95059
   D19        0.80914  -0.00964   0.00000  -0.13314  -0.13195   0.67718
   D20       -1.12755  -0.00753   0.00000  -0.14809  -0.14909  -1.27663
   D21        2.44909   0.00150   0.00000   0.08405   0.08447   2.53356
   D22        3.12536  -0.00091   0.00000   0.06836   0.06899  -3.08883
   D23       -2.93813   0.00331   0.00000   0.12488   0.12382  -2.81431
         Item               Value     Threshold  Converged?
 Maximum Force            0.017247     0.000450     NO 
 RMS     Force            0.006255     0.000300     NO 
 Maximum Displacement     0.542545     0.001800     NO 
 RMS     Displacement     0.118102     0.001200     NO 
 Predicted change in Energy=-1.820216D-02
 GradGradGradGradGradGradGradGradGradGradGradGradGradGradGradGradGradGrad

                          Input orientation:                          
 ---------------------------------------------------------------------
 Center     Atomic      Atomic             Coordinates (Angstroms)
 Number     Number       Type             X           Y           Z
 ---------------------------------------------------------------------
      1          6           0        2.241408    1.520470   -2.271225
      2          6           0        1.444563    0.466380   -1.781232
      3          6           0        0.840611    0.278133   -0.416597
      4          8           0       -0.104458    1.723625   -2.361965
      5          8           0       -0.446661    2.552672   -1.242555
      6          8           0        1.510779    0.239856    0.593076
      7          1           0       -1.198958    3.062549   -1.586336
      8          1           0        2.791988    1.257180   -3.169435
      9          1           0        2.559655    2.375508   -1.686192
     10          1           0       -0.250765    0.158370   -0.412588
     11          1           0        1.036219   -0.118203   -2.609525
     12          1           0        2.694192    0.333738   -1.492332
 ---------------------------------------------------------------------
                    Distance matrix (angstroms):
                    1          2          3          4          5
     1  C    0.000000
     2  C    1.409312   0.000000
     3  C    2.635390   1.504136   0.000000
     4  O    2.356394   2.077831   2.601357   0.000000
     5  O    3.057666   2.866969   2.740949   1.434399   0.000000
     6  O    3.221492   2.386008   1.212447   3.680057   3.542630
     7  H    3.831866   3.710294   3.644325   1.895322   0.971654
     8  H    1.085928   2.089982   3.513478   3.042857   3.984973
     9  H    1.083806   2.212969   2.994322   2.824733   3.044032
    10  H    3.394228   2.200499   1.097935   2.504296   2.541634
    11  H    2.062081   1.092956   2.237025   2.180542   3.346807
    12  H    1.489974   1.289430   2.143843   3.243531   3.853702
                    6          7          8          9         10
     6  O    0.000000
     7  H    4.478851   0.000000
     8  H    4.102796   4.657597   0.000000
     9  H    3.294876   3.822193   1.872071   0.000000
    10  H    2.030034   3.272768   4.250405   3.799504   0.000000
    11  H    3.257310   4.019965   2.299544   3.064637   2.561124
    12  H    2.399626   4.755194   1.917025   2.055361   3.141556
                   11         12
    11  H    0.000000
    12  H    2.049694   0.000000
 Stoichiometry    C3H6O3
 Framework group  C1[X(C3H6O3)]
 Deg. of freedom    30
 Full point group                 C1      NOp   1
 Largest Abelian subgroup         C1      NOp   1
 Largest concise Abelian subgroup C1      NOp   1
                         Standard orientation:                         
 ---------------------------------------------------------------------
 Center     Atomic      Atomic             Coordinates (Angstroms)
 Number     Number       Type             X           Y           Z
 ---------------------------------------------------------------------
      1          6           0       -0.001207    1.630089   -0.512113
      2          6           0       -0.487699    0.768314    0.491296
      3          6           0       -1.020520   -0.633301    0.372959
      4          8           0        1.475972    0.089089    0.485812
      5          8           0        1.568737   -0.993053   -0.451131
      6          8           0       -1.970778   -0.912415   -0.326422
      7          1           0        2.493386   -1.274047   -0.350238
      8          1           0        0.022622    2.671527   -0.205392
      9          1           0        0.035376    1.387686   -1.567830
     10          1           0       -0.492634   -1.375956    0.985544
     11          1           0       -0.171598    1.116831    1.477789
     12          1           0       -1.422050    1.414384   -0.118793
 ---------------------------------------------------------------------
 Rotational constants (GHZ):           4.5628407           2.7651222           2.0286441
 Standard basis: 6-31+G(d) (6D, 7F)
 There are   126 symmetry adapted cartesian basis functions of A   symmetry.
 There are   126 symmetry adapted basis functions of A   symmetry.
   126 basis functions,   216 primitive gaussians,   126 cartesian basis functions
    24 alpha electrons       24 beta electrons
       nuclear repulsion energy       237.0865398803 Hartrees.
 NAtoms=   12 NActive=   12 NUniq=   12 SFac= 1.00D+00 NAtFMM=   60 NAOKFM=F Big=F
 Integral buffers will be    131072 words long.
 Raffenetti 2 integral format.
 Two-electron integral symmetry is turned on.
 One-electron integrals computed using PRISM.
 NBasis=   126 RedAO= T EigKep=  6.84D-05  NBF=   126
 NBsUse=   126 1.00D-06 EigRej= -1.00D+00 NBFU=   126
 Initial guess from the checkpoint file:  "/scratch/bell/zhao922/YARP/paper-example/KHP-network/pp_0/TS-folder/Gau-3503.chk"
 B after Tr=     0.000000    0.000000    0.000000
         Rot=    0.998230    0.020488   -0.009436   -0.055029 Ang=   6.82 deg.
 ExpMin= 4.38D-02 ExpMax= 5.48D+03 ExpMxC= 8.25D+02 IAcc=3 IRadAn=         5 AccDes= 0.00D+00
 Harris functional with IExCor=  402 and IRadAn=       5 diagonalized for initial guess.
 HarFok:  IExCor=  402 AccDes= 0.00D+00 IRadAn=         5 IDoV= 1 UseB2=F ITyADJ=14
 ICtDFT=  3500011 ScaDFX=  1.000000  1.000000  1.000000  1.000000
 FoFCou: FMM=F IPFlag=           0 FMFlag=      100000 FMFlg1=           0
         NFxFlg=           0 DoJE=T BraDBF=F KetDBF=T FulRan=T
         wScrn=  0.000000 ICntrl=       500 IOpCl=  0 I1Cent=   200000004 NGrid=           0
         NMat0=    1 NMatS0=      1 NMatT0=    0 NMatD0=    1 NMtDS0=    0 NMtDT0=    0
 Petite list used in FoFCou.
 Keep R1 ints in memory in canonical form, NReq=47237561.
 Requested convergence on RMS density matrix=1.00D-08 within 128 cycles.
 Requested convergence on MAX density matrix=1.00D-06.
 Requested convergence on             energy=1.00D-06.
 No special actions if energy rises.
 SCF Done:  E(RB3LYP) =  -343.330704809     A.U. after   15 cycles
            NFock= 15  Conv=0.23D-08     -V/T= 2.0090
 DoSCS=F DFT=T ScalE2(SS,OS)=  1.000000  1.000000
 Range of M.O.s used for correlation:     1   126
 NBasis=   126 NAE=    24 NBE=    24 NFC=     0 NFV=     0
 NROrb=    126 NOA=    24 NOB=    24 NVA=   102 NVB=   102

 **** Warning!!: The largest alpha MO coefficient is  0.41611610D+02

 Symmetrizing basis deriv contribution to polar:
 IMax=3 JMax=2 DiffMx= 0.00D+00
 G2DrvN: will do    13 centers at a time, making    1 passes.
 Calling FoFCou, ICntrl=  3107 FMM=F I1Cent=   0 AccDes= 0.00D+00.
 End of G2Drv F.D. properties file   721 does not exist.
 End of G2Drv F.D. properties file   722 does not exist.
 End of G2Drv F.D. properties file   788 does not exist.
          IDoAtm=111111111111
          Differentiating once with respect to electric field.
                with respect to dipole field.
          Differentiating once with respect to nuclear coordinates.
 Keep R1 ints in memory in canonical form, NReq=47193576.
          There are    39 degrees of freedom in the 1st order CPHF.  IDoFFX=6 NUNeed=     3.
     36 vectors produced by pass  0 Test12= 6.28D-15 2.56D-09 XBig12= 1.73D+02 9.54D+00.
 AX will form    36 AO Fock derivatives at one time.
     36 vectors produced by pass  1 Test12= 6.28D-15 2.56D-09 XBig12= 9.31D+01 2.36D+00.
     36 vectors produced by pass  2 Test12= 6.28D-15 2.56D-09 XBig12= 1.57D+00 1.77D-01.
     36 vectors produced by pass  3 Test12= 6.28D-15 2.56D-09 XBig12= 4.86D-03 1.35D-02.
     36 vectors produced by pass  4 Test12= 6.28D-15 2.56D-09 XBig12= 8.67D-06 4.05D-04.
     32 vectors produced by pass  5 Test12= 6.28D-15 2.56D-09 XBig12= 9.59D-09 1.25D-05.
      5 vectors produced by pass  6 Test12= 6.28D-15 2.56D-09 XBig12= 7.78D-12 3.96D-07.
      3 vectors produced by pass  7 Test12= 6.28D-15 2.56D-09 XBig12= 6.61D-15 1.56D-08.
 InvSVY:  IOpt=1 It=  1 EMax= 6.00D-15
 Solved reduced A of dimension   220 with    39 vectors.
 Isotropic polarizability for W=    0.000000       63.44 Bohr**3.
 End of Minotr F.D. properties file   721 does not exist.
 End of Minotr F.D. properties file   722 does not exist.
 End of Minotr F.D. properties file   788 does not exist.
 Calling FoFJK, ICntrl=    100127 FMM=F ISym2X=0 I1Cent= 0 IOpClX= 0 NMat=1 NMatS=1 NMatT=0.
 ***** Axes restored to original set *****
 -------------------------------------------------------------------
 Center     Atomic                   Forces (Hartrees/Bohr)
 Number     Number              X              Y              Z
 -------------------------------------------------------------------
      1        6           0.013679492   -0.014685177    0.011268730
      2        6          -0.011058073    0.010560275   -0.001987077
      3        6          -0.001597145    0.003077564    0.000479551
      4        8          -0.002318762    0.008648004   -0.008733461
      5        8          -0.002141312    0.002821286    0.002546745
      6        8           0.001697747    0.002311261    0.001850739
      7        1          -0.001702047   -0.001234162    0.000250798
      8        1          -0.004389766    0.012581404   -0.007406960
      9        1          -0.003311542    0.000929234    0.002474095
     10        1          -0.000806854   -0.002260140    0.000662062
     11        1           0.008286178   -0.013960506    0.007769290
     12        1           0.003662084   -0.008789042   -0.009174512
 -------------------------------------------------------------------
 Cartesian Forces:  Max     0.014685177 RMS     0.006925579
 FormGI is forming the generalized inverse of G from B-inverse, IUseBI=4.

 GradGradGradGradGradGradGradGradGradGradGradGradGradGradGradGradGradGrad
 Berny optimization.
 Internal  Forces:  Max     0.009697977 RMS     0.003625368
 Search for a saddle point.
 Step number   4 out of a maximum of  100
 All quantities printed in internal units (Hartrees-Bohrs-Radians)
 Swapping is turned off.
 Second derivative matrix not updated -- analytic derivatives used.
 ITU=  0  0  0  0
     Eigenvalues ---   -0.14158  -0.00036   0.00183   0.00395   0.00833
     Eigenvalues ---    0.01351   0.01595   0.01835   0.02175   0.02716
     Eigenvalues ---    0.03512   0.03677   0.04664   0.06207   0.07356
     Eigenvalues ---    0.08291   0.12652   0.13471   0.14362   0.16493
     Eigenvalues ---    0.22164   0.28126   0.30660   0.32346   0.33734
     Eigenvalues ---    0.36634   0.37586   0.40086   0.49693   0.87102
 Eigenvectors required to have negative eigenvalues:
                          A8        R2        R6        R8        D11
   1                    0.44104  -0.36717   0.32629  -0.31172  -0.28058
                          D12       D4        D2        D18       D17
   1                   -0.27420   0.21269  -0.20052   0.18616   0.17979
 RFO step:  Lambda0=1.047644397D-05 Lambda=-1.69295888D-02.
 Linear search not attempted -- option 19 set.
 Maximum step size (   0.300) exceeded in Quadratic search.
    -- Step size scaled by   0.649
 Iteration  1 RMS(Cart)=  0.10549744 RMS(Int)=  0.00869923
 Iteration  2 RMS(Cart)=  0.00805820 RMS(Int)=  0.00140156
 Iteration  3 RMS(Cart)=  0.00007205 RMS(Int)=  0.00140045
 Iteration  4 RMS(Cart)=  0.00000009 RMS(Int)=  0.00140045
 Variable       Old X    -DE/DX   Delta X   Delta X   Delta X     New X
                                 (Linear)    (Quad)   (Total)
    R1        2.66321  -0.00077   0.00000  -0.00651  -0.00777   2.65544
    R2        4.45294   0.00238   0.00000   0.06870   0.06903   4.52197
    R3        2.05211   0.00085   0.00000  -0.00098  -0.00098   2.05112
    R4        2.04810   0.00110   0.00000   0.00106   0.00106   2.04916
    R5        2.84241   0.00261   0.00000  -0.00691  -0.00691   2.83550
    R6        3.92653   0.00283   0.00000   0.05637   0.05715   3.98368
    R7        2.06539  -0.00164   0.00000  -0.00843  -0.00910   2.05629
    R8        2.43667   0.00240   0.00000  -0.00244  -0.00244   2.43423
    R9        2.29119   0.00241   0.00000   0.00285   0.00285   2.29404
   R10        2.07480   0.00105   0.00000   0.00332   0.00332   2.07811
   R11        2.71062   0.00402   0.00000  -0.00237  -0.00237   2.70825
   R12        4.12063   0.00735   0.00000   0.10238   0.10240   4.22303
   R13        1.83616   0.00058   0.00000   0.00192   0.00192   1.83808
    A1        1.97459   0.00269   0.00000   0.05470   0.05442   2.02900
    A2        2.17538  -0.00029   0.00000  -0.03239  -0.03267   2.14271
    A3        2.08725  -0.00406   0.00000  -0.07060  -0.07006   2.01719
    A4        1.81841  -0.00053   0.00000  -0.00615  -0.00686   1.81156
    A5        2.08161  -0.00050   0.00000   0.00601   0.00302   2.08462
    A6        2.26020  -0.00831   0.00000  -0.08785  -0.08793   2.17227
    A7        1.92603   0.00838   0.00000   0.06896   0.06851   1.99454
    A8        1.16677   0.00080   0.00000  -0.01556  -0.01193   1.15485
[...]
   D21        1.92546  -0.00000   0.00000  -0.00265  -0.00265   1.92282
   D22       -1.80443   0.00001   0.00000   0.00252   0.00252  -1.80190
   D23       -0.97073  -0.00001   0.00000   0.00093   0.00093  -0.96980
         Item               Value     Threshold  Converged?
 Maximum Force            0.000033     0.000450     YES
 RMS     Force            0.000005     0.000300     YES
 Maximum Displacement     0.001168     0.001800     YES
 RMS     Displacement     0.000309     0.001200     YES
 Predicted change in Energy=-1.688224D-08
 Optimization completed.
    -- Stationary point found.
                           ----------------------------
                           !   Optimized Parameters   !
                           ! (Angstroms and Degrees)  !
 --------------------------                            --------------------------
 ! Name  Definition              Value          Derivative Info.                !
 --------------------------------------------------------------------------------
 ! R1    R(1,2)                  1.4166         -DE/DX =    0.0                 !
 ! R2    R(1,4)                  2.182          -DE/DX =    0.0                 !
 ! R3    R(1,8)                  1.0835         -DE/DX =    0.0                 !
 ! R4    R(1,9)                  1.0833         -DE/DX =    0.0                 !
 ! R5    R(2,3)                  1.4915         -DE/DX =    0.0                 !
 ! R6    R(2,4)                  2.1296         -DE/DX =    0.0                 !
 ! R7    R(2,11)                 1.0856         -DE/DX =    0.0                 !
 ! R8    R(2,12)                 1.3134         -DE/DX =    0.0                 !
 ! R9    R(3,6)                  1.2168         -DE/DX =    0.0                 !
 ! R10   R(3,10)                 1.1038         -DE/DX =    0.0                 !
 ! R11   R(4,5)                  1.4169         -DE/DX =    0.0                 !
 ! R12   R(4,11)                 2.5356         -DE/DX =    0.0                 !
 ! R13   R(5,7)                  0.975          -DE/DX =    0.0                 !
 ! A1    A(2,1,8)              120.667          -DE/DX =    0.0                 !
 ! A2    A(2,1,9)              118.771          -DE/DX =    0.0                 !
 ! A3    A(4,1,8)              105.5914         -DE/DX =    0.0                 !
 ! A4    A(4,1,9)               97.4035         -DE/DX =    0.0                 !
 ! A5    A(8,1,9)              120.4976         -DE/DX =    0.0                 !
 ! A6    A(1,2,3)              119.4877         -DE/DX =    0.0                 !
 ! A7    A(1,2,11)             119.3633         -DE/DX =    0.0                 !
 ! A8    A(1,2,12)              60.0437         -DE/DX =    0.0                 !
 ! A9    A(3,2,4)               89.6685         -DE/DX =    0.0                 !
 ! A10   A(3,2,11)             120.4141         -DE/DX =    0.0                 !
 ! A11   A(3,2,12)             109.0854         -DE/DX =    0.0                 !
 ! A12   A(4,2,12)             132.6946         -DE/DX =    0.0                 !
 ! A13   A(11,2,12)            106.9916         -DE/DX =    0.0                 !
 ! A14   A(2,3,6)              123.0981         -DE/DX =    0.0                 !
 ! A15   A(2,3,10)             114.6179         -DE/DX =    0.0                 !
 ! A16   A(6,3,10)             122.2789         -DE/DX =    0.0                 !
 ! A17   A(1,4,5)              159.7692         -DE/DX =    0.0                 !
 ! A18   A(1,4,11)              54.0444         -DE/DX =    0.0                 !
 ! A19   A(2,4,5)              160.1012         -DE/DX =    0.0                 !
 ! A20   A(5,4,11)             145.7751         -DE/DX =    0.0                 !
 ! A21   A(4,5,7)              102.9009         -DE/DX =    0.0                 !
 ! D1    D(8,1,2,3)           -175.5869         -DE/DX =    0.0                 !
 ! D2    D(8,1,2,11)            -5.3643         -DE/DX =    0.0                 !
 ! D3    D(8,1,2,12)            88.2335         -DE/DX =    0.0                 !
 ! D4    D(9,1,2,3)              7.314          -DE/DX =    0.0                 !
 ! D5    D(9,1,2,11)           177.5366         -DE/DX =    0.0                 !
 ! D6    D(9,1,2,12)           -88.8656         -DE/DX =    0.0                 !
 ! D7    D(8,1,4,5)            -80.3547         -DE/DX =    0.0                 !
 ! D8    D(8,1,4,11)            89.927          -DE/DX =    0.0                 !
 ! D9    D(9,1,4,5)             44.2269         -DE/DX =    0.0                 !
 ! D10   D(9,1,4,11)          -145.4914         -DE/DX =    0.0                 !
 ! D11   D(1,2,3,6)            -26.7549         -DE/DX =    0.0                 !
 ! D12   D(1,2,3,10)           154.0528         -DE/DX =    0.0                 !
 ! D13   D(4,2,3,6)            -96.7327         -DE/DX =    0.0                 !
 ! D14   D(4,2,3,10)            84.075          -DE/DX =    0.0                 !
 ! D15   D(11,2,3,6)           163.1272         -DE/DX =    0.0                 !
 ! D16   D(11,2,3,10)          -16.0651         -DE/DX =    0.0                 !
 ! D17   D(12,2,3,6)            38.955          -DE/DX =    0.0                 !
 ! D18   D(12,2,3,10)         -140.2374         -DE/DX =    0.0                 !
 ! D19   D(3,2,4,5)            -40.8479         -DE/DX =    0.0                 !
 ! D20   D(12,2,4,5)          -156.923          -DE/DX =    0.0                 !
 ! D21   D(1,4,5,7)            110.3209         -DE/DX =    0.0                 !
 ! D22   D(2,4,5,7)           -103.3861         -DE/DX =    0.0                 !
 ! D23   D(11,4,5,7)           -55.6188         -DE/DX =    0.0                 !
 --------------------------------------------------------------------------------
 GradGradGradGradGradGradGradGradGradGradGradGradGradGradGradGradGradGrad


 ----------------------------------------------------------------------

 Electric dipole moment (input orientation):
 (Debye = 10**-18 statcoulomb cm , SI units = C m)
                  (au)            (Debye)         (10**-30 SI)
   Tot        0.217795D+01      0.553580D+01      0.184654D+02
   x          0.546364D+00      0.138872D+01      0.463227D+01
   y         -0.107526D+01     -0.273303D+01     -0.911641D+01
   z         -0.181350D+01     -0.460945D+01     -0.153755D+02

 Dipole polarizability, Alpha (input orientation).
 (esu units = cm**3 , SI units = C**2 m**2 J**-1)
 Alpha(0;0):
               (au)            (10**-24 esu)      (10**-40 SI)
   iso        0.674965D+02      0.100019D+02      0.111287D+02
   aniso      0.476562D+02      0.706193D+01      0.785745D+01
   xx         0.794490D+02      0.117731D+02      0.130994D+02
   yx        -0.233278D+02     -0.345683D+01     -0.384624D+01
   yy         0.684090D+02      0.101372D+02      0.112791D+02
   zx         0.174800D+01      0.259027D+00      0.288207D+00
   zy        -0.742937D+01     -0.110092D+01     -0.122494D+01
   zz         0.546315D+02      0.809555D+01      0.900752D+01

 ----------------------------------------------------------------------

 Dipole orientation:
     6          3.25821022         -4.60756758          3.06609149
     6          1.71375480         -2.42149133          3.10535255
     6          1.72842794         -0.67258043          0.89517789
     8         -0.19004103         -5.18116514          0.87929049
     8         -1.90066720         -6.25425998         -0.87884831
     8          3.52718888         -0.45293606         -0.52033501
     1         -3.18100474         -7.01603690          0.20535365
     1          3.17622691         -5.97171361          4.59085694
     1          4.58853276         -4.84667294          1.52849259
     1         -0.02132292          0.43678554          0.65336740
     1          0.32145183         -2.20014374          4.59562826
     1          3.94706010         -2.38069295          4.18735737

 Electric dipole moment (dipole orientation):
 (Debye = 10**-18 statcoulomb cm , SI units = C m)
                  (au)            (Debye)         (10**-30 SI)
   Tot        0.217795D+01      0.553580D+01      0.184654D+02
   x          0.000000D+00      0.000000D+00      0.000000D+00
   y          0.000000D+00      0.000000D+00      0.000000D+00
   z          0.217795D+01      0.553580D+01      0.184654D+02

 Dipole polarizability, Alpha (dipole orientation).
 (esu units = cm**3 , SI units = C**2 m**2 J**-1)
 Alpha(0;0):
               (au)            (10**-24 esu)      (10**-40 SI)
   iso        0.674965D+02      0.100019D+02      0.111287D+02
   aniso      0.476562D+02      0.706193D+01      0.785745D+01
   xx         0.753870D+02      0.111712D+02      0.124296D+02
   yx         0.193822D+02      0.287215D+01      0.319569D+01
   yy         0.686111D+02      0.101671D+02      0.113124D+02
   zx         0.163210D+02      0.241852D+01      0.269097D+01
   zy         0.653428D+01      0.968280D+00      0.107736D+01
   zz         0.584913D+02      0.866752D+01      0.964391D+01

 ----------------------------------------------------------------------
 1\1\GINC-BELL-A103\Freq\RB3LYP\6-31+G(d)\C3H6O3\ZHAO922\23-Dec-2020\0\
 \#N Geom=AllCheck Guess=TCheck SCRF=Check GenChk RB3LYP/6-31+G(d) Freq
 \\pp_9_0 TS\\0,1\C,2.2367631063,1.429426138,-2.1222244167\C,1.37457161
 16,0.3609703505,-1.7734262278\C,1.0261244895,0.1365194489,-0.340704891
 7\O,0.2049008511,2.1405900812,-1.7662744757\O,-0.8642569479,3.03107206
 73,-1.4990305493\O,1.7495373089,0.4698843447,0.5791764661\H,-1.3473464
 494,3.0515327227,-2.3457419126\H,2.4460662619,1.6540076937,-3.16134999
 88\H,2.7209998425,1.9884078014,-1.330585004\H,0.0602184048,-0.37185451
 87,-0.1766087659\H,0.8530153905,-0.1797171649,-2.5570810361\H,2.657981
 1303,0.1394390352,-1.9430551875\\Version=ES64L-G16RevB.01\State=1-A\HF
 =-343.3590248\RMSD=3.384e-09\RMSF=1.002e-05\ZeroPoint=0.0859268\Therma
 l=0.0932823\Dipole=0.5463641,-1.0752569,-1.8134978\DipoleDeriv=-0.5090
 04,0.2285932,0.0296249,-0.286802,0.5637222,0.0268226,0.1645023,-0.1321
 58,0.0714632,0.8024001,-0.2942337,0.0202744,0.3748172,-0.4734995,0.147
 2735,-0.3043805,0.4709073,-0.2144747,0.6776039,0.1119546,0.3074552,0.2
 616206,0.3083275,-0.0892944,0.470944,-0.730093,1.4836356,0.3681757,-0.
 7099744,0.0889154,-0.6351772,0.1365295,0.0275452,-0.125805,0.1621079,-
 0.5860594,-1.1370995,0.8066672,-0.0054149,0.6868613,-0.8587083,0.04423
 36,0.1173851,-0.0088138,-0.0120454,-0.6506325,0.0834406,-0.4369985,-0.
 1964707,-0.2318365,-0.1604692,-0.3728598,0.3180347,-1.0911977,0.256971
 6,0.0388817,-0.0346904,0.0773508,0.2652797,-0.0298487,0.0083896,-0.107
 4893,0.1258829,0.1290963,-0.020236,-0.0018426,-0.03602,0.0942167,0.013
 4752,0.0084832,0.006518,0.0388473,0.132766,-0.013776,0.0018623,-0.0072
 536,0.1022295,0.0202021,-0.0022462,-0.0110743,0.0705589,-0.1130647,-0.
 1370758,0.0107104,-0.0770264,-0.0540232,0.0346565,0.0044386,0.0375964,
 0.0101966,0.0996876,-0.1029933,-0.0013378,-0.0607056,0.1183989,-0.0324
 239,-0.006555,-0.0196145,0.0182153,-0.0569004,0.0087518,0.0214414,-0.1
 011945,0.0293634,-0.0021724,0.0377036,0.0140786,0.0849773\Polar=79.448
 9502,-23.327825,68.4089558,1.7480039,-7.4293663,54.6315107\Quadrupole=
 2.2917457,-0.4287242,-1.8630215,1.336288,-1.6792041,0.2599033\PG=C01 [
 X(C3H6O3)]\NImag=1\\0.31852192,0.32740575,0.35687858,-0.00459969,0.003
 89940,0.70287777,-0.07517772,-0.27098733,0.04345606,0.30916086,-0.1958
 3202,-0.16101161,0.04553128,0.30984412,0.41733021,0.02027221,0.0585054
 8,-0.11906465,0.04886338,0.03434995,0.59087794,-0.01048340,-0.01165275
 ,0.02410433,-0.09345210,-0.02377591,0.04438882,0.66478193,-0.00064023,
 -0.00693577,0.02960015,-0.04330012,-0.07440239,0.02762848,0.26146698,0
 .30330002,0.01948514,0.00726619,-0.00498164,0.02254139,0.01515160,-0.1
 7812898,0.17415441,0.07677120,0.71054276,-0.02030771,0.00434160,0.0002
 2248,0.00475067,-0.02088515,0.01308411,-0.00966986,-0.00376086,-0.0188
 7738,0.21445273,-0.03848057,0.00959199,0.00558518,0.02787778,-0.036071
 90,-0.00664435,0.00453242,-0.00289135,0.01324030,-0.10890814,0.1691243
 8,0.00682908,-0.00254844,-0.00397906,-0.00463628,0.01349114,-0.0031374
 9,0.00324209,-0.00167228,0.00057967,-0.02317102,0.00568696,0.04743293,
 0.00294228,-0.00739932,0.00346568,-0.01251991,0.02511922,-0.01160310,-
 0.00062652,0.00101971,0.01865435,-0.14592828,0.09994498,0.03590862,0.2
 6579669,0.02924676,-0.01396231,-0.00102415,-0.01732258,0.00648069,0.00
 342675,0.00101292,-0.00195806,-0.01144437,0.08792534,-0.10810785,-0.03
 613151,-0.12006098,0.12498161,-0.00342202,0.00357440,-0.00218571,0.003
 63523,-0.00804723,0.00213076,-0.00067344,-0.00069067,-0.00228312,0.004
 12520,-0.01328444,-0.05358135,0.16425944,0.04884027,0.44504411,-0.0023
 8315,0.00460192,-0.00084918,0.01859462,0.00136865,-0.02213400,-0.32602
 309,-0.12916809,-0.27376994,0.00634735,-0.00245758,-0.00444568,-0.0032
 7777,0.00098209,0.00102733,0.32795152,-0.00250773,0.00096672,-0.001636
 56,0.00510102,0.01545796,-0.00860412,-0.12790340,-0.12029526,-0.129681
 09,0.00676054,-0.00178975,0.00079820,-0.00381870,0.00251463,0.00066468
 ,0.14294450,0.09342034,-0.00637509,-0.00025070,0.00213706,-0.02276745,
 -0.01024528,-0.06943504,-0.28652889,-0.13377772,-0.44258770,0.00900258
 ,-0.00516520,-0.00377765,-0.00937641,0.00469311,0.00207924,0.33340212,
 0.15333928,0.51150044,0.00193558,-0.00126434,-0.00238070,-0.00215975,0
 .00095341,0.00210362,-0.00025163,0.00009350,-0.00114796,-0.03040760,0.
 01266524,-0.01953171,-0.11237037,0.01258161,-0.16666172,0.00067581,0.0
 0019476,0.00113593,0.14251477,0.00038571,-0.00244558,-0.00203348,0.000
 13636,0.00240575,0.00219309,0.00003080,0.00115347,-0.00092960,0.024934
 42,-0.01197697,0.02240541,0.00006780,-0.01830127,-0.03114033,0.0005430
 8,-0.00010188,0.00087607,-0.02682093,0.02953069,0.00042479,0.00142124,
 0.00082271,-0.00041135,-0.00173186,0.00026711,-0.00002790,-0.00039610,
 -0.00141652,0.01294778,-0.00151924,0.01779612,-0.19938355,-0.00698454,
 -0.39456741,0.00013160,0.00034272,0.00050279,0.18635064,0.00941024,0.3
 7649471,-0.04611715,-0.03128721,0.05573435,-0.00642400,0.00010281,0.02
 028984,-0.00012045,-0.00401729,-0.00023193,-0.00132536,0.00016586,0.00
 214780,-0.00058920,-0.00069608,-0.00007573,0.00030229,0.00076508,-0.00
 009054,0.00000149,0.00030855,-0.00001710,0.04486861,-0.01946810,-0.056
 28011,0.04823851,-0.00098691,-0.00586743,0.02395490,-0.00600289,-0.002
 96778,-0.00483322,0.00228344,-0.00086811,-0.00178938,0.00018504,0.0005
 3026,-0.00036775,0.00225515,0.00134683,0.00027528,-0.00011669,-0.00016
 778,0.00011797,0.02431232,0.05942439,0.05457340,0.05816135,-0.34059473
 ,-0.00027704,-0.00076031,0.00010443,-0.00129314,0.00065119,0.00030940,
 -0.00022865,-0.00059592,0.00053915,-0.00019721,0.00035200,0.00032121,0
 .00074796,0.00031163,0.00050889,0.00005738,-0.00005846,0.00003384,-0.0
 5855680,-0.06417742,0.34956066,-0.09680945,-0.09062720,-0.10043649,-0.
 01201565,-0.00565583,-0.01313916,-0.00141418,0.00012297,-0.00275545,-0
 .00386191,0.00055186,-0.00136790,0.00004009,-0.00013990,0.00026440,0.0
 0090836,0.00134198,0.00040927,-0.00020996,-0.00045230,0.00015755,0.004
 97378,0.00376671,0.00498648,0.10024152,-0.07724899,-0.12085474,-0.1085
 4826,-0.00665310,-0.01347809,-0.01604015,-0.00116481,-0.00043961,-0.00
 098791,0.00387793,-0.00084574,0.00076520,0.00043057,-0.00001700,0.0004
 2649,0.00153923,0.00061842,-0.00002001,0.00036242,0.00018890,-0.000195
 99,0.00385649,0.00824236,0.00629095,0.08702883,0.13425452,-0.10471983,
 -0.11546433,-0.22469135,0.00281353,0.00459529,0.01229069,0.00187765,0.
 00077923,0.00025412,0.00060459,0.00113154,-0.00017181,0.00062576,-0.00
 054845,0.00008550,-0.00022768,-0.00061763,-0.00088596,0.00000554,-0.00
 000546,-0.00012095,-0.01049439,-0.01321555,-0.01025759,0.10643134,0.12
 195415,0.22395104,0.00125771,0.00191048,0.00178214,-0.00483755,-0.0088
 7476,0.00202849,-0.22831145,-0.09337881,0.05196171,0.00144368,0.000731
 84,-0.00090136,0.00061328,-0.00071043,0.00013418,-0.02232007,-0.019674
 73,-0.01856653,-0.00001491,-0.00008328,-0.00003378,-0.00010571,-0.0004
 3223,-0.00011675,0.00008407,0.00027492,-0.00062665,0.25225213,-0.00025
 609,0.00037651,-0.00044465,-0.00589786,0.00923101,0.00360794,-0.093501
 85,-0.10273317,0.02159607,-0.00291099,0.00145439,0.00174300,0.00198111
 ,-0.00071554,-0.00060380,-0.01917116,0.00865134,-0.00791859,-0.0001797
 1,-0.00021966,-0.00009151,-0.00024720,0.00017098,-0.00015962,-0.000001
 91,0.00012196,-0.00002613,0.12026879,0.08443083,0.00096267,-0.00244664
 ,-0.00536650,0.02502286,0.01478066,-0.00419968,0.04619047,0.02266361,-
 0.07132777,0.00041457,-0.00124230,0.00083942,-0.00085945,0.00062599,0.
 00002862,-0.03588247,-0.01792206,0.00659838,-0.00004480,0.00001449,0.0
 0006223,0.00071347,0.00162608,-0.00004198,0.00004729,-0.00001311,-0.00
 006026,-0.03636877,-0.01932097,0.07411879,-0.01016718,-0.00369733,-0.0
 1214348,-0.10758404,-0.07907843,-0.09728064,0.00798561,0.00601063,0.00
 413481,-0.00304350,0.00458891,0.00126861,0.00164711,0.00003171,0.00007
 212,0.00042908,-0.00165158,0.00250114,-0.00010447,-0.00010141,-0.00008
 261,-0.00048629,0.00093520,0.00033253,0.00101220,-0.00303448,0.0022914
 0,-0.00025375,0.00006690,-0.00049904,0.11794770,-0.00789964,-0.0150574
 8,-0.01844232,-0.08870569,-0.10948727,-0.10568797,0.00478051,0.0043182
 1,0.00431408,0.00176232,-0.00237505,-0.00134555,-0.00146296,-0.0000921
 6,0.00076790,-0.00107502,0.00090448,0.00229347,0.00022539,-0.00003721,
 -0.00002551,0.00180096,-0.00035318,-0.00011707,-0.00407711,-0.00049998
 ,0.00154152,-0.00000163,-0.00085441,-0.00051620,0.08756810,0.11666485,
 0.00731316,0.00654255,0.01144732,-0.09909904,-0.11292076,-0.21634060,-
 0.01895348,-0.01360260,-0.00626879,0.00067250,0.00016746,0.00062239,-0
 .00031894,0.00038996,0.00010096,0.00234480,0.00130558,-0.00756733,-0.0
 0003178,-0.00005715,0.00007320,0.00009964,-0.00051796,0.00073814,0.000
 52443,0.00294686,-0.00067016,0.00097908,0.00107204,0.00032434,0.107060
 64,0.11304312,0.21779790,-0.06321173,0.07865571,-0.00835551,-0.0183354
 4,-0.00328612,-0.00687358,-0.00241486,0.00555160,0.00585085,-0.0124502
 1,-0.00121260,0.00465775,0.00427261,0.00714953,-0.00268499,-0.00120494
 ,-0.00155173,-0.00274612,0.00039105,0.00105120,-0.00005607,0.00502199,
 -0.00673104,-0.00002816,0.00705112,-0.00926900,0.00141874,0.00019257,-
 0.00015003,0.00030321,-0.00738246,0.00708476,-0.00059102,0.08807030,-0
 .01470484,0.00873380,-0.00072511,0.09089431,-0.05058692,-0.01669000,-0
 .00782202,0.00385168,0.00953675,0.00457955,-0.01524404,-0.00140275,0.0
 0399353,0.00864700,-0.00013954,-0.00236277,-0.00169383,-0.00409972,0.0
 0130533,-0.00002846,-0.00034740,0.00493571,-0.00321042,0.00010168,0.00
 814190,-0.00729102,-0.00012418,-0.00003017,0.00008577,0.00175043,-0.01
 163821,0.00686921,0.00163089,-0.07729230,0.04986724,0.00925618,-0.0186
 6050,-0.01642121,-0.01914128,0.00580552,-0.01536448,0.01351908,-0.0079
 5450,-0.00469142,0.00120322,0.00263999,-0.00316232,-0.00117519,-0.0021
 9507,0.00282720,-0.00034487,0.00169937,0.00092688,0.00014556,-0.000674
 82,0.00005216,-0.00951861,0.01068855,-0.00122143,0.00487826,-0.0065782
 3,0.00027674,-0.00027176,0.00054622,-0.00097560,-0.00765549,0.00417453
 ,-0.00025736,0.00910490,0.01050894,0.03801084\\-0.00002097,-0.00002251
 ,0.00001600,0.00002711,0.00002886,0.00000350,0.00000346,0.00000420,0.0
 0000034,-0.00000536,-0.00000864,-0.00001549,0.00000705,0.00000446,0.00
 000825,-0.00000166,-0.00000163,0.00000111,0.00000006,-0.00000038,-0.00
 000038,0.00000022,-0.00000377,0.00000062,0.00000057,-0.00000185,0.0000
 0081,-0.00000114,-0.00000034,-0.00000132,-0.00000337,-0.00000356,-0.00
 001430,-0.00000597,0.00000516,0.00000086\\\@


 ... IT IS NO ONE DREAME THAT
     CAN PLEASE THESE ALL ...

                -- BEN JONSON
 Job cpu time:       0 days  0 hours  4 minutes 22.9 seconds.
 Elapsed time:       0 days  0 hours  0 minutes 16.7 seconds.
 File lengths (MBytes):  RWF=     28 Int=      0 D2E=      0 Chk=      3 Scr=      1
 Normal termination of Gaussian 16 at Wed Dec 23 22:06:11 2020.
