 Entering Gaussian System, Link 0=g16
 Initial command:
 /apps/cent7/gaussian/g16-B.01/g16-haswell/g16/l1.exe "/scratch/bell/zhao922/YARP/paper-example/KHP-network/pp_0/TS-folder/Gau-3210.inp" -scrdir="/scratch/bell/zhao922/YARP/paper-example/KHP-network/pp_0/TS-folder/"
 Entering Link 1 = /apps/cent7/gaussian/g16-B.01/g16-haswell/g16/l1.exe PID=      3213.
  
 Copyright (c) 1988-2017, Gaussian, Inc.  All Rights Reserved.
  
 This is part of the Gaussian(R) 16 program.  It is based on
 the Gaussian(R) 09 system (copyright 2009, Gaussian, Inc.),
 the Gaussian(R) 03 system (copyright 2003, Gaussian, Inc.),
 the Gaussian(R) 98 system (copyright 1998, Gaussian, Inc.),
 the Gaussian(R) 94 system (copyright 1995, Gaussian, Inc.),
 the Gaussian 92(TM) system (copyright 1992, Gaussian, Inc.),
 the Gaussian 90(TM) system (copyright 1990, Gaussian, Inc.),
 the Gaussian 88(TM) system (copyright 1988, Gaussian, Inc.),
 the Gaussian 86(TM) system (copyright 1986, Carnegie Mellon
 University), and the Gaussian 82(TM) system (copyright 1983,
 Carnegie Mellon University). Gaussian is a federally registered
 trademark of Gaussian, Inc.
  
 This software contains proprietary and confidential information,
 including trade secrets, belonging to Gaussian, Inc.
  
 This software is provided under written license and may be
 used, copied, transmitted, or stored only in accord with that
 written license.
  
 The following legend is applicable only to US Government
 contracts under FAR:
  
                    RESTRICTED RIGHTS LEGEND
  
 Use, reproduction and disclosure by the US Government is
 subject to restrictions as set forth in subparagraphs (a)
 and (c) of the Commercial Computer Software - Restricted
 Rights clause in FAR 52.227-19.
  
 Gaussian, Inc.
 340 Quinnipiac St., Bldg. 40, Wallingford CT 06492
  
  
 ---------------------------------------------------------------
 Warning -- This program may not be used in any manner that
 competes with the business of Gaussian, Inc. or will provide
 assistance to any competitor of Gaussian, Inc.  The licensee
 of this program is prohibited from giving any competitor of
 Gaussian, Inc. access to this program.  By using this program,
 the user acknowledges that Gaussian, Inc. is engaged in the
 business of creating and licensing software in the field of
 computational chemistry and represents and warrants to the
 licensee that it is not a competitor of Gaussian, Inc. and that
 it will not use this program in any manner prohibited above.
 ---------------------------------------------------------------
  

 Cite this work as:
 Gaussian 16, Revision B.01,
 M. J. Frisch, G. W. Trucks, H. B. Schlegel, G. E. Scuseria, 
 M. A. Robb, J. R. Cheeseman, G. Scalmani, V. Barone, 
 G. A. Petersson, H. Nakatsuji, X. Li, M. Caricato, A. V. Marenich, 
 J. Bloino, B. G. Janesko, R. Gomperts, B. Mennucci, H. P. Hratchian, 
 J. V. Ortiz, A. F. Izmaylov, J. L. Sonnenberg, D. Williams-Young, 
 F. Ding, F. Lipparini, F. Egidi, J. Goings, B. Peng, A. Petrone, 
 T. Henderson, D. Ranasinghe, V. G. Zakrzewski, J. Gao, N. Rega, 
 G. Zheng, W. Liang, M. Hada, M. Ehara, K. Toyota, R. Fukuda, 
 J. Hasegawa, M. Ishida, T. Nakajima, Y. Honda, O. Kitao, H. Nakai, 
 T. Vreven, K. Throssell, J. A. Montgomery, Jr., J. E. Peralta, 
 F. Ogliaro, M. J. Bearpark, J. J. Heyd, E. N. Brothers, K. N. Kudin, 
 V. N. Staroverov, T. A. Keith, R. Kobayashi, J. Normand, 
 K. Raghavachari, A. P. Rendell, J. C. Burant, S. S. Iyengar, 
 J. Tomasi, M. Cossi, J. M. Millam, M. Klene, C. Adamo, R. Cammi, 
 J. W. Ochterski, R. L. Martin, K. Morokuma, O. Farkas, 
 J. B. Foresman, and D. J. Fox, Gaussian, Inc., Wallingford CT, 2016.
 
 ******************************************
 Gaussian 16:  ES64L-G16RevB.01 20-Dec-2017
                23-Dec-2020 
 ******************************************
 %NProcShared=16
 Will use up to   16 processors via shared memory.
 %Mem=6GB
 --------------------------------------------------------------
 # B3LYP/6-31+G* OPT=(TS, CALCALL, NOEIGEN, maxcycles=100) Freq
 --------------------------------------------------------------
 1/5=1,6=100,10=4,11=1,18=20,26=3,38=1/1,3;
 2/9=110,12=2,17=6,18=5,40=1/2;
 3/5=1,6=6,7=11,11=2,25=1,30=1,71=2,74=-5,140=1/1,2,3;
 4//1;
 5/5=2,38=5/2;
 8/6=4,10=90,11=11/1;
 11/6=1,8=1,9=11,15=111,16=1/1,2,10;
 10/6=1/2;
 6/7=2,8=2,9=2,10=2,18=1,28=1/1;
 7/10=1,25=1/1,2,3,16;
 1/5=1,6=100,10=4,11=1,18=20,26=3/3(3);
 2/9=110/2;
 7/8=1,9=1,25=1,44=-1/16;
 99//99;
 2/9=110/2;
 3/5=1,6=6,7=11,11=2,25=1,30=1,71=2,74=-5,140=1/1,2,3;
 4/5=5,16=3,69=1/1;
 5/5=2,38=5/2;
 8/6=4,10=90,11=11/1;
 11/6=1,8=1,9=11,15=111,16=1/1,2,10;
 10/6=1/2;
 7/10=1,25=1/1,2,3,16;
 1/5=1,6=100,10=4,11=1,18=20,26=3/3(-8);
 2/9=110/2;
 6/7=2,8=2,9=2,10=2,18=1,19=2,28=1/1;
 7/8=1,9=1,25=1,44=-1/16;
 99//99;
 ---------
 pp_9_1 TS
 ---------
 Symbolic Z-matrix:
 Charge =  0 Multiplicity = 1
 C                     1.96249   1.22987  -2.87153 
 C                     1.06833   0.82819  -1.5582 
 C                     0.38701  -0.22555  -0.71535 
 O                     1.13251   2.05686  -0.78656 
 O                     0.00103   2.87453  -1.06524 
 O                     0.30742  -0.17309   0.4882 
 H                    -0.24623   3.2173   -0.19469 
 H                     1.54464   2.11719  -3.31439 
 H                     2.33116   0.43871  -3.49995 
 H                    -0.00253  -1.0821   -1.29746 
 H                     0.50949   0.59266  -2.53002 
 H                     2.34053   0.73486  -1.30608 
 

 GradGradGradGradGradGradGradGradGradGradGradGradGradGradGradGradGradGrad
 Berny optimization.
 Initialization pass.
                           ----------------------------
                           !    Initial Parameters    !
                           ! (Angstroms and Degrees)  !
 --------------------------                            --------------------------
 ! Name  Definition              Value          Derivative Info.                !
 --------------------------------------------------------------------------------
 ! R1    R(1,2)                  1.6388         calculate D2E/DX2 analytically  !
 ! R2    R(1,8)                  1.0761         calculate D2E/DX2 analytically  !
 ! R3    R(1,9)                  1.0755         calculate D2E/DX2 analytically  !
 ! R4    R(2,3)                  1.5116         calculate D2E/DX2 analytically  !
 ! R5    R(2,4)                  1.4523         calculate D2E/DX2 analytically  !
 ! R6    R(2,11)                 1.1455         calculate D2E/DX2 analytically  !
 ! R7    R(2,12)                 1.3003         calculate D2E/DX2 analytically  !
 ! R8    R(3,6)                  1.2073         calculate D2E/DX2 analytically  !
 ! R9    R(3,10)                 1.1065         calculate D2E/DX2 analytically  !
 ! R10   R(4,5)                  1.4235         calculate D2E/DX2 analytically  !
 ! R11   R(5,7)                  0.9677         calculate D2E/DX2 analytically  !
 ! A1    A(2,1,8)              108.666          calculate D2E/DX2 analytically  !
 ! A2    A(2,1,9)              118.3573         calculate D2E/DX2 analytically  !
 ! A3    A(8,1,9)              119.9458         calculate D2E/DX2 analytically  !
 ! A4    A(1,2,3)              149.7263         calculate D2E/DX2 analytically  !
 ! A5    A(1,2,4)              101.2054         calculate D2E/DX2 analytically  !
 ! A6    A(1,2,11)              68.6968         calculate D2E/DX2 analytically  !
 ! A7    A(1,2,12)              68.8481         calculate D2E/DX2 analytically  !
 ! A8    A(3,2,4)              108.2652         calculate D2E/DX2 analytically  !
 ! A9    A(3,2,11)              96.305          calculate D2E/DX2 analytically  !
 ! A10   A(3,2,12)             106.4294         calculate D2E/DX2 analytically  !
 ! A11   A(4,2,11)             130.2607         calculate D2E/DX2 analytically  !
 ! A12   A(4,2,12)              85.0934         calculate D2E/DX2 analytically  !
 ! A13   A(11,2,12)            128.8325         calculate D2E/DX2 analytically  !
 ! A14   A(2,3,6)              123.7288         calculate D2E/DX2 analytically  !
 ! A15   A(2,3,10)             113.8901         calculate D2E/DX2 analytically  !
 ! A16   A(6,3,10)             122.3363         calculate D2E/DX2 analytically  !
 ! A17   A(2,4,5)              110.2919         calculate D2E/DX2 analytically  !
 ! A18   A(4,5,7)              103.3224         calculate D2E/DX2 analytically  !
 ! D1    D(8,1,2,3)            137.6262         calculate D2E/DX2 analytically  !
 ! D2    D(8,1,2,4)            -55.6815         calculate D2E/DX2 analytically  !
 ! D3    D(8,1,2,11)            73.3608         calculate D2E/DX2 analytically  !
 ! D4    D(8,1,2,12)          -135.8855         calculate D2E/DX2 analytically  !
 ! D5    D(9,1,2,3)             -3.7329         calculate D2E/DX2 analytically  !
 ! D6    D(9,1,2,4)            162.9594         calculate D2E/DX2 analytically  !
 ! D7    D(9,1,2,11)           -67.9983         calculate D2E/DX2 analytically  !
 ! D8    D(9,1,2,12)            82.7554         calculate D2E/DX2 analytically  !
 ! D9    D(1,2,3,6)            145.2917         calculate D2E/DX2 analytically  !
 ! D10   D(1,2,3,10)           -32.3189         calculate D2E/DX2 analytically  !
 ! D11   D(4,2,3,6)            -20.9532         calculate D2E/DX2 analytically  !
 ! D12   D(4,2,3,10)           161.4362         calculate D2E/DX2 analytically  !
 ! D13   D(11,2,3,6)          -157.1038         calculate D2E/DX2 analytically  !
 ! D14   D(11,2,3,10)           25.2856         calculate D2E/DX2 analytically  !
 ! D15   D(12,2,3,6)            69.2426         calculate D2E/DX2 analytically  !
 ! D16   D(12,2,3,10)         -108.368          calculate D2E/DX2 analytically  !
 ! D17   D(1,2,4,5)             94.2763         calculate D2E/DX2 analytically  !
 ! D18   D(3,2,4,5)            -92.7427         calculate D2E/DX2 analytically  !
 ! D19   D(11,2,4,5)            22.7919         calculate D2E/DX2 analytically  !
 ! D20   D(12,2,4,5)           161.5572         calculate D2E/DX2 analytically  !
 ! D21   D(2,4,5,7)            138.7722         calculate D2E/DX2 analytically  !
 --------------------------------------------------------------------------------
 Trust Radius=3.00D-01 FncErr=1.00D-07 GrdErr=1.00D-06 EigMax=2.50D+02 EigMin=1.00D-04
 Number of steps in this run=    100 maximum allowed number of steps=    100.
 Search for a saddle point of order  1.
 GradGradGradGradGradGradGradGradGradGradGradGradGradGradGradGradGradGrad

                          Input orientation:                          
 ---------------------------------------------------------------------
 Center     Atomic      Atomic             Coordinates (Angstroms)
 Number     Number       Type             X           Y           Z
 ---------------------------------------------------------------------
      1          6           0        1.962485    1.229873   -2.871530
      2          6           0        1.068332    0.828192   -1.558202
      3          6           0        0.387013   -0.225554   -0.715351
      4          8           0        1.132507    2.056858   -0.786560
      5          8           0        0.001031    2.874526   -1.065241
      6          8           0        0.307421   -0.173088    0.488200
      7          1           0       -0.246228    3.217304   -0.194693
      8          1           0        1.544643    2.117188   -3.314394
      9          1           0        2.331160    0.438709   -3.499948
     10          1           0       -0.002534   -1.082104   -1.297464
     11          1           0        0.509493    0.592661   -2.530023
     12          1           0        2.340526    0.734860   -1.306079
 ---------------------------------------------------------------------
                    Distance matrix (angstroms):
                    1          2          3          4          5
     1  C    0.000000
     2  C    1.638807   0.000000
     3  C    3.041297   1.511613   0.000000
     4  O    2.391624   1.452298   2.402132   0.000000
     5  O    3.132869   2.360005   3.143549   1.423546   0.000000
     6  O    3.999415   2.401938   1.207320   2.697858   3.434386
     7  H    3.999219   3.048784   3.539117   1.896800   0.967723
     8  H    1.076127   2.229931   3.685590   2.561921   2.831075
     9  H    1.075533   2.348789   3.460482   3.379001   4.158185
    10  H    3.418219   2.205441   1.106472   3.376747   3.963441
    11  H    1.622915   1.145518   1.994370   2.360441   2.758809
    12  H    1.684811   1.300290   2.255564   1.864642   3.179530
                    6          7          8          9         10
     6  O    0.000000
     7  H    3.502517   0.000000
     8  H    4.608232   3.761650   0.000000
     9  H    4.513883   5.028740   1.862882   0.000000
    10  H    2.027555   4.445267   4.086225   3.551047   0.000000
    11  H    3.120397   3.593554   2.002737   2.069523   2.141544
    12  H    2.859602   3.753532   2.564681   2.213787   2.965023
                   11         12
    11  H    0.000000
    12  H    2.207021   0.000000
 Stoichiometry    C3H6O3
 Framework group  C1[X(C3H6O3)]
 Deg. of freedom    30
 Full point group                 C1      NOp   1
 Largest Abelian subgroup         C1      NOp   1
 Largest concise Abelian subgroup C1      NOp   1
                         Standard orientation:                         
 ---------------------------------------------------------------------
 Center     Atomic      Atomic             Coordinates (Angstroms)
 Number     Number       Type             X           Y           Z
 ---------------------------------------------------------------------
      1          6           0       -1.567301   -1.393593   -0.101336
      2          6           0       -0.151705   -0.580501    0.042392
      3          6           0        1.330468   -0.582240    0.339264
      4          8           0       -0.489423    0.686614   -0.581737
      5          8           0       -0.905251    1.626695    0.403055
      6          8           0        2.126231    0.136109   -0.216037
      7          1           0       -0.482320    2.449343    0.118682
      8          1           0       -2.348142   -0.808569    0.352627
      9          1           0       -1.557271   -2.462177    0.020313
     10          1           0        1.636381   -1.336107    1.089186
     11          1           0       -0.481629   -1.022387    1.046433
     12          1           0       -0.288246   -1.077441   -1.151410
 ---------------------------------------------------------------------
 Rotational constants (GHZ):           4.5104249           3.0521939           2.0247117
 Standard basis: 6-31+G(d) (6D, 7F)
 There are   126 symmetry adapted cartesian basis functions of A   symmetry.
 There are   126 symmetry adapted basis functions of A   symmetry.
   126 basis functions,   216 primitive gaussians,   126 cartesian basis functions
    24 alpha electrons       24 beta electrons
       nuclear repulsion energy       242.8922734998 Hartrees.
 NAtoms=   12 NActive=   12 NUniq=   12 SFac= 1.00D+00 NAtFMM=   60 NAOKFM=F Big=F
 Integral buffers will be    131072 words long.
 Raffenetti 2 integral format.
 Two-electron integral symmetry is turned on.
 One-electron integrals computed using PRISM.
 NBasis=   126 RedAO= T EigKep=  3.10D-05  NBF=   126
 NBsUse=   126 1.00D-06 EigRej= -1.00D+00 NBFU=   126
 ExpMin= 4.38D-02 ExpMax= 5.48D+03 ExpMxC= 8.25D+02 IAcc=3 IRadAn=         5 AccDes= 0.00D+00
 Harris functional with IExCor=  402 and IRadAn=       5 diagonalized for initial guess.
 HarFok:  IExCor=  402 AccDes= 0.00D+00 IRadAn=         5 IDoV= 1 UseB2=F ITyADJ=14
 ICtDFT=  3500011 ScaDFX=  1.000000  1.000000  1.000000  1.000000
 FoFCou: FMM=F IPFlag=           0 FMFlag=      100000 FMFlg1=           0
         NFxFlg=           0 DoJE=T BraDBF=F KetDBF=T FulRan=T
         wScrn=  0.000000 ICntrl=       500 IOpCl=  0 I1Cent=   200000004 NGrid=           0
         NMat0=    1 NMatS0=      1 NMatT0=    0 NMatD0=    1 NMtDS0=    0 NMtDT0=    0
 Petite list used in FoFCou.
 Keep R1 ints in memory in canonical form, NReq=47237561.
 Requested convergence on RMS density matrix=1.00D-08 within 128 cycles.
 Requested convergence on MAX density matrix=1.00D-06.
 Requested convergence on             energy=1.00D-06.
 No special actions if energy rises.
 SCF Done:  E(RB3LYP) =  -343.223825674     A.U. after   16 cycles
            NFock= 16  Conv=0.22D-08     -V/T= 2.0087
 DoSCS=F DFT=T ScalE2(SS,OS)=  1.000000  1.000000
 Range of M.O.s used for correlation:     1   126
 NBasis=   126 NAE=    24 NBE=    24 NFC=     0 NFV=     0
 NROrb=    126 NOA=    24 NOB=    24 NVA=   102 NVB=   102

 **** Warning!!: The largest alpha MO coefficient is  0.54247176D+02


 **** Warning!!: The smallest alpha delta epsilon is  0.98952588D-01

 Symmetrizing basis deriv contribution to polar:
 IMax=3 JMax=2 DiffMx= 0.00D+00
 G2DrvN: will do    13 centers at a time, making    1 passes.
 Calling FoFCou, ICntrl=  3107 FMM=F I1Cent=   0 AccDes= 0.00D+00.
 End of G2Drv F.D. properties file   721 does not exist.
 End of G2Drv F.D. properties file   722 does not exist.
 End of G2Drv F.D. properties file   788 does not exist.
          IDoAtm=111111111111
          Differentiating once with respect to electric field.
                with respect to dipole field.
          Differentiating once with respect to nuclear coordinates.
 Keep R1 ints in memory in canonical form, NReq=47193576.
          There are    39 degrees of freedom in the 1st order CPHF.  IDoFFX=6 NUNeed=     3.
     36 vectors produced by pass  0 Test12= 6.28D-15 2.56D-09 XBig12= 2.27D+02 1.27D+01.
 AX will form    36 AO Fock derivatives at one time.
     36 vectors produced by pass  1 Test12= 6.28D-15 2.56D-09 XBig12= 6.23D+01 1.91D+00.
     36 vectors produced by pass  2 Test12= 6.28D-15 2.56D-09 XBig12= 8.33D-01 1.51D-01.
     36 vectors produced by pass  3 Test12= 6.28D-15 2.56D-09 XBig12= 4.69D-03 1.17D-02.
     36 vectors produced by pass  4 Test12= 6.28D-15 2.56D-09 XBig12= 7.13D-06 5.03D-04.
     32 vectors produced by pass  5 Test12= 6.28D-15 2.56D-09 XBig12= 7.30D-09 1.48D-05.
      4 vectors produced by pass  6 Test12= 6.28D-15 2.56D-09 XBig12= 6.33D-12 3.00D-07.
      3 vectors produced by pass  7 Test12= 6.28D-15 2.56D-09 XBig12= 5.91D-15 9.55D-09.
 InvSVY:  IOpt=1 It=  1 EMax= 7.11D-15
 Solved reduced A of dimension   219 with    39 vectors.
 Isotropic polarizability for W=    0.000000       68.97 Bohr**3.
 End of Minotr F.D. properties file   721 does not exist.
 End of Minotr F.D. properties file   722 does not exist.
 End of Minotr F.D. properties file   788 does not exist.

 **********************************************************************

            Population analysis using the SCF Density.

 **********************************************************************

 Orbital symmetries:
       Occupied  (A) (A) (A) (A) (A) (A) (A) (A) (A) (A) (A) (A)
                 (A) (A) (A) (A) (A) (A) (A) (A) (A) (A) (A) (A)
       Virtual   (A) (A) (A) (A) (A) (A) (A) (A) (A) (A) (A) (A)
                 (A) (A) (A) (A) (A) (A) (A) (A) (A) (A) (A) (A)
                 (A) (A) (A) (A) (A) (A) (A) (A) (A) (A) (A) (A)
                 (A) (A) (A) (A) (A) (A) (A) (A) (A) (A) (A) (A)
                 (A) (A) (A) (A) (A) (A) (A) (A) (A) (A) (A) (A)
                 (A) (A) (A) (A) (A) (A) (A) (A) (A) (A) (A) (A)
                 (A) (A) (A) (A) (A) (A) (A) (A) (A) (A) (A) (A)
                 (A) (A) (A) (A) (A) (A) (A) (A) (A) (A) (A) (A)
                 (A) (A) (A) (A) (A) (A)
 The electronic state is 1-A.
 Alpha  occ. eigenvalues --  -19.23546 -19.22842 -19.16814 -10.31066 -10.30651
 Alpha  occ. eigenvalues --  -10.22582  -1.15382  -1.06775  -0.94982  -0.81313
 Alpha  occ. eigenvalues --   -0.69365  -0.61067  -0.56000  -0.51963  -0.51064
 Alpha  occ. eigenvalues --   -0.49814  -0.45293  -0.43832  -0.41276  -0.39364
 Alpha  occ. eigenvalues --   -0.35519  -0.29181  -0.27296  -0.19336
 Alpha virt. eigenvalues --   -0.09441  -0.05567  -0.00244   0.01312   0.02080
 Alpha virt. eigenvalues --    0.03455   0.03528   0.05165   0.07306   0.07508
 Alpha virt. eigenvalues --    0.08410   0.08987   0.11311   0.11944   0.13262
 Alpha virt. eigenvalues --    0.15127   0.15915   0.17422   0.18173   0.19569
 Alpha virt. eigenvalues --    0.20409   0.22164   0.22378   0.24488   0.24932
 Alpha virt. eigenvalues --    0.25869   0.28339   0.29024   0.29882   0.31547
 Alpha virt. eigenvalues --    0.32385   0.33454   0.35673   0.40715   0.43118
 Alpha virt. eigenvalues --    0.45836   0.61745   0.63827   0.65148   0.69742
 Alpha virt. eigenvalues --    0.73723   0.76999   0.77644   0.82068   0.87046
 Alpha virt. eigenvalues --    0.88153   0.91368   0.96034   0.98840   1.03274
 Alpha virt. eigenvalues --    1.04928   1.08409   1.11398   1.12918   1.15561
 Alpha virt. eigenvalues --    1.18059   1.22101   1.24370   1.25591   1.28305
 Alpha virt. eigenvalues --    1.31618   1.32978   1.34722   1.45723   1.52112
 Alpha virt. eigenvalues --    1.53912   1.57602   1.58255   1.61078   1.61447
 Alpha virt. eigenvalues --    1.72513   1.75077   1.78233   1.79813   1.80774
 Alpha virt. eigenvalues --    1.83750   1.93560   1.97060   1.99224   2.06692
 Alpha virt. eigenvalues --    2.07615   2.12592   2.14903   2.22208   2.25939
 Alpha virt. eigenvalues --    2.32421   2.39418   2.44910   2.52546   2.55480
 Alpha virt. eigenvalues --    2.63608   2.72886   2.89645   2.92780   3.09736
 Alpha virt. eigenvalues --    3.11617   3.98160   4.10406   4.16904   4.21009
 Alpha virt. eigenvalues --    4.42017   4.51414
          Condensed to atoms (all electrons):
               1          2          3          4          5          6
     1  C    7.938366  -1.175458  -0.723035  -0.019177  -0.091020   0.013335
     2  C   -1.175458   8.256718  -0.859637   0.103639  -0.169067  -0.257199
     3  C   -0.723035  -0.859637   6.534194  -0.146489   0.149248   0.575160
     4  O   -0.019177   0.103639  -0.146489   8.026647   0.127689   0.008570
     5  O   -0.091020  -0.169067   0.149248   0.127689   8.338846   0.015071
     6  O    0.013335  -0.257199   0.575160   0.008570   0.015071   8.098013
     7  H    0.001114  -0.004899   0.010454  -0.025637   0.196467  -0.000995
     8  H    0.318104   0.039426   0.013073  -0.016130   0.002413  -0.000029
     9  H    0.410003  -0.063284  -0.023266   0.010535  -0.000196  -0.000167
    10  H    0.023840  -0.196216   0.432925   0.010001   0.000459  -0.067825
    11  H    0.083191   0.154819   0.011892  -0.011687   0.022031   0.002256
    12  H    0.033624   0.350035  -0.045330  -0.060944  -0.002615  -0.008025
               7          8          9         10         11         12
     1  C    0.001114   0.318104   0.410003   0.023840   0.083191   0.033624
     2  C   -0.004899   0.039426  -0.063284  -0.196216   0.154819   0.350035
     3  C    0.010454   0.013073  -0.023266   0.432925   0.011892  -0.045330
     4  O   -0.025637  -0.016130   0.010535   0.010001  -0.011687  -0.060944
     5  O    0.196467   0.002413  -0.000196   0.000459   0.022031  -0.002615
     6  O   -0.000995  -0.000029  -0.000167  -0.067825   0.002256  -0.008025
     7  H    0.335084  -0.000109   0.000006  -0.000017  -0.000132  -0.000311
     8  H   -0.000109   0.443770  -0.032401  -0.000140  -0.011659   0.002279
     9  H    0.000006  -0.032401   0.483625  -0.000278  -0.002953  -0.010992
    10  H   -0.000017  -0.000140  -0.000278   0.632700   0.002359  -0.002384
    11  H   -0.000132  -0.011659  -0.002953   0.002359   0.418932  -0.018140
    12  H   -0.000311   0.002279  -0.010992  -0.002384  -0.018140   0.340756
 Mulliken charges:
               1
     1  C   -0.812886
     2  C   -0.178876
     3  C    0.070812
     4  O   -0.007019
     5  O   -0.589326
     6  O   -0.378163
     7  H    0.488974
     8  H    0.241402
     9  H    0.229369
    10  H    0.164575
    11  H    0.349090
    12  H    0.422047
 Sum of Mulliken charges =  -0.00000
 Mulliken charges with hydrogens summed into heavy atoms:
               1
     1  C   -0.342114
     2  C    0.592261
     3  C    0.235387
     4  O   -0.007019
     5  O   -0.100352
     6  O   -0.378163
 APT charges:
               1
     1  C   -0.550241
     2  C   -0.094147
     3  C    1.107963
     4  O   -0.117432
     5  O   -0.367543
     6  O   -0.868591
     7  H    0.276430
     8  H    0.042693
     9  H    0.068070
    10  H   -0.041917
    11  H    0.199824
    12  H    0.344891
 Sum of APT charges =  -0.00000
 APT charges with hydrogens summed into heavy atoms:
               1
     1  C   -0.439478
     2  C    0.450568
     3  C    1.066046
     4  O   -0.117432
     5  O   -0.091113
     6  O   -0.868591
 Electronic spatial extent (au):  <R**2>=            612.1662
 Charge=             -0.0000 electrons
 Dipole moment (field-independent basis, Debye):
    X=             -0.5024    Y=             -1.2948    Z=              1.5699  Tot=              2.0961
 Quadrupole moment (field-independent basis, Debye-Ang):
   XX=            -47.0192   YY=            -29.6994   ZZ=            -37.2607
   XY=             -2.0569   XZ=              0.1256   YZ=             -1.0129
 Traceless Quadrupole moment (field-independent basis, Debye-Ang):
   XX=             -9.0261   YY=              8.2937   ZZ=              0.7324
   XY=             -2.0569   XZ=              0.1256   YZ=             -1.0129
 Octapole moment (field-independent basis, Debye-Ang**2):
  XXX=             -7.7935  YYY=             32.2132  ZZZ=             -0.8867  XYY=              3.9839
  XXY=              1.0752  XXZ=              7.0782  XZZ=              6.6473  YZZ=              2.5665
  YYZ=             -0.4801  XYZ=              1.9708
 Hexadecapole moment (field-independent basis, Debye-Ang**3):
 XXXX=           -464.4246 YYYY=           -228.3879 ZZZZ=            -79.1324 XXXY=            -17.9396
 XXXZ=             -4.5501 YYYX=            -15.6980 YYYZ=              0.3523 ZZZX=             -4.1233
 ZZZY=              0.5216 XXYY=           -126.0766 XXZZ=            -92.1357 YYZZ=            -67.3675
 XXYZ=             -5.8130 YYXZ=             -0.6757 ZZXY=            -10.5548
 N-N= 2.428922734998D+02 E-N=-1.289582068048D+03  KE= 3.402507448343D+02
  Exact polarizability:  92.085  14.117  62.901   4.087  -1.890  51.937
 Approx polarizability: 174.619  39.361  90.124  11.420   0.357  79.412
 Calling FoFJK, ICntrl=    100127 FMM=F ISym2X=0 I1Cent= 0 IOpClX= 0 NMat=1 NMatS=1 NMatT=0.
 ***** Axes restored to original set *****
 -------------------------------------------------------------------
 Center     Atomic                   Forces (Hartrees/Bohr)
 Number     Number              X              Y              Z
 -------------------------------------------------------------------
      1        6           0.030966912    0.000779244   -0.030905960
      2        6           0.031331949    0.016188424    0.097206749
      3        6          -0.001669128   -0.013094254   -0.013136977
      4        8           0.003224154   -0.010798524    0.003274829
      5        8          -0.018469606    0.008860523   -0.018824247
      6        8          -0.003579873    0.001647007    0.010457758
      7        1           0.001370500   -0.003445901    0.008547786
      8        1          -0.010551812    0.000026849   -0.005251546
      9        1          -0.000486491   -0.008795943   -0.000369880
     10        1           0.001822326   -0.003619111    0.001002812
     11        1           0.018238802    0.021956215   -0.012391382
     12        1          -0.052197733   -0.009704530   -0.039609943
 -------------------------------------------------------------------
 Cartesian Forces:  Max     0.097206749 RMS     0.023373766
 FormGI is forming the generalized inverse of G from B-inverse, IUseBI=4.

 GradGradGradGradGradGradGradGradGradGradGradGradGradGradGradGradGradGrad
 Berny optimization.
 Internal  Forces:  Max     0.058053579 RMS     0.014177399
 Search for a saddle point.
 Step number   1 out of a maximum of  100
 All quantities printed in internal units (Hartrees-Bohrs-Radians)
 Swapping is turned off.
 Second derivative matrix not updated -- analytic derivatives used.
 ITU=  0
     Eigenvalues ---   -0.45789  -0.02235  -0.00334  -0.00029   0.00124
     Eigenvalues ---    0.00332   0.00934   0.01534   0.03551   0.03645
     Eigenvalues ---    0.04244   0.06354   0.09186   0.10863   0.14437
     Eigenvalues ---    0.14978   0.17425   0.19529   0.20514   0.23320
     Eigenvalues ---    0.24498   0.25441   0.28454   0.31326   0.32130
     Eigenvalues ---    0.38407   0.39077   0.39819   0.51645   0.87141
 Eigenvectors required to have negative eigenvalues:
                          A7        A10       A6        D20       R7
   1                   -0.49168   0.40902   0.29117  -0.27075   0.24448
                          D17       R6        D10       A9        D9
   1                    0.23419  -0.22213  -0.19439  -0.18097  -0.16861
 RFO step:  Lambda0=3.885961258D-04 Lambda=-7.09855126D-02.
 Linear search not attempted -- option 19 set.
 Maximum step size (   0.300) exceeded in Quadratic search.
    -- Step size scaled by   0.332
 Iteration  1 RMS(Cart)=  0.06394920 RMS(Int)=  0.00430310
 Iteration  2 RMS(Cart)=  0.00427324 RMS(Int)=  0.00205049
 Iteration  3 RMS(Cart)=  0.00001295 RMS(Int)=  0.00205046
 Iteration  4 RMS(Cart)=  0.00000005 RMS(Int)=  0.00205046
 Variable       Old X    -DE/DX   Delta X   Delta X   Delta X     New X
                                 (Linear)    (Quad)   (Total)
    R1        3.09690   0.03819   0.00000   0.05313   0.05313   3.15003
    R2        2.03358   0.00628   0.00000   0.00175   0.00175   2.03534
    R3        2.03246   0.00652   0.00000   0.00248   0.00248   2.03494
    R4        2.85653   0.01111   0.00000  -0.02594  -0.02594   2.83059
    R5        2.74445  -0.00889   0.00000  -0.05395  -0.05395   2.69050
    R6        2.16472  -0.00290   0.00000   0.03436   0.03436   2.19908
    R7        2.45719  -0.05805   0.00000  -0.08280  -0.08280   2.37440
    R8        2.28150   0.01073   0.00000   0.00594   0.00594   2.28745
    R9        2.09093   0.00163   0.00000   0.00493   0.00493   2.09586
   R10        2.69011   0.01871   0.00000   0.03715   0.03715   2.72726
   R11        1.82873   0.00612   0.00000   0.00321   0.00321   1.83194
    A1        1.89658  -0.00362   0.00000   0.01023   0.01006   1.90664
    A2        2.06572  -0.00827   0.00000  -0.00314  -0.00330   2.06243
    A3        2.09345   0.00518   0.00000   0.01683   0.01662   2.11007
    A4        2.61322  -0.02534   0.00000  -0.10324  -0.09917   2.51404
    A5        1.76637   0.02435   0.00000   0.05678   0.05439   1.82075
    A6        1.19898  -0.02146   0.00000  -0.12687  -0.12508   1.07391
    A7        1.20163  -0.01069   0.00000  -0.08270  -0.07957   1.12206
    A8        1.88958   0.00121   0.00000   0.04888   0.04763   1.93722
    A9        1.68084   0.01062   0.00000   0.06111   0.05839   1.73923
   A10        1.85754   0.00276   0.00000   0.06326   0.05998   1.91752
   A11        2.27348  -0.01060   0.00000  -0.03548  -0.03597   2.23750
   A12        1.48516   0.01822   0.00000   0.04661   0.04515   1.53031
   A13        2.24855  -0.01980   0.00000  -0.14568  -0.14998   2.09857
   A14        2.15948  -0.00060   0.00000  -0.00175  -0.00176   2.15772
   A15        1.98776   0.00213   0.00000   0.00882   0.00881   1.99657
   A16        2.13517  -0.00153   0.00000  -0.00693  -0.00693   2.12824
   A17        1.92496  -0.01546   0.00000  -0.02948  -0.02948   1.89548
   A18        1.80332  -0.01156   0.00000  -0.02256  -0.02256   1.78076
    D1        2.40203  -0.00371   0.00000  -0.00637  -0.00600   2.39603
    D2       -0.97183   0.00269   0.00000   0.03502   0.03471  -0.93712
    D3        1.28039  -0.01571   0.00000  -0.01475  -0.01863   1.26176
    D4       -2.37165  -0.00419   0.00000   0.02989   0.03384  -2.33781
    D5       -0.06515   0.00237   0.00000  -0.04373  -0.04342  -0.10857
    D6        2.84418   0.00877   0.00000  -0.00234  -0.00271   2.84147
    D7       -1.18679  -0.00963   0.00000  -0.05211  -0.05604  -1.24284
    D8        1.44435   0.00190   0.00000  -0.00746  -0.00358   1.44077
    D9        2.53582   0.00059   0.00000   0.01791   0.01784   2.55366
   D10       -0.56407   0.00073   0.00000   0.01443   0.01437  -0.54970
   D11       -0.36570  -0.00712   0.00000  -0.02374  -0.02334  -0.38904
   D12        2.81759  -0.00698   0.00000  -0.02721  -0.02681   2.79079
   D13       -2.74198  -0.00164   0.00000  -0.04306  -0.04668  -2.78866
   D14        0.44132  -0.00150   0.00000  -0.04653  -0.05015   0.39117
   D15        1.20851   0.01408   0.00000   0.06266   0.06595   1.27446
   D16       -1.89138   0.01422   0.00000   0.05919   0.06247  -1.82890
   D17        1.64543   0.00202   0.00000  -0.05610  -0.05807   1.58736
   D18       -1.61867  -0.00004   0.00000  -0.05832  -0.05559  -1.67426
   D19        0.39779   0.00927   0.00000   0.06082   0.05789   0.45569
   D20        2.81970  -0.00875   0.00000  -0.13996  -0.13780   2.68191
   D21        2.42203  -0.00546   0.00000   0.09593   0.09593   2.51796
         Item               Value     Threshold  Converged?
 Maximum Force            0.058054     0.000450     NO 
 RMS     Force            0.014177     0.000300     NO 
 Maximum Displacement     0.178034     0.001800     NO 
 RMS     Displacement     0.063349     0.001200     NO 
 Predicted change in Energy=-2.429935D-02
 GradGradGradGradGradGradGradGradGradGradGradGradGradGradGradGradGradGrad

                          Input orientation:                          
 ---------------------------------------------------------------------
 Center     Atomic      Atomic             Coordinates (Angstroms)
 Number     Number       Type             X           Y           Z
 ---------------------------------------------------------------------
      1          6           0        1.943832    1.198751   -2.863012
      2          6           0        1.060377    0.853601   -1.492240
      3          6           0        0.406549   -0.248528   -0.716689
      4          8           0        1.113692    2.053360   -0.727519
      5          8           0       -0.016754    2.876868   -1.083549
      6          8           0        0.335613   -0.267299    0.491549
      7          1           0       -0.242195    3.288265   -0.235192
      8          1           0        1.556567    2.094530   -3.318700
      9          1           0        2.288429    0.375984   -3.466254
     10          1           0        0.018288   -1.079521   -1.340202
     11          1           0        0.562810    0.683408   -2.530346
     12          1           0        2.308641    0.780007   -1.369132
 ---------------------------------------------------------------------
                    Distance matrix (angstroms):
                    1          2          3          4          5
     1  C    0.000000
     2  C    1.666924   0.000000
     3  C    3.010740   1.497885   0.000000
     4  O    2.445367   1.423749   2.408081   0.000000
     5  O    3.134719   2.328272   3.175197   1.443202   0.000000
     6  O    3.998594   2.391050   1.210464   2.734409   3.534245
     7  H    4.006273   3.033884   3.627894   1.898896   0.969423
     8  H    1.077055   2.263198   3.685502   2.629079   2.843113
     9  H    1.076844   2.373386   3.389925   3.419688   4.152779
    10  H    3.349207   2.201369   1.109083   3.374942   3.964860
    11  H    1.511113   1.163702   2.045062   2.330327   2.690796
    12  H    1.593772   1.256476   2.258654   1.860376   3.144177
                    6          7          8          9         10
     6  O    0.000000
     7  H    3.674786   0.000000
     8  H    4.646178   3.764116   0.000000
     9  H    4.459990   5.032415   1.873712   0.000000
    10  H    2.028722   4.512921   4.044176   3.433967   0.000000
    11  H    3.176054   3.563852   1.897451   1.987006   2.195648
    12  H    2.907202   3.752858   2.468684   2.135781   2.950321
                   11         12
    11  H    0.000000
    12  H    2.098969   0.000000
 Stoichiometry    C3H6O3
 Framework group  C1[X(C3H6O3)]
 Deg. of freedom    30
 Full point group                 C1      NOp   1
 Largest Abelian subgroup         C1      NOp   1
 Largest concise Abelian subgroup C1      NOp   1
                         Standard orientation:                         
 ---------------------------------------------------------------------
 Center     Atomic      Atomic             Coordinates (Angstroms)
 Number     Number       Type             X           Y           Z
 ---------------------------------------------------------------------
      1          6           0       -1.432578   -1.524845   -0.100723
      2          6           0       -0.100087   -0.529862    0.013788
      3          6           0        1.359527   -0.491741    0.348050
      4          8           0       -0.514865    0.686220   -0.599535
      5          8           0       -1.074367    1.546273    0.415403
      6          8           0        2.153028    0.242351   -0.196643
      7          1           0       -0.787937    2.423197    0.117506
      8          1           0       -2.287329   -1.023384    0.321160
      9          1           0       -1.289714   -2.583465    0.035315
     10          1           0        1.672240   -1.225248    1.118921
     11          1           0       -0.509911   -1.022184    0.985316
     12          1           0       -0.268890   -1.088978   -1.098699
 ---------------------------------------------------------------------
 Rotational constants (GHZ):           4.5021619           2.9951250           2.0013175
 Standard basis: 6-31+G(d) (6D, 7F)
 There are   126 symmetry adapted cartesian basis functions of A   symmetry.
 There are   126 symmetry adapted basis functions of A   symmetry.
   126 basis functions,   216 primitive gaussians,   126 cartesian basis functions
    24 alpha electrons       24 beta electrons
       nuclear repulsion energy       242.4412486524 Hartrees.
 NAtoms=   12 NActive=   12 NUniq=   12 SFac= 1.00D+00 NAtFMM=   60 NAOKFM=F Big=F
 Integral buffers will be    131072 words long.
 Raffenetti 2 integral format.
 Two-electron integral symmetry is turned on.
 One-electron integrals computed using PRISM.
 NBasis=   126 RedAO= T EigKep=  4.00D-05  NBF=   126
 NBsUse=   126 1.00D-06 EigRej= -1.00D+00 NBFU=   126
 Initial guess from the checkpoint file:  "/scratch/bell/zhao922/YARP/paper-example/KHP-network/pp_0/TS-folder/Gau-3213.chk"
 B after Tr=     0.000000   -0.000000    0.000000
         Rot=    0.999286   -0.001586    0.005617   -0.037331 Ang=  -4.33 deg.
 ExpMin= 4.38D-02 ExpMax= 5.48D+03 ExpMxC= 8.25D+02 IAcc=3 IRadAn=         5 AccDes= 0.00D+00
 Harris functional with IExCor=  402 and IRadAn=       5 diagonalized for initial guess.
 HarFok:  IExCor=  402 AccDes= 0.00D+00 IRadAn=         5 IDoV= 1 UseB2=F ITyADJ=14
 ICtDFT=  3500011 ScaDFX=  1.000000  1.000000  1.000000  1.000000
 FoFCou: FMM=F IPFlag=           0 FMFlag=      100000 FMFlg1=           0
         NFxFlg=           0 DoJE=T BraDBF=F KetDBF=T FulRan=T
         wScrn=  0.000000 ICntrl=       500 IOpCl=  0 I1Cent=   200000004 NGrid=           0
         NMat0=    1 NMatS0=      1 NMatT0=    0 NMatD0=    1 NMtDS0=    0 NMtDT0=    0
 Petite list used in FoFCou.
 Keep R1 ints in memory in canonical form, NReq=47237561.
 Requested convergence on RMS density matrix=1.00D-08 within 128 cycles.
 Requested convergence on MAX density matrix=1.00D-06.
 Requested convergence on             energy=1.00D-06.
 No special actions if energy rises.
 SCF Done:  E(RB3LYP) =  -343.247748654     A.U. after   14 cycles
            NFock= 14  Conv=0.86D-08     -V/T= 2.0087
 DoSCS=F DFT=T ScalE2(SS,OS)=  1.000000  1.000000
 Range of M.O.s used for correlation:     1   126
 NBasis=   126 NAE=    24 NBE=    24 NFC=     0 NFV=     0
 NROrb=    126 NOA=    24 NOB=    24 NVA=   102 NVB=   102

 **** Warning!!: The largest alpha MO coefficient is  0.51982836D+02

 Symmetrizing basis deriv contribution to polar:
 IMax=3 JMax=2 DiffMx= 0.00D+00
 G2DrvN: will do    13 centers at a time, making    1 passes.
 Calling FoFCou, ICntrl=  3107 FMM=F I1Cent=   0 AccDes= 0.00D+00.
 End of G2Drv F.D. properties file   721 does not exist.
 End of G2Drv F.D. properties file   722 does not exist.
 End of G2Drv F.D. properties file   788 does not exist.
          IDoAtm=111111111111
          Differentiating once with respect to electric field.
                with respect to dipole field.
          Differentiating once with respect to nuclear coordinates.
 Keep R1 ints in memory in canonical form, NReq=47193576.
          There are    39 degrees of freedom in the 1st order CPHF.  IDoFFX=6 NUNeed=     3.
     36 vectors produced by pass  0 Test12= 6.28D-15 2.56D-09 XBig12= 1.67D+02 9.51D+00.
 AX will form    36 AO Fock derivatives at one time.
     36 vectors produced by pass  1 Test12= 6.28D-15 2.56D-09 XBig12= 4.17D+01 1.37D+00.
     36 vectors produced by pass  2 Test12= 6.28D-15 2.56D-09 XBig12= 5.38D-01 1.39D-01.
     36 vectors produced by pass  3 Test12= 6.28D-15 2.56D-09 XBig12= 3.76D-03 9.26D-03.
     36 vectors produced by pass  4 Test12= 6.28D-15 2.56D-09 XBig12= 7.48D-06 4.74D-04.
     32 vectors produced by pass  5 Test12= 6.28D-15 2.56D-09 XBig12= 7.74D-09 1.42D-05.
      4 vectors produced by pass  6 Test12= 6.28D-15 2.56D-09 XBig12= 7.58D-12 4.11D-07.
      2 vectors produced by pass  7 Test12= 6.28D-15 2.56D-09 XBig12= 7.09D-15 1.13D-08.
 InvSVY:  IOpt=1 It=  1 EMax= 5.33D-15
 Solved reduced A of dimension   218 with    39 vectors.
 Isotropic polarizability for W=    0.000000       66.22 Bohr**3.
 End of Minotr F.D. properties file   721 does not exist.
 End of Minotr F.D. properties file   722 does not exist.
 End of Minotr F.D. properties file   788 does not exist.
 Calling FoFJK, ICntrl=    100127 FMM=F ISym2X=0 I1Cent= 0 IOpClX= 0 NMat=1 NMatS=1 NMatT=0.
 ***** Axes restored to original set *****
 -------------------------------------------------------------------
 Center     Atomic                   Forces (Hartrees/Bohr)
 Number     Number              X              Y              Z
 -------------------------------------------------------------------
      1        6           0.019575312   -0.002104485   -0.027175588
      2        6           0.026291740    0.013886757    0.089640580
      3        6          -0.001484713   -0.010988005   -0.013087212
      4        8           0.000539809   -0.008272190    0.001313442
      5        8          -0.014543390    0.007084023   -0.014869277
      6        8          -0.003544559    0.001370240    0.007288341
      7        1           0.001030812   -0.001967402    0.006430626
      8        1          -0.007346509    0.000656799   -0.003575920
      9        1          -0.000378008   -0.007074759    0.000820567
     10        1           0.001937876   -0.003028587    0.000788589
     11        1           0.018346459    0.019125556   -0.014421220
     12        1          -0.040424831   -0.008687946   -0.033152928
 -------------------------------------------------------------------
 Cartesian Forces:  Max     0.089640580 RMS     0.020315352
 FormGI is forming the generalized inverse of G from B-inverse, IUseBI=4.

 GradGradGradGradGradGradGradGradGradGradGradGradGradGradGradGradGradGrad
 Berny optimization.
 Internal  Forces:  Max     0.042899904 RMS     0.011458088
 Search for a saddle point.
 Step number   2 out of a maximum of  100
 All quantities printed in internal units (Hartrees-Bohrs-Radians)
 Swapping is turned off.
 Second derivative matrix not updated -- analytic derivatives used.
 ITU=  0  0
     Eigenvalues ---   -0.31922  -0.02804  -0.00236   0.00201   0.00314
     Eigenvalues ---    0.00564   0.01341   0.01783   0.03691   0.04441
     Eigenvalues ---    0.04852   0.06537   0.09006   0.14084   0.14615
     Eigenvalues ---    0.15764   0.17299   0.19221   0.20197   0.22779
     Eigenvalues ---    0.24324   0.24423   0.28222   0.30785   0.32382
     Eigenvalues ---    0.38310   0.38854   0.40303   0.51212   0.85968
 Eigenvectors required to have negative eigenvalues:
                          A7        A10       A6        R7        D20
   1                    0.47891  -0.36298  -0.30019  -0.27520   0.26347
                          R6        D17       D10       D9        A9
   1                    0.26005  -0.23297   0.21938   0.19841   0.14405
 RFO step:  Lambda0=3.931992013D-04 Lambda=-5.11498545D-02.
 Linear search not attempted -- option 19 set.
 Maximum step size (   0.300) exceeded in Quadratic search.
    -- Step size scaled by   0.385
 Iteration  1 RMS(Cart)=  0.07553672 RMS(Int)=  0.00574073
 Iteration  2 RMS(Cart)=  0.00569172 RMS(Int)=  0.00209691
 Iteration  3 RMS(Cart)=  0.00001797 RMS(Int)=  0.00209684
 Iteration  4 RMS(Cart)=  0.00000007 RMS(Int)=  0.00209684
 Variable       Old X    -DE/DX   Delta X   Delta X   Delta X     New X
                                 (Linear)    (Quad)   (Total)
    R1        3.15003   0.02913   0.00000   0.02089   0.02089   3.17092
    R2        2.03534   0.00470   0.00000   0.00206   0.00206   2.03740
    R3        2.03494   0.00482   0.00000   0.00215   0.00215   2.03709
    R4        2.83059   0.00806   0.00000  -0.03242  -0.03242   2.79817
    R5        2.69050  -0.00697   0.00000  -0.04436  -0.04436   2.64614
    R6        2.19908   0.00222   0.00000   0.06800   0.06800   2.26708
    R7        2.37440  -0.04290   0.00000  -0.03529  -0.03529   2.33911
    R8        2.28745   0.00746   0.00000   0.00894   0.00894   2.29639
    R9        2.09586   0.00115   0.00000   0.00342   0.00342   2.09929
   R10        2.72726   0.01559   0.00000   0.03010   0.03010   2.75736
   R11        1.83194   0.00455   0.00000   0.00433   0.00433   1.83627
    A1        1.90664  -0.00160   0.00000   0.03382   0.03284   1.93948
    A2        2.06243  -0.00731   0.00000   0.00305   0.00210   2.06453
    A3        2.11007   0.00443   0.00000   0.01167   0.01049   2.12055
    A4        2.51404  -0.02096   0.00000  -0.10880  -0.10362   2.41042
    A5        1.82075   0.01856   0.00000   0.05569   0.05280   1.87355
    A6        1.07391  -0.01921   0.00000  -0.12939  -0.12741   0.94650
    A7        1.12206  -0.00909   0.00000  -0.08146  -0.07837   1.04369
    A8        1.93722   0.00290   0.00000   0.05565   0.05360   1.99082
    A9        1.73923   0.00908   0.00000   0.05333   0.05017   1.78940
   A10        1.91752   0.00174   0.00000   0.05649   0.05251   1.97003
   A11        2.23750  -0.00908   0.00000  -0.03330  -0.03315   2.20436
   A12        1.53031   0.01602   0.00000   0.04437   0.04293   1.57325
   A13        2.09857  -0.02020   0.00000  -0.16293  -0.16533   1.93325
   A14        2.15772  -0.00068   0.00000  -0.00221  -0.00223   2.15549
   A15        1.99657   0.00186   0.00000   0.00850   0.00847   2.00504
   A16        2.12824  -0.00117   0.00000  -0.00586  -0.00588   2.12236
   A17        1.89548  -0.01010   0.00000  -0.00460  -0.00460   1.89087
   A18        1.78076  -0.00836   0.00000  -0.01261  -0.01261   1.76815
    D1        2.39603  -0.00285   0.00000   0.01900   0.01946   2.41548
    D2       -0.93712   0.00393   0.00000   0.05593   0.05591  -0.88121
    D3        1.26176  -0.01393   0.00000   0.00109  -0.00246   1.25930
    D4       -2.33781  -0.00168   0.00000   0.06189   0.06561  -2.27220
    D5       -0.10857   0.00125   0.00000  -0.05164  -0.05148  -0.16005
    D6        2.84147   0.00802   0.00000  -0.01470  -0.01502   2.82644
    D7       -1.24284  -0.00983   0.00000  -0.06954  -0.07340  -1.31624
    D8        1.44077   0.00241   0.00000  -0.00874  -0.00532   1.43545
    D9        2.55366   0.00176   0.00000   0.04805   0.04813   2.60178
   D10       -0.54970   0.00162   0.00000   0.03556   0.03564  -0.51406
   D11       -0.38904  -0.00601   0.00000   0.01110   0.01143  -0.37761
   D12        2.79079  -0.00615   0.00000  -0.00139  -0.00106   2.78973
   D13       -2.78866  -0.00332   0.00000  -0.02431  -0.02830  -2.81696
   D14        0.39117  -0.00346   0.00000  -0.03679  -0.04079   0.35038
   D15        1.27446   0.01417   0.00000   0.10766   0.11124   1.38570
   D16       -1.82890   0.01404   0.00000   0.09517   0.09876  -1.73015
   D17        1.58736  -0.00024   0.00000   0.00889   0.00698   1.59434
   D18       -1.67426   0.00036   0.00000   0.01119   0.01379  -1.66047
   D19        0.45569   0.00956   0.00000   0.12928   0.12692   0.58261
   D20        2.68191  -0.00812   0.00000  -0.07262  -0.07095   2.61096
   D21        2.51796  -0.00389   0.00000  -0.18930  -0.18930   2.32866
         Item               Value     Threshold  Converged?
 Maximum Force            0.042900     0.000450     NO 
 RMS     Force            0.011458     0.000300     NO 
 Maximum Displacement     0.192704     0.001800     NO 
 RMS     Displacement     0.074633     0.001200     NO 
 Predicted change in Energy=-2.017055D-02
 GradGradGradGradGradGradGradGradGradGradGradGradGradGradGradGradGradGrad

                          Input orientation:                          
 ---------------------------------------------------------------------
 Center     Atomic      Atomic             Coordinates (Angstroms)
 Number     Number       Type             X           Y           Z
 ---------------------------------------------------------------------
      1          6           0        1.920538    1.139613   -2.866180
      2          6           0        1.063324    0.898054   -1.444052
      3          6           0        0.420262   -0.223124   -0.721569
      4          8           0        1.133554    2.086709   -0.707209
      5          8           0       -0.014898    2.914483   -1.060632
      6          8           0        0.330537   -0.277323    0.489096
      7          1           0       -0.326932    3.192024   -0.183232
      8          1           0        1.608368    2.046420   -3.358778
      9          1           0        2.235201    0.274009   -3.426323
     10          1           0        0.039682   -1.040385   -1.370670
     11          1           0        0.627358    0.775814   -2.555015
     12          1           0        2.298854    0.823131   -1.446722
 ---------------------------------------------------------------------
                    Distance matrix (angstroms):
                    1          2          3          4          5
     1  C    0.000000
     2  C    1.677979   0.000000
     3  C    2.950803   1.480726   0.000000
     4  O    2.485457   1.400276   2.417504   0.000000
     5  O    3.186861   2.318526   3.185735   1.459130   0.000000
     6  O    3.974128   2.378140   1.215195   2.768507   3.564914
     7  H    4.057305   2.963912   3.537138   1.905070   0.971712
     8  H    1.078147   2.298258   3.676588   2.694047   2.944487
     9  H    1.077980   2.385817   3.294972   3.448636   4.198993
    10  H    3.244466   2.193347   1.110895   3.378676   3.967378
    11  H    1.378945   1.199686   2.098163   2.321437   2.686928
    12  H    1.502713   1.237803   2.269275   1.871212   3.142653
                    6          7          8          9         10
     6  O    0.000000
     7  H    3.594532   0.000000
     8  H    4.673197   3.891258   0.000000
     9  H    4.388874   5.059345   1.881202   0.000000
    10  H    2.031155   4.411088   3.992707   3.282323   0.000000
    11  H    3.234781   3.517683   1.795232   1.896350   2.246467
    12  H    2.971980   3.755371   2.372586   2.055336   2.929562
                   11         12
    11  H    0.000000
    12  H    2.006104   0.000000
 Stoichiometry    C3H6O3
 Framework group  C1[X(C3H6O3)]
 Deg. of freedom    30
 Full point group                 C1      NOp   1
 Largest Abelian subgroup         C1      NOp   1
 Largest concise Abelian subgroup C1      NOp   1
                         Standard orientation:                         
 ---------------------------------------------------------------------
 Center     Atomic      Atomic             Coordinates (Angstroms)
 Number     Number       Type             X           Y           Z
 ---------------------------------------------------------------------
      1          6           0       -1.355602   -1.590479   -0.076489
      2          6           0       -0.093030   -0.486921   -0.015753
      3          6           0        1.344197   -0.474862    0.340315
      4          8           0       -0.541927    0.694639   -0.618397
      5          8           0       -1.115037    1.548818    0.416486
      6          8           0        2.157271    0.265115   -0.177414
      7          1           0       -0.705775    2.404510    0.205487
      8          1           0       -2.268149   -1.158033    0.301198
      9          1           0       -1.128123   -2.635118    0.061446
     10          1           0        1.641392   -1.219182    1.109567
     11          1           0       -0.590225   -1.036281    0.927777
     12          1           0       -0.324968   -1.110896   -1.059312
 ---------------------------------------------------------------------
 Rotational constants (GHZ):           4.3983188           3.0218020           1.9914846
 Standard basis: 6-31+G(d) (6D, 7F)
 There are   126 symmetry adapted cartesian basis functions of A   symmetry.
 There are   126 symmetry adapted basis functions of A   symmetry.
   126 basis functions,   216 primitive gaussians,   126 cartesian basis functions
    24 alpha electrons       24 beta electrons
       nuclear repulsion energy       242.3429398107 Hartrees.
 NAtoms=   12 NActive=   12 NUniq=   12 SFac= 1.00D+00 NAtFMM=   60 NAOKFM=F Big=F
 Integral buffers will be    131072 words long.
 Raffenetti 2 integral format.
 Two-electron integral symmetry is turned on.
 One-electron integrals computed using PRISM.
 NBasis=   126 RedAO= T EigKep=  5.03D-05  NBF=   126
 NBsUse=   126 1.00D-06 EigRej= -1.00D+00 NBFU=   126
 Initial guess from the checkpoint file:  "/scratch/bell/zhao922/YARP/paper-example/KHP-network/pp_0/TS-folder/Gau-3213.chk"
 B after Tr=    -0.000000    0.000000   -0.000000
         Rot=    0.999949   -0.000407    0.001167   -0.009981 Ang=  -1.15 deg.
 ExpMin= 4.38D-02 ExpMax= 5.48D+03 ExpMxC= 8.25D+02 IAcc=3 IRadAn=         5 AccDes= 0.00D+00
 Harris functional with IExCor=  402 and IRadAn=       5 diagonalized for initial guess.
 HarFok:  IExCor=  402 AccDes= 0.00D+00 IRadAn=         5 IDoV= 1 UseB2=F ITyADJ=14
 ICtDFT=  3500011 ScaDFX=  1.000000  1.000000  1.000000  1.000000
 FoFCou: FMM=F IPFlag=           0 FMFlag=      100000 FMFlg1=           0
         NFxFlg=           0 DoJE=T BraDBF=F KetDBF=T FulRan=T
         wScrn=  0.000000 ICntrl=       500 IOpCl=  0 I1Cent=   200000004 NGrid=           0
         NMat0=    1 NMatS0=      1 NMatT0=    0 NMatD0=    1 NMtDS0=    0 NMtDT0=    0
 Petite list used in FoFCou.
 Keep R1 ints in memory in canonical form, NReq=47237561.
 Requested convergence on RMS density matrix=1.00D-08 within 128 cycles.
 Requested convergence on MAX density matrix=1.00D-06.
 Requested convergence on             energy=1.00D-06.
 No special actions if energy rises.
 SCF Done:  E(RB3LYP) =  -343.267671315     A.U. after   14 cycles
            NFock= 14  Conv=0.47D-08     -V/T= 2.0087
 DoSCS=F DFT=T ScalE2(SS,OS)=  1.000000  1.000000
 Range of M.O.s used for correlation:     1   126
 NBasis=   126 NAE=    24 NBE=    24 NFC=     0 NFV=     0
 NROrb=    126 NOA=    24 NOB=    24 NVA=   102 NVB=   102

 **** Warning!!: The largest alpha MO coefficient is  0.48444703D+02

 Symmetrizing basis deriv contribution to polar:
 IMax=3 JMax=2 DiffMx= 0.00D+00
 G2DrvN: will do    13 centers at a time, making    1 passes.
 Calling FoFCou, ICntrl=  3107 FMM=F I1Cent=   0 AccDes= 0.00D+00.
 End of G2Drv F.D. properties file   721 does not exist.
 End of G2Drv F.D. properties file   722 does not exist.
 End of G2Drv F.D. properties file   788 does not exist.
          IDoAtm=111111111111
          Differentiating once with respect to electric field.
                with respect to dipole field.
          Differentiating once with respect to nuclear coordinates.
 Keep R1 ints in memory in canonical form, NReq=47193576.
          There are    39 degrees of freedom in the 1st order CPHF.  IDoFFX=6 NUNeed=     3.
     36 vectors produced by pass  0 Test12= 6.28D-15 2.56D-09 XBig12= 1.35D+02 7.40D+00.
 AX will form    36 AO Fock derivatives at one time.
     36 vectors produced by pass  1 Test12= 6.28D-15 2.56D-09 XBig12= 3.25D+01 1.08D+00.
     36 vectors produced by pass  2 Test12= 6.28D-15 2.56D-09 XBig12= 3.99D-01 1.34D-01.
     36 vectors produced by pass  3 Test12= 6.28D-15 2.56D-09 XBig12= 2.56D-03 9.24D-03.
     36 vectors produced by pass  4 Test12= 6.28D-15 2.56D-09 XBig12= 4.24D-06 2.78D-04.
     31 vectors produced by pass  5 Test12= 6.28D-15 2.56D-09 XBig12= 4.03D-09 1.00D-05.
      5 vectors produced by pass  6 Test12= 6.28D-15 2.56D-09 XBig12= 3.56D-12 2.52D-07.
      2 vectors produced by pass  7 Test12= 6.28D-15 2.56D-09 XBig12= 2.98D-15 7.36D-09.
 InvSVY:  IOpt=1 It=  1 EMax= 3.55D-15
 Solved reduced A of dimension   218 with    39 vectors.
 Isotropic polarizability for W=    0.000000       64.26 Bohr**3.
 End of Minotr F.D. properties file   721 does not exist.
 End of Minotr F.D. properties file   722 does not exist.
 End of Minotr F.D. properties file   788 does not exist.
 Calling FoFJK, ICntrl=    100127 FMM=F ISym2X=0 I1Cent= 0 IOpClX= 0 NMat=1 NMatS=1 NMatT=0.
 ***** Axes restored to original set *****
 -------------------------------------------------------------------
 Center     Atomic                   Forces (Hartrees/Bohr)
 Number     Number              X              Y              Z
 -------------------------------------------------------------------
      1        6           0.004817841   -0.006268151   -0.023648461
      2        6           0.021164902    0.014037421    0.081978890
      3        6          -0.001175365   -0.009090207   -0.012540504
      4        8           0.000396084   -0.007128133   -0.000976348
      5        8          -0.010998259    0.007385193   -0.010068855
      6        8          -0.004221560    0.001625168    0.004516080
      7        1           0.000347288   -0.002175119    0.004143566
      8        1          -0.002374182    0.002450900   -0.001700219
      9        1           0.001548068   -0.005049104    0.002023641
     10        1           0.002391555   -0.002689105    0.000683338
     11        1           0.015808530    0.013285693   -0.017606172
     12        1          -0.027704902   -0.006384555   -0.026804956
 -------------------------------------------------------------------
 Cartesian Forces:  Max     0.081978890 RMS     0.017435131
 FormGI is forming the generalized inverse of G from B-inverse, IUseBI=4.

 GradGradGradGradGradGradGradGradGradGradGradGradGradGradGradGradGradGrad
 Berny optimization.
 Internal  Forces:  Max     0.027209701 RMS     0.008721959
 Search for a saddle point.
 Step number   3 out of a maximum of  100
 All quantities printed in internal units (Hartrees-Bohrs-Radians)
 Swapping is turned off.
 Second derivative matrix not updated -- analytic derivatives used.
 ITU=  0  0  0
     Eigenvalues ---   -0.26331  -0.02733   0.00075   0.00279   0.00570
     Eigenvalues ---    0.00732   0.01582   0.02002   0.03705   0.05030
     Eigenvalues ---    0.05212   0.06990   0.08893   0.13977   0.15239
     Eigenvalues ---    0.16107   0.17667   0.19191   0.19400   0.22949
     Eigenvalues ---    0.23502   0.24474   0.28325   0.30516   0.33412
     Eigenvalues ---    0.38175   0.38634   0.41438   0.50351   0.84025
 Eigenvectors required to have negative eigenvalues:
                          A7        R6        R7        A10       A6
   1                   -0.45774  -0.32919   0.31314   0.31072   0.29128
                          D20       D10       D17       D9        D15
   1                   -0.25196  -0.23049   0.22898  -0.21485   0.14858
 RFO step:  Lambda0=3.449248774D-04 Lambda=-4.12379003D-02.
 Linear search not attempted -- option 19 set.
 Maximum step size (   0.300) exceeded in Quadratic search.
    -- Step size scaled by   0.427
 Iteration  1 RMS(Cart)=  0.05630399 RMS(Int)=  0.00389157
 Iteration  2 RMS(Cart)=  0.00376839 RMS(Int)=  0.00181151
 Iteration  3 RMS(Cart)=  0.00001112 RMS(Int)=  0.00181149
 Iteration  4 RMS(Cart)=  0.00000003 RMS(Int)=  0.00181149
 Variable       Old X    -DE/DX   Delta X   Delta X   Delta X     New X
                                 (Linear)    (Quad)   (Total)
    R1        3.17092   0.02053   0.00000   0.01104   0.01104   3.18196
    R2        2.03740   0.00353   0.00000   0.00321   0.00321   2.04061
    R3        2.03709   0.00345   0.00000   0.00321   0.00321   2.04030
    R4        2.79817   0.00541   0.00000  -0.02683  -0.02683   2.77134
    R5        2.64614  -0.00578   0.00000  -0.05264  -0.05264   2.59349
    R6        2.26708   0.00921   0.00000   0.11534   0.11534   2.38241
    R7        2.33911  -0.02721   0.00000   0.01092   0.01092   2.35003
    R8        2.29639   0.00474   0.00000   0.00731   0.00731   2.30370
    R9        2.09929   0.00076   0.00000   0.00304   0.00304   2.10232
   R10        2.75736   0.01278   0.00000   0.04835   0.04835   2.80570
   R11        1.83627   0.00301   0.00000   0.00299   0.00299   1.83926
    A1        1.93948   0.00107   0.00000   0.04261   0.04077   1.98025
    A2        2.06453  -0.00510   0.00000   0.01202   0.01020   2.07473
    A3        2.12055   0.00309   0.00000   0.00211   0.00002   2.12057
    A4        2.41042  -0.01635   0.00000  -0.10254  -0.09757   2.31285
    A5        1.87355   0.01286   0.00000   0.04731   0.04466   1.91821
    A6        0.94650  -0.01560   0.00000  -0.10960  -0.10844   0.83806
    A7        1.04369  -0.00744   0.00000  -0.08245  -0.07997   0.96372
    A8        1.99082   0.00405   0.00000   0.05811   0.05578   2.04660
    A9        1.78940   0.00594   0.00000   0.02574   0.02305   1.81245
   A10        1.97003   0.00098   0.00000   0.04964   0.04493   2.01495
   A11        2.20436  -0.00648   0.00000  -0.02324  -0.02253   2.18183
   A12        1.57325   0.01250   0.00000   0.04590   0.04434   1.61759
   A13        1.93325  -0.01846   0.00000  -0.16368  -0.16433   1.76892
   A14        2.15549  -0.00043   0.00000  -0.00025  -0.00027   2.15522
   A15        2.00504   0.00139   0.00000   0.00569   0.00567   2.01072
   A16        2.12236  -0.00095   0.00000  -0.00518  -0.00520   2.11716
   A17        1.89087  -0.00590   0.00000  -0.00412  -0.00412   1.88675
   A18        1.76815  -0.00581   0.00000  -0.01674  -0.01674   1.75141
    D1        2.41548  -0.00104   0.00000   0.03874   0.03892   2.45440
    D2       -0.88121   0.00534   0.00000   0.07510   0.07493  -0.80627
    D3        1.25930  -0.00968   0.00000   0.02529   0.02306   1.28236
    D4       -2.27220   0.00142   0.00000   0.08413   0.08725  -2.18496
    D5       -0.16005  -0.00076   0.00000  -0.05285  -0.05312  -0.21317
    D6        2.82644   0.00562   0.00000  -0.01649  -0.01710   2.80934
    D7       -1.31624  -0.00940   0.00000  -0.06630  -0.06898  -1.38522
    D8        1.43545   0.00170   0.00000  -0.00746  -0.00479   1.43066
    D9        2.60178   0.00292   0.00000   0.04161   0.04130   2.64308
   D10       -0.51406   0.00249   0.00000   0.03024   0.02994  -0.48413
   D11       -0.37761  -0.00411   0.00000   0.00537   0.00509  -0.37252
   D12        2.78973  -0.00455   0.00000  -0.00599  -0.00627   2.78345
   D13       -2.81696  -0.00424   0.00000  -0.03730  -0.03997  -2.85693
   D14        0.35038  -0.00468   0.00000  -0.04866  -0.05134   0.29904
   D15        1.38570   0.01365   0.00000   0.11766   0.12092   1.50663
   D16       -1.73015   0.01321   0.00000   0.10630   0.10956  -1.62058
   D17        1.59434  -0.00142   0.00000  -0.01185  -0.01370   1.58064
   D18       -1.66047   0.00094   0.00000  -0.00135   0.00085  -1.65962
   D19        0.58261   0.00877   0.00000   0.09065   0.08954   0.67215
   D20        2.61096  -0.00721   0.00000  -0.09186  -0.09111   2.51985
   D21        2.32866  -0.00311   0.00000  -0.01418  -0.01418   2.31448
         Item               Value     Threshold  Converged?
 Maximum Force            0.027210     0.000450     NO 
 RMS     Force            0.008722     0.000300     NO 
 Maximum Displacement     0.140699     0.001800     NO 
 RMS     Displacement     0.055449     0.001200     NO 
 Predicted change in Energy=-1.650866D-02
 GradGradGradGradGradGradGradGradGradGradGradGradGradGradGradGradGradGrad

                          Input orientation:                          
 ---------------------------------------------------------------------
 Center     Atomic      Atomic             Coordinates (Angstroms)
 Number     Number       Type             X           Y           Z
 ---------------------------------------------------------------------
      1          6           0        1.881300    1.094395   -2.851173
      2          6           0        1.060824    0.929363   -1.390065
      3          6           0        0.438153   -0.221308   -0.727538
      4          8           0        1.131177    2.101511   -0.679678
      5          8           0       -0.041040    2.935073   -1.047719
      6          8           0        0.329704   -0.323160    0.482413
      7          1           0       -0.349218    3.203157   -0.164282
      8          1           0        1.647072    2.009284   -3.374791
      9          1           0        2.188622    0.204621   -3.379912
     10          1           0        0.074525   -1.021228   -1.409860
     11          1           0        0.678848    0.831134   -2.587503
     12          1           0        2.295882    0.866584   -1.521177
 ---------------------------------------------------------------------
                    Distance matrix (angstroms):
                    1          2          3          4          5
     1  C    0.000000
     2  C    1.683822   0.000000
     3  C    2.885061   1.466528   0.000000
     4  O    2.508458   1.372418   2.424472   0.000000
     5  O    3.214955   2.313910   3.208564   1.484713   0.000000
     6  O    3.940775   2.368443   1.219063   2.805681   3.618679
     7  H    4.079397   2.942941   3.558676   1.915940   0.973295
     8  H    1.079843   2.334322   3.666740   2.745595   3.020277
     9  H    1.079680   2.399306   3.206344   3.465205   4.226806
    10  H    3.133318   2.185860   1.112502   3.376564   3.974521
    11  H    1.258856   1.260720   2.150591   2.336291   2.704762
    12  H    1.411619   1.243583   2.294456   1.894651   3.156583
                    6          7          8          9         10
     6  O    0.000000
     7  H    3.648844   0.000000
     8  H    4.696145   3.964578   0.000000
     9  H    4.318759   5.076626   1.884174   0.000000
    10  H    2.033005   4.424529   3.939273   3.138984   0.000000
    11  H    3.298285   3.543362   1.716193   1.816548   2.276686
    12  H    3.048888   3.781176   2.272137   1.976006   2.917303
                   11         12
    11  H    0.000000
    12  H    1.937294   0.000000
 Stoichiometry    C3H6O3
 Framework group  C1[X(C3H6O3)]
 Deg. of freedom    30
 Full point group                 C1      NOp   1
 Largest Abelian subgroup         C1      NOp   1
 Largest concise Abelian subgroup C1      NOp   1
                         Standard orientation:                         
 ---------------------------------------------------------------------
 Center     Atomic      Atomic             Coordinates (Angstroms)
 Number     Number       Type             X           Y           Z
 ---------------------------------------------------------------------
      1          6           0       -1.197773   -1.689165   -0.055425
      2          6           0       -0.061611   -0.446456   -0.047335
      3          6           0        1.354137   -0.400415    0.332458
      4          8           0       -0.592062    0.675454   -0.633399
      5          8           0       -1.237351    1.489026    0.427768
      6          8           0        2.156457    0.376952   -0.155496
      7          1           0       -0.878189    2.368597    0.216439
      8          1           0       -2.179850   -1.375877    0.266192
      9          1           0       -0.859133   -2.706024    0.075070
     10          1           0        1.663108   -1.143823    1.100275
     11          1           0       -0.602941   -1.100251    0.884827
     12          1           0       -0.327866   -1.157860   -1.031973
 ---------------------------------------------------------------------
 Rotational constants (GHZ):           4.3451546           3.0150675           1.9790878
 Standard basis: 6-31+G(d) (6D, 7F)
 There are   126 symmetry adapted cartesian basis functions of A   symmetry.
 There are   126 symmetry adapted basis functions of A   symmetry.
   126 basis functions,   216 primitive gaussians,   126 cartesian basis functions
    24 alpha electrons       24 beta electrons
       nuclear repulsion energy       242.0637073067 Hartrees.
 NAtoms=   12 NActive=   12 NUniq=   12 SFac= 1.00D+00 NAtFMM=   60 NAOKFM=F Big=F
 Integral buffers will be    131072 words long.
 Raffenetti 2 integral format.
 Two-electron integral symmetry is turned on.
 One-electron integrals computed using PRISM.
 NBasis=   126 RedAO= T EigKep=  6.23D-05  NBF=   126
 NBsUse=   126 1.00D-06 EigRej= -1.00D+00 NBFU=   126
 Initial guess from the checkpoint file:  "/scratch/bell/zhao922/YARP/paper-example/KHP-network/pp_0/TS-folder/Gau-3213.chk"
 B after Tr=     0.000000   -0.000000   -0.000000
         Rot=    0.999448   -0.001059    0.002070   -0.033128 Ang=  -3.81 deg.
 ExpMin= 4.38D-02 ExpMax= 5.48D+03 ExpMxC= 8.25D+02 IAcc=3 IRadAn=         5 AccDes= 0.00D+00
 Harris functional with IExCor=  402 and IRadAn=       5 diagonalized for initial guess.
 HarFok:  IExCor=  402 AccDes= 0.00D+00 IRadAn=         5 IDoV= 1 UseB2=F ITyADJ=14
 ICtDFT=  3500011 ScaDFX=  1.000000  1.000000  1.000000  1.000000
 FoFCou: FMM=F IPFlag=           0 FMFlag=      100000 FMFlg1=           0
         NFxFlg=           0 DoJE=T BraDBF=F KetDBF=T FulRan=T
         wScrn=  0.000000 ICntrl=       500 IOpCl=  0 I1Cent=   200000004 NGrid=           0
         NMat0=    1 NMatS0=      1 NMatT0=    0 NMatD0=    1 NMtDS0=    0 NMtDT0=    0
 Petite list used in FoFCou.
 Keep R1 ints in memory in canonical form, NReq=47237561.
 Requested convergence on RMS density matrix=1.00D-08 within 128 cycles.
 Requested convergence on MAX density matrix=1.00D-06.
 Requested convergence on             energy=1.00D-06.
 No special actions if energy rises.
 SCF Done:  E(RB3LYP) =  -343.283928786     A.U. after   14 cycles
            NFock= 14  Conv=0.32D-08     -V/T= 2.0087
 DoSCS=F DFT=T ScalE2(SS,OS)=  1.000000  1.000000
 Range of M.O.s used for correlation:     1   126
 NBasis=   126 NAE=    24 NBE=    24 NFC=     0 NFV=     0
 NROrb=    126 NOA=    24 NOB=    24 NVA=   102 NVB=   102

 **** Warning!!: The largest alpha MO coefficient is  0.43528837D+02

 Symmetrizing basis deriv contribution to polar:
 IMax=3 JMax=2 DiffMx= 0.00D+00
 G2DrvN: will do    13 centers at a time, making    1 passes.
 Calling FoFCou, ICntrl=  3107 FMM=F I1Cent=   0 AccDes= 0.00D+00.
 End of G2Drv F.D. properties file   721 does not exist.
 End of G2Drv F.D. properties file   722 does not exist.
 End of G2Drv F.D. properties file   788 does not exist.
          IDoAtm=111111111111
          Differentiating once with respect to electric field.
                with respect to dipole field.
          Differentiating once with respect to nuclear coordinates.
 Keep R1 ints in memory in canonical form, NReq=47193576.
          There are    39 degrees of freedom in the 1st order CPHF.  IDoFFX=6 NUNeed=     3.
     36 vectors produced by pass  0 Test12= 6.28D-15 2.56D-09 XBig12= 1.14D+02 7.54D+00.
 AX will form    36 AO Fock derivatives at one time.
     36 vectors produced by pass  1 Test12= 6.28D-15 2.56D-09 XBig12= 2.70D+01 1.03D+00.
     36 vectors produced by pass  2 Test12= 6.28D-15 2.56D-09 XBig12= 3.20D-01 9.27D-02.
     36 vectors produced by pass  3 Test12= 6.28D-15 2.56D-09 XBig12= 1.74D-03 7.65D-03.
     36 vectors produced by pass  4 Test12= 6.28D-15 2.56D-09 XBig12= 2.57D-06 2.66D-04.
     30 vectors produced by pass  5 Test12= 6.28D-15 2.56D-09 XBig12= 2.48D-09 6.18D-06.
      3 vectors produced by pass  6 Test12= 6.28D-15 2.56D-09 XBig12= 2.31D-12 2.03D-07.
      2 vectors produced by pass  7 Test12= 6.28D-15 2.56D-09 XBig12= 1.75D-15 5.56D-09.
 InvSVY:  IOpt=1 It=  1 EMax= 9.18D-16
 Solved reduced A of dimension   215 with    39 vectors.
 Isotropic polarizability for W=    0.000000       63.38 Bohr**3.
 End of Minotr F.D. properties file   721 does not exist.
 End of Minotr F.D. properties file   722 does not exist.
 End of Minotr F.D. properties file   788 does not exist.
 Calling FoFJK, ICntrl=    100127 FMM=F ISym2X=0 I1Cent= 0 IOpClX= 0 NMat=1 NMatS=1 NMatT=0.
 ***** Axes restored to original set *****
 -------------------------------------------------------------------
 Center     Atomic                   Forces (Hartrees/Bohr)
 Number     Number              X              Y              Z
 -------------------------------------------------------------------
      1        6          -0.006319690   -0.008780991   -0.021501068
      2        6           0.016053936    0.014426869    0.076862300
      3        6          -0.000231883   -0.007370517   -0.011872112
      4        8           0.001940715   -0.007378265   -0.001917003
      5        8          -0.009509993    0.007337318   -0.007092718
      6        8          -0.005056896    0.001931876    0.002495933
      7        1           0.000147756   -0.001602397    0.002549426
      8        1           0.003498301    0.004306836    0.000494783
      9        1           0.004262111   -0.003090950    0.002554810
     10        1           0.002973525   -0.002519897    0.000562530
     11        1           0.008778095    0.006418846   -0.020247644
     12        1          -0.016535977   -0.003678729   -0.022889238
 -------------------------------------------------------------------
 Cartesian Forces:  Max     0.076862300 RMS     0.015696184
 FormGI is forming the generalized inverse of G from B-inverse, IUseBI=4.

 GradGradGradGradGradGradGradGradGradGradGradGradGradGradGradGradGradGrad
 Berny optimization.
 Internal  Forces:  Max     0.016071587 RMS     0.006708605
 Search for a saddle point.
 Step number   4 out of a maximum of  100
 All quantities printed in internal units (Hartrees-Bohrs-Radians)
 Swapping is turned off.
 Second derivative matrix not updated -- analytic derivatives used.
 ITU=  0  0  0  0
     Eigenvalues ---   -0.21811  -0.01900   0.00116   0.00323   0.00705
     Eigenvalues ---    0.00934   0.01417   0.02370   0.03712   0.04976
     Eigenvalues ---    0.05480   0.07330   0.09216   0.13077   0.13666
     Eigenvalues ---    0.15284   0.17435   0.18431   0.19912   0.21521
     Eigenvalues ---    0.23401   0.28662   0.30099   0.31227   0.34518
     Eigenvalues ---    0.37933   0.38239   0.43870   0.49896   0.82427
 Eigenvectors required to have negative eigenvalues:
                          A7        R6        R7        A10       D20
   1                   -0.42775  -0.40296   0.38392   0.26163  -0.24865
                          A6        D10       D17       D9        D15
   1                    0.23568  -0.21830   0.21012  -0.20839   0.16304
 RFO step:  Lambda0=1.227022222D-04 Lambda=-3.84292560D-02.
 Linear search not attempted -- option 19 set.
 Maximum step size (   0.300) exceeded in Quadratic search.
    -- Step size scaled by   0.381
 Iteration  1 RMS(Cart)=  0.04592858 RMS(Int)=  0.00320822
 Iteration  2 RMS(Cart)=  0.00302397 RMS(Int)=  0.00144545
 Iteration  3 RMS(Cart)=  0.00000711 RMS(Int)=  0.00144544
 Iteration  4 RMS(Cart)=  0.00000001 RMS(Int)=  0.00144544
 Variable       Old X    -DE/DX   Delta X   Delta X   Delta X     New X
                                 (Linear)    (Quad)   (Total)
    R1        3.18196   0.01597   0.00000   0.00925   0.00925   3.19121
    R2        2.04061   0.00265   0.00000   0.00310   0.00310   2.04371
    R3        2.04030   0.00251   0.00000   0.00400   0.00400   2.04430
    R4        2.77134   0.00325   0.00000  -0.02296  -0.02296   2.74838
    R5        2.59349  -0.00513   0.00000  -0.05487  -0.05487   2.53863
    R6        2.38241   0.01607   0.00000   0.17860   0.17860   2.56101
    R7        2.35003  -0.01382   0.00000   0.05119   0.05119   2.40122
    R8        2.30370   0.00277   0.00000   0.00564   0.00564   2.30934
    R9        2.10232   0.00049   0.00000   0.00270   0.00270   2.10502
   R10        2.80570   0.01174   0.00000   0.06582   0.06582   2.87152
   R11        1.83926   0.00183   0.00000   0.00177   0.00177   1.84103
    A1        1.98025   0.00278   0.00000   0.03810   0.03428   2.01453
    A2        2.07473  -0.00252   0.00000   0.03265   0.02885   2.10357
    A3        2.12057   0.00153   0.00000  -0.00323  -0.00728   2.11329
    A4        2.31285  -0.01193   0.00000  -0.08139  -0.07831   2.23454
    A5        1.91821   0.00733   0.00000   0.02771   0.02647   1.94468
    A6        0.83806  -0.00955   0.00000  -0.07872  -0.07874   0.75932
    A7        0.96372  -0.00750   0.00000  -0.07263  -0.07123   0.89250
    A8        2.04660   0.00499   0.00000   0.05545   0.05356   2.10015
    A9        1.81245   0.00125   0.00000  -0.00597  -0.00747   1.80499
   A10        2.01495   0.00113   0.00000   0.03540   0.03133   2.04628
   A11        2.18183  -0.00381   0.00000  -0.00038  -0.00055   2.18127
   A12        1.61759   0.00875   0.00000   0.03169   0.03059   1.64818
   A13        1.76892  -0.01483   0.00000  -0.13985  -0.13968   1.62924
   A14        2.15522  -0.00016   0.00000   0.00189   0.00186   2.15708
   A15        2.01072   0.00096   0.00000   0.00307   0.00304   2.01376
   A16        2.11716  -0.00080   0.00000  -0.00479  -0.00481   2.11235
   A17        1.88675  -0.00248   0.00000   0.00447   0.00447   1.89122
   A18        1.75141  -0.00369   0.00000  -0.01473  -0.01473   1.73668
    D1        2.45440   0.00163   0.00000   0.06951   0.06939   2.52379
    D2       -0.80627   0.00638   0.00000   0.09419   0.09375  -0.71252
    D3        1.28236  -0.00392   0.00000   0.07824   0.07789   1.36024
    D4       -2.18496   0.00433   0.00000   0.11060   0.11272  -2.07224
    D5       -0.21317  -0.00251   0.00000  -0.06736  -0.06808  -0.28126
    D6        2.80934   0.00223   0.00000  -0.04268  -0.04372   2.76562
    D7       -1.38522  -0.00806   0.00000  -0.05863  -0.05959  -1.44481
    D8        1.43066   0.00018   0.00000  -0.02627  -0.02476   1.40590
    D9        2.64308   0.00265   0.00000   0.04245   0.04184   2.68492
   D10       -0.48413   0.00193   0.00000   0.02916   0.02855  -0.45558
   D11       -0.37252  -0.00238   0.00000   0.01867   0.01803  -0.35449
   D12        2.78345  -0.00311   0.00000   0.00538   0.00474   2.78819
   D13       -2.85693  -0.00327   0.00000  -0.03319  -0.03393  -2.89086
   D14        0.29904  -0.00399   0.00000  -0.04648  -0.04721   0.25183
   D15        1.50663   0.01314   0.00000   0.12136   0.12336   1.62998
   D16       -1.62058   0.01242   0.00000   0.10808   0.11007  -1.51052
   D17        1.58064  -0.00088   0.00000  -0.01443  -0.01545   1.56519
   D18       -1.65962   0.00171   0.00000  -0.00423  -0.00321  -1.66282
   D19        0.67215   0.00604   0.00000   0.06509   0.06510   0.73724
   D20        2.51985  -0.00689   0.00000  -0.08572  -0.08573   2.43413
   D21        2.31448  -0.00237   0.00000  -0.00747  -0.00747   2.30702
         Item               Value     Threshold  Converged?
 Maximum Force            0.016072     0.000450     NO 
 RMS     Force            0.006709     0.000300     NO 
[...]
   D12        2.91558   0.00000   0.00000   0.00000   0.00000   2.91559
   D13       -1.99935  -0.00000   0.00000  -0.00001  -0.00001  -1.99935
   D14        1.22430  -0.00000   0.00000  -0.00001  -0.00001   1.22429
   D15        3.14068   0.00000   0.00000  -0.00001  -0.00001   3.14067
   D16        0.08114  -0.00000   0.00000  -0.00001  -0.00001   0.08113
   D17        1.22369  -0.00000   0.00000  -0.00000  -0.00000   1.22368
   D18       -0.91603  -0.00000   0.00000  -0.00001  -0.00001  -0.91604
   D19        0.84305   0.00000   0.00000   0.00001   0.00001   0.84305
   D20        1.91334   0.00000   0.00000  -0.00000  -0.00000   1.91334
   D21        1.56476   0.00000   0.00000   0.00003   0.00003   1.56479
         Item               Value     Threshold  Converged?
 Maximum Force            0.000005     0.000450     YES
 RMS     Force            0.000001     0.000300     YES
 Maximum Displacement     0.000047     0.001800     YES
 RMS     Displacement     0.000016     0.001200     YES
 Predicted change in Energy=-2.685452D-11
 Optimization completed.
    -- Stationary point found.
                           ----------------------------
                           !   Optimized Parameters   !
                           ! (Angstroms and Degrees)  !
 --------------------------                            --------------------------
 ! Name  Definition              Value          Derivative Info.                !
 --------------------------------------------------------------------------------
 ! R1    R(1,2)                  2.0961         -DE/DX =    0.0                 !
 ! R2    R(1,8)                  1.0923         -DE/DX =    0.0                 !
 ! R3    R(1,9)                  1.0885         -DE/DX =    0.0                 !
 ! R4    R(2,3)                  1.4586         -DE/DX =    0.0                 !
 ! R5    R(2,4)                  1.2657         -DE/DX =    0.0                 !
 ! R6    R(2,11)                 2.3278         -DE/DX =    0.0                 !
 ! R7    R(2,12)                 1.2185         -DE/DX =    0.0                 !
 ! R8    R(3,6)                  1.2217         -DE/DX =    0.0                 !
 ! R9    R(3,10)                 1.1076         -DE/DX =    0.0                 !
 ! R10   R(4,5)                  1.6556         -DE/DX =    0.0                 !
 ! R11   R(5,7)                  0.9774         -DE/DX =    0.0                 !
 ! A1    A(2,1,8)              114.2626         -DE/DX =    0.0                 !
 ! A2    A(2,1,9)              111.9456         -DE/DX =    0.0                 !
 ! A3    A(8,1,9)              113.8828         -DE/DX =    0.0                 !
 ! A4    A(1,2,3)              102.4579         -DE/DX =    0.0                 !
 ! A5    A(1,2,4)              108.0465         -DE/DX =    0.0                 !
 ! A6    A(1,2,11)              27.8122         -DE/DX =    0.0                 !
 ! A7    A(1,2,12)              37.3391         -DE/DX =    0.0                 !
 ! A8    A(3,2,4)              127.7116         -DE/DX =    0.0                 !
 ! A9    A(3,2,11)              98.3156         -DE/DX =    0.0                 !
 ! A10   A(3,2,12)             114.0836         -DE/DX =    0.0                 !
 ! A11   A(4,2,11)              90.3222         -DE/DX =    0.0                 !
 ! A12   A(4,2,12)             116.0288         -DE/DX =    0.0                 !
 ! A13   A(11,2,12)             64.3001         -DE/DX =    0.0                 !
 ! A14   A(2,3,6)              122.2465         -DE/DX =    0.0                 !
 ! A15   A(2,3,10)             115.6131         -DE/DX =    0.0                 !
 ! A16   A(6,3,10)             121.9669         -DE/DX =    0.0                 !
 ! A17   A(2,4,5)              112.0453         -DE/DX =    0.0                 !
 ! A18   A(4,5,7)               96.7658         -DE/DX =    0.0                 !
 ! D1    D(8,1,2,3)           -162.6248         -DE/DX =    0.0                 !
 ! D2    D(8,1,2,4)             60.4193         -DE/DX =    0.0                 !
 ! D3    D(8,1,2,11)           113.1925         -DE/DX =    0.0                 !
 ! D4    D(8,1,2,12)           -49.0827         -DE/DX =    0.0                 !
 ! D5    D(9,1,2,3)            -31.2948         -DE/DX =    0.0                 !
 ! D6    D(9,1,2,4)           -168.2507         -DE/DX =    0.0                 !
 ! D7    D(9,1,2,11)          -115.4775         -DE/DX =    0.0                 !
 ! D8    D(9,1,2,12)            82.2473         -DE/DX =    0.0                 !
 ! D9    D(1,2,3,6)           -142.5303         -DE/DX =    0.0                 !
 ! D10   D(1,2,3,10)            42.1709         -DE/DX =    0.0                 !
 ! D11   D(4,2,3,6)            -17.6506         -DE/DX =    0.0                 !
 ! D12   D(4,2,3,10)           167.0506         -DE/DX =    0.0                 !
 ! D13   D(11,2,3,6)          -114.5541         -DE/DX =    0.0                 !
 ! D14   D(11,2,3,10)           70.1471         -DE/DX =    0.0                 !
 ! D15   D(12,2,3,6)           179.9476         -DE/DX =    0.0                 !
 ! D16   D(12,2,3,10)            4.6489         -DE/DX =    0.0                 !
 ! D17   D(1,2,4,5)             70.1121         -DE/DX =    0.0                 !
 ! D18   D(3,2,4,5)            -52.4845         -DE/DX =    0.0                 !
 ! D19   D(11,2,4,5)            48.303          -DE/DX =    0.0                 !
 ! D20   D(12,2,4,5)           109.6262         -DE/DX =    0.0                 !
 ! D21   D(2,4,5,7)             89.6543         -DE/DX =    0.0                 !
 --------------------------------------------------------------------------------
 GradGradGradGradGradGradGradGradGradGradGradGradGradGradGradGradGradGrad


 ----------------------------------------------------------------------

 Electric dipole moment (input orientation):
 (Debye = 10**-18 statcoulomb cm , SI units = C m)
                  (au)            (Debye)         (10**-30 SI)
   Tot        0.172342D+01      0.438050D+01      0.146118D+02
   x          0.825399D+00      0.209796D+01      0.699803D+01
   y         -0.706871D+00     -0.179669D+01     -0.599310D+01
   z         -0.133762D+01     -0.339989D+01     -0.113408D+02

 Dipole polarizability, Alpha (input orientation).
 (esu units = cm**3 , SI units = C**2 m**2 J**-1)
 Alpha(0;0):
               (au)            (10**-24 esu)      (10**-40 SI)
   iso        0.659874D+02      0.977832D+01      0.108798D+02
   aniso      0.355599D+02      0.526943D+01      0.586303D+01
   xx         0.580034D+02      0.859522D+01      0.956347D+01
   yx        -0.893012D+01     -0.132331D+01     -0.147238D+01
   yy         0.679373D+02      0.100673D+02      0.112014D+02
   zx        -0.170080D+02     -0.252033D+01     -0.280424D+01
   zy         0.710338D+00      0.105261D+00      0.117119D+00
   zz         0.720213D+02      0.106725D+02      0.118747D+02

 ----------------------------------------------------------------------

 Dipole orientation:
     6          0.06926997         -4.37002420          5.02692899
     6          1.79803556         -2.81942520          1.81810973
     6          0.42131530         -0.45479918          1.48505281
     8          2.10224147         -4.57284685          0.22004815
     8         -0.61371637         -5.53465431         -0.99920415
     8         -0.11813185          0.37318112         -0.60148214
     1         -0.64914082         -4.34838199         -2.41443597
     1          1.16363522         -5.86137930          5.94288367
     1         -0.60003809         -2.91541184          6.31820921
     1          0.03024788          0.61917440          3.23842952
     1         -1.38085574         -5.13412292          3.78972482
     1          2.18737778         -3.37822518          4.01765247

 Electric dipole moment (dipole orientation):
 (Debye = 10**-18 statcoulomb cm , SI units = C m)
                  (au)            (Debye)         (10**-30 SI)
   Tot        0.172342D+01      0.438050D+01      0.146118D+02
   x          0.000000D+00      0.000000D+00      0.000000D+00
   y          0.000000D+00      0.000000D+00      0.000000D+00
   z          0.172342D+01      0.438050D+01      0.146118D+02

 Dipole polarizability, Alpha (dipole orientation).
 (esu units = cm**3 , SI units = C**2 m**2 J**-1)
 Alpha(0;0):
               (au)            (10**-24 esu)      (10**-40 SI)
   iso        0.659874D+02      0.977832D+01      0.108798D+02
   aniso      0.355599D+02      0.526943D+01      0.586303D+01
   xx         0.455079D+02      0.674357D+01      0.750324D+01
   yx         0.345861D+01      0.512514D+00      0.570248D+00
   yy         0.677302D+02      0.100366D+02      0.111672D+02
   zx         0.444951D+01      0.659349D+00      0.733625D+00
   zy        -0.172853D+01     -0.256142D+00     -0.284997D+00
   zz         0.847240D+02      0.125548D+02      0.139691D+02

 ----------------------------------------------------------------------
 1\1\GINC-BELL-A103\Freq\RB3LYP\6-31+G(d)\C3H6O3\ZHAO922\23-Dec-2020\0\
 \#N Geom=AllCheck Guess=TCheck SCRF=Check GenChk RB3LYP/6-31+G(d) Freq
 \\pp_9_1 TS\\0,1\C,1.5617026299,1.0064687612,-2.9955817471\C,1.4543924
 769,1.0612812999,-0.9029780956\C,0.597146494,-0.0797917796,-0.60187025
 02\O,1.2921903086,2.2659239954,-0.5501015394\O,-0.2121427274,2.8323635
 655,-0.9464208286\O,-0.2287196042,-0.0551394874,0.2980967618\H,-0.6565
 705331,2.5691689576,-0.1166644397\H,2.3854492808,1.5861559896,-3.41811
 60355\H,1.4953893228,-0.0098099261,-3.3798444996\H,0.7984476552,-0.997
 7348744,-1.1880224981\H,0.6245924859,1.5561747182,-3.0208043358\H,2.22
 39712105,0.87436378,-1.8289774921\\Version=ES64L-G16RevB.01\State=1-A\
 HF=-343.3927749\RMSD=9.642e-09\RMSF=9.410e-07\ZeroPoint=0.0846963\Ther
 mal=0.0925327\Dipole=0.8253994,-0.7068713,-1.3376189\DipoleDeriv=0.006
 4636,-0.0532268,0.0256223,0.039534,0.0164542,-0.0273186,0.0242919,-0.0
 037813,-0.1539651,-0.4287615,-0.1932953,0.085733,0.2950577,-0.7151297,
 0.8061253,-0.1811954,-0.1088105,0.6927118,0.7749591,0.4987356,-0.92594
 32,0.1783977,1.1200613,-0.3059371,-0.3249013,-0.3501072,0.6369573,0.59
 06841,-1.0261791,0.0034944,-0.682837,0.6284589,-0.29829,0.0719164,-0.0
 16576,-0.5878344,-0.9079475,1.0586896,0.1115091,0.1963809,-0.7856775,-
 0.2345604,-0.105534,0.0394647,-0.0342717,-0.6806536,-0.3680097,0.58781
 58,-0.0592761,-0.5217812,0.0696763,0.3459229,0.3751602,-0.8471566,0.28
 32816,-0.0136564,-0.0515983,-0.0009382,0.2451485,0.1243161,-0.0516057,
 0.1836989,0.189904,0.0544486,-0.0434759,-0.0116631,-0.0499426,0.062725
 6,-0.0018531,0.0739698,0.015845,-0.0572743,0.1061477,-0.0232763,-0.016
 4447,-0.0177116,-0.0084959,-0.008575,0.0599713,-0.0346323,-0.0696478,0
 .0198441,0.0905205,0.0747024,0.0486779,-0.1395017,-0.0813596,0.0440253
 ,-0.1253594,-0.0089862,0.0694755,0.0210127,-0.0237162,0.0190621,0.0740
 889,-0.0030136,0.0770801,-0.0730169,0.0086825,0.1120584,0.0521609,0.14
 04885,0.0335953,0.0236485,-0.0392103,-0.0339415,0.0981148,0.2308805\Po
 lar=58.0033949,-8.9301181,67.9373293,-17.0080175,0.7103382,72.0213469\
 Quadrupole=0.6518267,-2.5406312,1.8888045,-1.8836713,-1.8871263,3.2497
 67\PG=C01 [X(C3H6O3)]\NImag=1\\0.55391256,0.00406029,0.60909421,-0.066
 83145,0.04123351,0.23430557,0.01959353,-0.00854415,0.03337695,0.270670
 90,-0.04606771,-0.01201778,-0.00105091,0.05937815,0.65218048,-0.090756
 99,0.02875936,-0.04038862,-0.10225292,0.01826600,0.11886211,0.00083725
 ,0.00119638,-0.00324981,-0.09138758,-0.04892297,0.03844575,0.50860960,
 0.00312364,0.00208313,0.00540646,-0.06760028,-0.17782274,0.02401622,0.
 03934686,0.55646661,0.02161438,0.01044501,-0.00357443,-0.00956474,-0.0
 1949980,-0.05863627,-0.34624076,0.12023074,0.60076517,-0.01158131,0.00
 467855,0.00144578,-0.06549027,-0.04409969,-0.01175379,0.01245422,0.000
 03364,-0.02230974,0.11933474,0.03904917,-0.01403352,-0.00687599,-0.018
 19234,-0.37633506,-0.04860939,-0.01055451,-0.06787434,-0.00168239,0.05
 692706,0.45510040,0.01240876,-0.02641261,-0.00357667,0.00656680,-0.115
 67716,-0.07632454,0.00217253,-0.00574067,0.00908672,0.00653584,0.15140
 104,0.14396220,0.01297789,-0.00532512,-0.00358944,-0.02012655,0.107679
 20,0.03793864,-0.01402511,-0.02371566,0.01817329,-0.03170137,-0.065648
 82,-0.03769661,0.15942657,-0.00742507,0.00298275,0.00021887,0.04155719
 ,-0.04714857,-0.00992317,0.00419343,0.00901950,-0.00128566,-0.03118929
 ,0.00250116,0.00774588,0.03543803,0.08027216,0.00507148,0.00131532,0.0
 0241868,-0.00091512,0.01668488,0.00901835,-0.00365223,-0.00056746,-0.0
 0144511,0.00353113,-0.01178978,-0.04289377,-0.16810698,-0.12548330,0.3
 9922996,-0.00496329,-0.00170513,-0.00310463,-0.03753056,-0.03930627,0.
 03122305,-0.34487619,0.01898659,0.31886289,-0.00940990,0.01551099,-0.0
 0216079,0.01345050,-0.00088917,0.00120815,0.38382921,-0.00320578,-0.00
 082915,-0.00161977,-0.02175616,0.00944004,0.02034148,0.00350691,-0.099
 83551,-0.02071059,-0.00008141,0.00799393,0.00374174,0.00117776,-0.0028
 8157,-0.00002178,0.00231179,0.07269771,-0.00235171,-0.00205231,0.00231
 404,0.05297792,0.03805801,-0.01466517,0.30988310,-0.03575891,-0.414469
 91,0.00604974,-0.01415582,0.00118134,-0.01329149,0.00399113,-0.0007709
 4,-0.38398160,0.01780288,0.44598429,-0.00044343,-0.00081259,-0.0019031
 1,-0.00044125,0.00428484,0.00361427,0.00133572,-0.00023469,0.00115277,
 -0.01809714,-0.00591917,0.01708777,-0.11242614,-0.04290176,0.15699359,
 -0.00079676,-0.00027669,-0.00056634,0.13230107,-0.00012944,-0.00019459
 ,0.00067511,0.00164536,-0.00625455,-0.00296016,0.00580147,0.00107294,-
 0.00536462,0.00361059,0.00534182,-0.00750100,-0.05235259,-0.04419908,0
 .12553161,-0.00449820,0.00210518,0.00304812,0.04488469,0.04275143,0.00
 037951,-0.00023219,-0.00021837,0.00053946,0.00349026,0.00081107,-0.000
 83254,-0.00259787,0.00238780,-0.00792996,-0.00432705,0.00750309,0.1820
 4741,0.11700940,-0.36783976,0.00079407,0.00060777,-0.00255507,-0.17448
 465,-0.11514685,0.36040447,-0.20882498,-0.11430951,0.08503507,-0.00055
 494,0.00670248,0.00439974,-0.00092501,-0.00102343,-0.00199333,-0.00006
 795,-0.00212903,0.00017546,-0.00023841,0.00048382,0.00023153,0.0013228
 5,0.00046165,-0.00013963,-0.00000158,0.00006133,-0.00001951,0.22081993
 ,-0.11589633,-0.13035240,0.05279080,0.00195371,0.00057815,0.00012976,-
 0.00021924,-0.00150360,-0.00024149,-0.00034761,-0.00021143,0.00009760,
 0.00027405,-0.00026514,-0.00025331,0.00036255,0.00062420,-0.00020374,-
 0.00001843,-0.00002260,0.00006869,0.12352758,0.13122270,0.09344244,0.0
 5537253,-0.07857929,-0.00176482,0.01669191,0.01710086,-0.00266245,-0.0
 0386776,-0.00607176,0.00040070,-0.00828117,-0.00138502,-0.00067558,0.0
 0041183,-0.00005189,0.00251719,0.00150901,0.00019402,-0.00006568,0.000
 22402,0.00010455,-0.09009457,-0.06275958,0.08527184,-0.05186356,-0.017
 81149,-0.00273857,-0.00150463,0.00011252,-0.00097687,-0.00001472,0.000
 20162,0.00037098,-0.00102651,0.00109200,-0.00042436,0.00079437,-0.0004
 3420,0.00091445,-0.00005995,-0.00010043,-0.00008091,-0.00004177,0.0000
 8938,0.00020687,0.00075358,-0.01987079,-0.01094679,0.04705459,-0.01720
 627,-0.30676723,-0.09605604,0.00216898,0.00051358,-0.00214161,0.000293
 09,-0.00064857,-0.00023190,0.00010383,0.00123968,0.00220055,-0.0005819
 0,0.00032373,-0.00067897,-0.00013401,0.00022305,0.00045655,0.00010219,
 -0.00004805,-0.00012429,0.00170313,-0.01013672,-0.00606106,0.01916355,
 0.32267326,-0.00297292,-0.09938828,-0.07514276,-0.00252799,-0.00073526
 ,0.00977450,-0.00231685,-0.00378535,-0.00019447,0.00045018,-0.00460291
 ,-0.00948970,-0.00047506,-0.00011068,0.00180075,0.00083488,0.00113089,
 -0.00067586,-0.00042234,0.00004947,0.00021272,-0.00043815,0.01299941,0
 .00704556,0.00503806,0.10346361,0.07578057,-0.00036596,0.00116789,0.00
 136476,0.01138306,-0.01729643,-0.00551733,-0.06007920,0.02463547,0.015
 62400,0.00109441,-0.00555171,0.00077365,-0.00222820,0.00035782,0.00039
 087,-0.00212617,0.02174227,0.02898457,-0.00031331,0.00020903,-0.000120
 59,-0.00010407,0.00013062,-0.00007252,0.00015702,-0.00061884,0.0008549
 5,0.05236696,0.00016376,-0.00002225,-0.00044681,0.00512391,-0.01891643
 ,-0.01730263,0.01590216,-0.22815697,-0.08922012,-0.00635915,-0.0029139
 0,0.00206857,0.00087066,0.00088044,-0.00099047,0.01057508,0.01362576,-
 0.01222086,0.00017820,-0.00008240,0.00024901,0.00017045,0.00041359,0.0
 0045500,-0.00017868,0.00039463,0.00138137,-0.02561555,0.23547319,-0.00
 093788,-0.00009670,0.00001339,0.00193744,0.00117948,0.00716856,0.01261
 804,-0.09234403,-0.10350413,0.00396807,0.00069906,0.00078660,-0.001010
 40,-0.00076884,0.00054585,0.02577287,-0.02549354,-0.02085553,-0.000251
 57,0.00078770,-0.00020637,0.00004602,0.00008036,0.00072859,0.00036082,
 0.00102772,-0.00030491,-0.04214190,0.11516235,0.11472947,-0.27427813,0
 .13064613,-0.00410919,0.00089490,0.00136357,-0.00170118,0.00071774,-0.
 00049219,0.00084766,0.00035913,-0.00083595,0.00054705,-0.00164933,0.00
 047148,-0.00014929,-0.00018568,0.00005867,-0.00022049,0.00046419,-0.00
 016452,0.00003039,-0.01640255,0.01207641,-0.00161857,0.00664070,-0.004
 02038,0.00141113,-0.00015128,0.00006465,-0.00012034,0.28492060,0.13200
 149,-0.12630282,-0.00061043,0.00094583,-0.00035471,0.00112098,0.000923
 99,0.00019912,-0.00025785,-0.00186895,0.00124784,-0.00167902,0.0016997
 9,-0.00164919,0.00062598,-0.00049473,-0.00003533,0.00032016,-0.0003166
 1,0.00043964,0.00042566,-0.01672368,0.01079019,-0.00197128,0.02397294,
 -0.00978629,0.00299006,0.00010452,-0.00011071,0.00005228,-0.13787263,0
 .12768525,-0.01185313,0.00173220,-0.03276081,-0.00466208,-0.00239824,-
 0.02727612,-0.00285232,-0.00050526,0.00077587,-0.00750271,0.01191642,0
 .00218045,0.00824432,-0.00338893,0.00353010,0.00083376,-0.00034998,-0.
 00060992,-0.00040210,0.00015589,0.00057667,0.01065371,-0.00691202,0.00
 232020,0.01092856,-0.00454270,0.00199329,-0.00021398,0.00023995,-0.000
 06866,0.00291775,-0.00245189,0.03899649,-0.03500057,0.00675876,-0.0356
 9636,-0.08550661,0.01617231,0.09733762,-0.01264671,0.00673841,0.003462
 60,0.00413195,-0.00374768,-0.00598610,-0.00425422,0.00033773,0.0044824
 4,0.00134595,-0.00383857,0.00273685,-0.00153960,0.00084290,-0.00061046
 ,0.00422312,-0.00197252,0.01154063,-0.00088911,-0.00097336,0.00056411,
 0.00036674,-0.00089549,-0.00024116,-0.00133029,-0.00237196,-0.00609178
 ,0.13109936,0.01153225,-0.02364035,0.00633519,0.00331980,-0.02386241,-
 0.01169684,-0.01146756,0.00700042,0.00781869,0.01859244,-0.01205658,-0
 .01024493,0.00048459,0.00016381,-0.00437273,-0.00071949,-0.00312830,0.
 00071478,0.00103002,-0.00090975,0.00057745,0.00107521,-0.00113694,0.00
 827656,-0.00623643,0.00201892,-0.01339234,0.00073492,-0.00058494,-0.00
 028584,-0.00129522,-0.00212300,0.00650456,-0.01705052,0.05825911,0.042
 78752,-0.01067583,-0.00481072,0.02628909,0.04499083,0.05455525,-0.0013
 1246,-0.00448611,-0.02511948,0.02711478,-0.06369202,-0.03103071,-0.021
 55810,0.01158346,-0.00354224,0.00720016,0.00306189,0.00492871,-0.00075
 261,0.00050069,-0.00118079,-0.00785634,0.00420352,-0.02667766,-0.00265
 224,0.00268814,-0.01079970,0.00007352,0.00062463,0.00096715,0.00216507
 ,0.00143535,0.01034244,-0.07149839,0.00976544,0.03236777\\0.00000300,-
 0.00000140,-0.00000022,0.00000002,-0.00000023,-0.00000020,0.00000004,-
 0.00000029,-0.00000034,0.00000011,-0.00000013,0.00000022,0.00000017,-0
 .00000027,0.00000079,0.00000037,-0.00000054,-0.00000017,0.00000015,-0.
 00000051,0.00000070,-0.00000029,0.00000062,-0.00000022,-0.00000016,0.0
 0000049,-0.00000044,0.00000013,-0.00000011,-0.00000057,-0.00000344,0.0
 0000226,0.00000051,-0.00000010,0.00000014,-0.00000005\\\@


 There ain't no surer way to find out whether you
 like people or hate them than to travel with them.
                                     -- Mark Twain
 Job cpu time:       0 days  0 hours  4 minutes 11.8 seconds.
 Elapsed time:       0 days  0 hours  0 minutes 16.0 seconds.
 File lengths (MBytes):  RWF=     27 Int=      0 D2E=      0 Chk=      3 Scr=      1
 Normal termination of Gaussian 16 at Wed Dec 23 22:07:40 2020.
