 Entering Gaussian System, Link 0=g16
 Initial command:
 /apps/cent7/gaussian/g16-B.01/g16-haswell/g16/l1.exe "/scratch/bell/zhao922/YARP/paper-example/KHP-network/pp_0/TS-folder/Gau-3769.inp" -scrdir="/scratch/bell/zhao922/YARP/paper-example/KHP-network/pp_0/TS-folder/"
 Entering Link 1 = /apps/cent7/gaussian/g16-B.01/g16-haswell/g16/l1.exe PID=      3770.
  
 Copyright (c) 1988-2017, Gaussian, Inc.  All Rights Reserved.
  
 This is part of the Gaussian(R) 16 program.  It is based on
 the Gaussian(R) 09 system (copyright 2009, Gaussian, Inc.),
 the Gaussian(R) 03 system (copyright 2003, Gaussian, Inc.),
 the Gaussian(R) 98 system (copyright 1998, Gaussian, Inc.),
 the Gaussian(R) 94 system (copyright 1995, Gaussian, Inc.),
 the Gaussian 92(TM) system (copyright 1992, Gaussian, Inc.),
 the Gaussian 90(TM) system (copyright 1990, Gaussian, Inc.),
 the Gaussian 88(TM) system (copyright 1988, Gaussian, Inc.),
 the Gaussian 86(TM) system (copyright 1986, Carnegie Mellon
 University), and the Gaussian 82(TM) system (copyright 1983,
 Carnegie Mellon University). Gaussian is a federally registered
 trademark of Gaussian, Inc.
  
 This software contains proprietary and confidential information,
 including trade secrets, belonging to Gaussian, Inc.
  
 This software is provided under written license and may be
 used, copied, transmitted, or stored only in accord with that
 written license.
  
 The following legend is applicable only to US Government
 contracts under FAR:
  
                    RESTRICTED RIGHTS LEGEND
  
 Use, reproduction and disclosure by the US Government is
 subject to restrictions as set forth in subparagraphs (a)
 and (c) of the Commercial Computer Software - Restricted
 Rights clause in FAR 52.227-19.
  
 Gaussian, Inc.
 340 Quinnipiac St., Bldg. 40, Wallingford CT 06492
  
  
 ---------------------------------------------------------------
 Warning -- This program may not be used in any manner that
 competes with the business of Gaussian, Inc. or will provide
 assistance to any competitor of Gaussian, Inc.  The licensee
 of this program is prohibited from giving any competitor of
 Gaussian, Inc. access to this program.  By using this program,
 the user acknowledges that Gaussian, Inc. is engaged in the
 business of creating and licensing software in the field of
 computational chemistry and represents and warrants to the
 licensee that it is not a competitor of Gaussian, Inc. and that
 it will not use this program in any manner prohibited above.
 ---------------------------------------------------------------
  

 Cite this work as:
 Gaussian 16, Revision B.01,
 M. J. Frisch, G. W. Trucks, H. B. Schlegel, G. E. Scuseria, 
 M. A. Robb, J. R. Cheeseman, G. Scalmani, V. Barone, 
 G. A. Petersson, H. Nakatsuji, X. Li, M. Caricato, A. V. Marenich, 
 J. Bloino, B. G. Janesko, R. Gomperts, B. Mennucci, H. P. Hratchian, 
 J. V. Ortiz, A. F. Izmaylov, J. L. Sonnenberg, D. Williams-Young, 
 F. Ding, F. Lipparini, F. Egidi, J. Goings, B. Peng, A. Petrone, 
 T. Henderson, D. Ranasinghe, V. G. Zakrzewski, J. Gao, N. Rega, 
 G. Zheng, W. Liang, M. Hada, M. Ehara, K. Toyota, R. Fukuda, 
 J. Hasegawa, M. Ishida, T. Nakajima, Y. Honda, O. Kitao, H. Nakai, 
 T. Vreven, K. Throssell, J. A. Montgomery, Jr., J. E. Peralta, 
 F. Ogliaro, M. J. Bearpark, J. J. Heyd, E. N. Brothers, K. N. Kudin, 
 V. N. Staroverov, T. A. Keith, R. Kobayashi, J. Normand, 
 K. Raghavachari, A. P. Rendell, J. C. Burant, S. S. Iyengar, 
 J. Tomasi, M. Cossi, J. M. Millam, M. Klene, C. Adamo, R. Cammi, 
 J. W. Ochterski, R. L. Martin, K. Morokuma, O. Farkas, 
 J. B. Foresman, and D. J. Fox, Gaussian, Inc., Wallingford CT, 2016.
 
 ******************************************
 Gaussian 16:  ES64L-G16RevB.01 20-Dec-2017
                23-Dec-2020 
 ******************************************
 %NProcShared=16
 Will use up to   16 processors via shared memory.
 %Mem=6GB
 --------------------------------------------------------------
 # B3LYP/6-31+G* OPT=(TS, CALCALL, NOEIGEN, maxcycles=100) Freq
 --------------------------------------------------------------
 1/5=1,6=100,10=4,11=1,18=20,26=3,38=1/1,3;
 2/9=110,12=2,17=6,18=5,40=1/2;
 3/5=1,6=6,7=11,11=2,25=1,30=1,71=2,74=-5,140=1/1,2,3;
 4//1;
 5/5=2,38=5/2;
 8/6=4,10=90,11=11/1;
 11/6=1,8=1,9=11,15=111,16=1/1,2,10;
 10/6=1/2;
 6/7=2,8=2,9=2,10=2,18=1,28=1/1;
 7/10=1,25=1/1,2,3,16;
 1/5=1,6=100,10=4,11=1,18=20,26=3/3(3);
 2/9=110/2;
 7/8=1,9=1,25=1,44=-1/16;
 99//99;
 2/9=110/2;
 3/5=1,6=6,7=11,11=2,25=1,30=1,71=2,74=-5,140=1/1,2,3;
 4/5=5,16=3,69=1/1;
 5/5=2,38=5/2;
 8/6=4,10=90,11=11/1;
 11/6=1,8=1,9=11,15=111,16=1/1,2,10;
 10/6=1/2;
 7/10=1,25=1/1,2,3,16;
 1/5=1,6=100,10=4,11=1,18=20,26=3/3(-8);
 2/9=110/2;
 6/7=2,8=2,9=2,10=2,18=1,19=2,28=1/1;
 7/8=1,9=1,25=1,44=-1/16;
 99//99;
 ---------
 pp_9_2 TS
 ---------
 Symbolic Z-matrix:
 Charge =  0 Multiplicity = 1
 C                     0.76261   1.38225  -1.84316 
 C                     0.36769   0.33788  -0.7765 
 C                     1.45789  -0.47362  -1.46262 
 O                     1.93399   2.18906  -1.95987 
 O                     1.49174   3.49506  -2.40853 
 O                     2.43048  -1.02648  -1.00157 
 H                     2.34863   3.92477  -2.55787 
 H                     0.48158   1.7873   -0.65196 
 H                     0.40642   1.28221  -2.86688 
 H                     1.04975  -0.90148  -2.39235 
 H                     0.13997  -0.35007   0.05801 
 H                    -0.36204   0.79504   0.044 
 

 GradGradGradGradGradGradGradGradGradGradGradGradGradGradGradGradGradGrad
 Berny optimization.
 Initialization pass.
                           ----------------------------
                           !    Initial Parameters    !
                           ! (Angstroms and Degrees)  !
 --------------------------                            --------------------------
 ! Name  Definition              Value          Derivative Info.                !
 --------------------------------------------------------------------------------
 ! R1    R(1,2)                  1.5442         calculate D2E/DX2 analytically  !
 ! R2    R(1,4)                  1.4271         calculate D2E/DX2 analytically  !
 ! R3    R(1,8)                  1.2892         calculate D2E/DX2 analytically  !
 ! R4    R(1,9)                  1.0885         calculate D2E/DX2 analytically  !
 ! R5    R(2,3)                  1.5224         calculate D2E/DX2 analytically  !
 ! R6    R(2,11)                 1.1052         calculate D2E/DX2 analytically  !
 ! R7    R(2,12)                 1.1894         calculate D2E/DX2 analytically  !
 ! R8    R(3,6)                  1.21           calculate D2E/DX2 analytically  !
 ! R9    R(3,10)                 1.1018         calculate D2E/DX2 analytically  !
 ! R10   R(4,5)                  1.45           calculate D2E/DX2 analytically  !
 ! R11   R(5,7)                  0.9702         calculate D2E/DX2 analytically  !
 ! A1    A(2,1,4)              130.4488         calculate D2E/DX2 analytically  !
 ! A2    A(2,1,8)               61.215          calculate D2E/DX2 analytically  !
 ! A3    A(2,1,9)              120.2515         calculate D2E/DX2 analytically  !
 ! A4    A(4,1,8)               94.4087         calculate D2E/DX2 analytically  !
 ! A5    A(4,1,9)              104.1009         calculate D2E/DX2 analytically  !
 ! A6    A(8,1,9)              145.7444         calculate D2E/DX2 analytically  !
 ! A7    A(1,2,3)               82.3021         calculate D2E/DX2 analytically  !
 ! A8    A(1,2,12)             111.9296         calculate D2E/DX2 analytically  !
 ! A9    A(3,2,11)              98.9775         calculate D2E/DX2 analytically  !
 ! A10   A(3,2,12)             162.7638         calculate D2E/DX2 analytically  !
 ! A11   A(11,2,12)             65.9192         calculate D2E/DX2 analytically  !
 ! A12   A(2,3,6)              130.3456         calculate D2E/DX2 analytically  !
 ! A13   A(2,3,10)             108.7841         calculate D2E/DX2 analytically  !
 ! A14   A(6,3,10)             116.2204         calculate D2E/DX2 analytically  !
 ! A15   A(1,4,5)              106.5084         calculate D2E/DX2 analytically  !
 ! A16   A(4,5,7)              100.2054         calculate D2E/DX2 analytically  !
 ! A17   L(1,2,11,3,-1)        181.2796         calculate D2E/DX2 analytically  !
 ! A18   L(1,2,11,3,-2)        174.5014         calculate D2E/DX2 analytically  !
 ! D1    D(4,1,2,3)            -71.7329         calculate D2E/DX2 analytically  !
 ! D2    D(4,1,2,12)            98.177          calculate D2E/DX2 analytically  !
 ! D3    D(8,1,2,3)           -141.0534         calculate D2E/DX2 analytically  !
 ! D4    D(8,1,2,12)            28.8564         calculate D2E/DX2 analytically  !
 ! D5    D(9,1,2,3)             78.475          calculate D2E/DX2 analytically  !
 ! D6    D(9,1,2,12)          -111.6151         calculate D2E/DX2 analytically  !
 ! D7    D(2,1,4,5)           -140.1994         calculate D2E/DX2 analytically  !
 ! D8    D(8,1,4,5)            -84.8738         calculate D2E/DX2 analytically  !
 ! D9    D(9,1,4,5)             66.0659         calculate D2E/DX2 analytically  !
 ! D10   D(1,2,3,6)            126.889          calculate D2E/DX2 analytically  !
 ! D11   D(1,2,3,10)           -78.7911         calculate D2E/DX2 analytically  !
 ! D12   D(11,2,3,6)           -47.6124         calculate D2E/DX2 analytically  !
 ! D13   D(11,2,3,10)          106.7075         calculate D2E/DX2 analytically  !
 ! D14   D(12,2,3,6)           -19.8483         calculate D2E/DX2 analytically  !
 ! D15   D(12,2,3,10)          134.4716         calculate D2E/DX2 analytically  !
 ! D16   D(1,4,5,7)           -173.5353         calculate D2E/DX2 analytically  !
 --------------------------------------------------------------------------------
 Trust Radius=3.00D-01 FncErr=1.00D-07 GrdErr=1.00D-06 EigMax=2.50D+02 EigMin=1.00D-04
 Number of steps in this run=    100 maximum allowed number of steps=    100.
 Search for a saddle point of order  1.
 GradGradGradGradGradGradGradGradGradGradGradGradGradGradGradGradGradGrad

                          Input orientation:                          
 ---------------------------------------------------------------------
 Center     Atomic      Atomic             Coordinates (Angstroms)
 Number     Number       Type             X           Y           Z
 ---------------------------------------------------------------------
      1          6           0        0.762611    1.382253   -1.843162
      2          6           0        0.367689    0.337876   -0.776495
      3          6           0        1.457891   -0.473619   -1.462619
      4          8           0        1.933987    2.189057   -1.959874
      5          8           0        1.491739    3.495063   -2.408531
      6          8           0        2.430484   -1.026483   -1.001569
      7          1           0        2.348625    3.924769   -2.557865
      8          1           0        0.481583    1.787296   -0.651962
      9          1           0        0.406424    1.282205   -2.866879
     10          1           0        1.049746   -0.901476   -2.392349
     11          1           0        0.139967   -0.350074    0.058013
     12          1           0       -0.362041    0.795038    0.044001
 ---------------------------------------------------------------------
                    Distance matrix (angstroms):
                    1          2          3          4          5
     1  C    0.000000
     2  C    1.544171   0.000000
     3  C    2.018041   1.522442   0.000000
     4  O    1.427122   2.698249   2.750232   0.000000
     5  O    2.305480   3.727581   4.079992   1.450010   0.000000
     6  O    3.048293   2.483396   1.210026   3.391837   4.827542
     7  H    3.080686   4.468018   4.619393   1.882077   0.970155
     8  H    1.289183   1.459212   2.592697   1.995375   2.649985
     9  H    1.088520   2.294115   2.482025   1.994615   2.506937
    10  H    2.366320   2.147598   1.101836   3.243503   4.418730
    11  H    2.646339   1.105231   2.016063   3.706422   4.764053
    12  H    2.273994   1.189419   2.681706   3.351201   4.091644
                    6          7          8          9         10
     6  O    0.000000
     7  H    5.190728   0.000000
     8  H    3.440609   3.418641   0.000000
     9  H    3.592526   3.294052   2.273021   0.000000
    10  H    1.963755   5.000712   3.252883   2.325404   0.000000
    11  H    2.612798   5.476794   2.277963   3.360108   2.671332
    12  H    3.494188   4.890054   1.476700   3.049769   3.287416
                   11         12
    11  H    0.000000
    12  H    1.250396   0.000000
 Stoichiometry    C3H6O3
 Framework group  C1[X(C3H6O3)]
 Deg. of freedom    30
 Full point group                 C1      NOp   1
 Largest Abelian subgroup         C1      NOp   1
 Largest concise Abelian subgroup C1      NOp   1
                         Standard orientation:                         
 ---------------------------------------------------------------------
 Center     Atomic      Atomic             Coordinates (Angstroms)
 Number     Number       Type             X           Y           Z
 ---------------------------------------------------------------------
      1          6           0       -0.385914    0.526555    0.358140
      2          6           0        0.937079    1.146076   -0.142207
      3          6           0        1.501316   -0.187541    0.327828
      4          8           0       -1.178914   -0.527590   -0.186476
      5          8           0       -2.563340   -0.129536   -0.020803
      6          8           0        2.178909   -1.001440   -0.257492
      7          1           0       -3.011120   -0.938424   -0.314732
      8          1           0       -0.399108    1.229069   -0.722737
      9          1           0       -0.615018    0.508235    1.422119
     10          1           0        1.612517   -0.159291    1.423674
     11          1           0        1.850198    1.567825   -0.600331
     12          1           0        0.754402    2.150577   -0.752391
 ---------------------------------------------------------------------
 Rotational constants (GHZ):           8.4169037           1.8765471           1.6353462
 Standard basis: 6-31+G(d) (6D, 7F)
 There are   126 symmetry adapted cartesian basis functions of A   symmetry.
 There are   126 symmetry adapted basis functions of A   symmetry.
   126 basis functions,   216 primitive gaussians,   126 cartesian basis functions
    24 alpha electrons       24 beta electrons
       nuclear repulsion energy       237.0759491840 Hartrees.
 NAtoms=   12 NActive=   12 NUniq=   12 SFac= 1.00D+00 NAtFMM=   60 NAOKFM=F Big=F
 Integral buffers will be    131072 words long.
 Raffenetti 2 integral format.
 Two-electron integral symmetry is turned on.
 One-electron integrals computed using PRISM.
 NBasis=   126 RedAO= T EigKep=  1.66D-04  NBF=   126
 NBsUse=   126 1.00D-06 EigRej= -1.00D+00 NBFU=   126
 ExpMin= 4.38D-02 ExpMax= 5.48D+03 ExpMxC= 8.25D+02 IAcc=3 IRadAn=         5 AccDes= 0.00D+00
 Harris functional with IExCor=  402 and IRadAn=       5 diagonalized for initial guess.
 HarFok:  IExCor=  402 AccDes= 0.00D+00 IRadAn=         5 IDoV= 1 UseB2=F ITyADJ=14
 ICtDFT=  3500011 ScaDFX=  1.000000  1.000000  1.000000  1.000000
 FoFCou: FMM=F IPFlag=           0 FMFlag=      100000 FMFlg1=           0
         NFxFlg=           0 DoJE=T BraDBF=F KetDBF=T FulRan=T
         wScrn=  0.000000 ICntrl=       500 IOpCl=  0 I1Cent=   200000004 NGrid=           0
         NMat0=    1 NMatS0=      1 NMatT0=    0 NMatD0=    1 NMtDS0=    0 NMtDT0=    0
 Petite list used in FoFCou.
 Keep R1 ints in memory in canonical form, NReq=47237537.
 Requested convergence on RMS density matrix=1.00D-08 within 128 cycles.
 Requested convergence on MAX density matrix=1.00D-06.
 Requested convergence on             energy=1.00D-06.
 No special actions if energy rises.
 SCF Done:  E(RB3LYP) =  -343.137787470     A.U. after   17 cycles
            NFock= 17  Conv=0.26D-08     -V/T= 2.0088
 DoSCS=F DFT=T ScalE2(SS,OS)=  1.000000  1.000000
 Range of M.O.s used for correlation:     1   126
 NBasis=   126 NAE=    24 NBE=    24 NFC=     0 NFV=     0
 NROrb=    126 NOA=    24 NOB=    24 NVA=   102 NVB=   102

 **** Warning!!: The largest alpha MO coefficient is  0.27328097D+02

 Symmetrizing basis deriv contribution to polar:
 IMax=3 JMax=2 DiffMx= 0.00D+00
 G2DrvN: will do    13 centers at a time, making    1 passes.
 Calling FoFCou, ICntrl=  3107 FMM=F I1Cent=   0 AccDes= 0.00D+00.
 End of G2Drv F.D. properties file   721 does not exist.
 End of G2Drv F.D. properties file   722 does not exist.
 End of G2Drv F.D. properties file   788 does not exist.
          IDoAtm=111111111111
          Differentiating once with respect to electric field.
                with respect to dipole field.
          Differentiating once with respect to nuclear coordinates.
 Keep R1 ints in memory in canonical form, NReq=47193545.
          There are    39 degrees of freedom in the 1st order CPHF.  IDoFFX=6 NUNeed=     3.
     36 vectors produced by pass  0 Test12= 6.28D-15 2.56D-09 XBig12= 1.14D+02 5.48D+00.
 AX will form    36 AO Fock derivatives at one time.
     36 vectors produced by pass  1 Test12= 6.28D-15 2.56D-09 XBig12= 2.82D+01 1.14D+00.
     36 vectors produced by pass  2 Test12= 6.28D-15 2.56D-09 XBig12= 3.13D-01 7.55D-02.
     36 vectors produced by pass  3 Test12= 6.28D-15 2.56D-09 XBig12= 2.75D-03 7.81D-03.
     36 vectors produced by pass  4 Test12= 6.28D-15 2.56D-09 XBig12= 7.52D-06 4.07D-04.
     35 vectors produced by pass  5 Test12= 6.28D-15 2.56D-09 XBig12= 1.22D-08 1.88D-05.
      5 vectors produced by pass  6 Test12= 6.28D-15 2.56D-09 XBig12= 1.14D-11 4.91D-07.
      2 vectors produced by pass  7 Test12= 6.28D-15 2.56D-09 XBig12= 9.02D-15 1.18D-08.
 InvSVY:  IOpt=1 It=  1 EMax= 3.55D-15
 Solved reduced A of dimension   222 with    39 vectors.
 Isotropic polarizability for W=    0.000000       67.45 Bohr**3.
 End of Minotr F.D. properties file   721 does not exist.
 End of Minotr F.D. properties file   722 does not exist.
 End of Minotr F.D. properties file   788 does not exist.

 **********************************************************************

            Population analysis using the SCF Density.

 **********************************************************************

 Orbital symmetries:
       Occupied  (A) (A) (A) (A) (A) (A) (A) (A) (A) (A) (A) (A)
                 (A) (A) (A) (A) (A) (A) (A) (A) (A) (A) (A) (A)
       Virtual   (A) (A) (A) (A) (A) (A) (A) (A) (A) (A) (A) (A)
                 (A) (A) (A) (A) (A) (A) (A) (A) (A) (A) (A) (A)
                 (A) (A) (A) (A) (A) (A) (A) (A) (A) (A) (A) (A)
                 (A) (A) (A) (A) (A) (A) (A) (A) (A) (A) (A) (A)
                 (A) (A) (A) (A) (A) (A) (A) (A) (A) (A) (A) (A)
                 (A) (A) (A) (A) (A) (A) (A) (A) (A) (A) (A) (A)
                 (A) (A) (A) (A) (A) (A) (A) (A) (A) (A) (A) (A)
                 (A) (A) (A) (A) (A) (A) (A) (A) (A) (A) (A) (A)
                 (A) (A) (A) (A) (A) (A)
 The electronic state is 1-A.
 Alpha  occ. eigenvalues --  -19.22254 -19.22086 -19.16265 -10.32398 -10.30044
 Alpha  occ. eigenvalues --  -10.25048  -1.13530  -1.06422  -0.94075  -0.84566
 Alpha  occ. eigenvalues --   -0.67380  -0.64906  -0.55334  -0.53951  -0.51640
 Alpha  occ. eigenvalues --   -0.49998  -0.45582  -0.41876  -0.39513  -0.37160
 Alpha  occ. eigenvalues --   -0.29352  -0.28225  -0.25478  -0.23423
 Alpha virt. eigenvalues --   -0.10649  -0.04566  -0.01357  -0.00097   0.01304
 Alpha virt. eigenvalues --    0.02773   0.04673   0.05389   0.06469   0.07275
 Alpha virt. eigenvalues --    0.07659   0.09530   0.09672   0.12959   0.13829
 Alpha virt. eigenvalues --    0.14524   0.15120   0.16578   0.18833   0.20046
 Alpha virt. eigenvalues --    0.22541   0.23061   0.23962   0.24882   0.25442
 Alpha virt. eigenvalues --    0.26773   0.27928   0.28873   0.29488   0.31841
 Alpha virt. eigenvalues --    0.32954   0.34149   0.35776   0.38488   0.41136
 Alpha virt. eigenvalues --    0.44564   0.65206   0.68280   0.68463   0.71255
 Alpha virt. eigenvalues --    0.72196   0.77924   0.79200   0.82015   0.83874
 Alpha virt. eigenvalues --    0.86882   0.91898   0.95646   0.98236   1.00248
 Alpha virt. eigenvalues --    1.02306   1.07092   1.12140   1.13994   1.16470
 Alpha virt. eigenvalues --    1.19856   1.22198   1.24452   1.26880   1.28406
 Alpha virt. eigenvalues --    1.30753   1.32559   1.36500   1.47607   1.49654
 Alpha virt. eigenvalues --    1.52491   1.57743   1.59026   1.64204   1.65211
 Alpha virt. eigenvalues --    1.68745   1.73740   1.77332   1.79578   1.82221
 Alpha virt. eigenvalues --    1.86228   1.90550   1.92107   1.98412   1.99555
 Alpha virt. eigenvalues --    2.08719   2.13725   2.19572   2.27680   2.32529
 Alpha virt. eigenvalues --    2.40350   2.41293   2.46045   2.48306   2.50232
 Alpha virt. eigenvalues --    2.62797   2.76208   2.86838   2.95574   3.08101
 Alpha virt. eigenvalues --    3.14727   3.95561   4.10612   4.21413   4.33845
 Alpha virt. eigenvalues --    4.40822   4.43519
          Condensed to atoms (all electrons):
               1          2          3          4          5          6
     1  C    5.851411   0.136714  -0.330001   0.132312  -0.016129  -0.025037
     2  C    0.136714   6.467040  -0.304418  -0.090374   0.024445  -0.197660
     3  C   -0.330001  -0.304418   5.736084   0.021347  -0.022744   0.504751
     4  O    0.132312  -0.090374   0.021347   8.255572  -0.025311   0.008987
     5  O   -0.016129   0.024445  -0.022744  -0.025311   8.378779  -0.000324
     6  O   -0.025037  -0.197660   0.504751   0.008987  -0.000324   8.114870
     7  H    0.006707  -0.001491   0.000527  -0.023064   0.190683   0.000036
     8  H    0.123583   0.085957   0.048040  -0.146326   0.017881  -0.004058
     9  H    0.488601  -0.096867  -0.041961  -0.092856   0.013995  -0.000175
    10  H   -0.067309  -0.141247   0.503419  -0.002085   0.000351  -0.051055
    11  H    0.012121   0.365512  -0.071821   0.000594  -0.000002  -0.029442
    12  H   -0.035180   0.189451   0.068989   0.010405   0.000228   0.010331
               7          8          9         10         11         12
     1  C    0.006707   0.123583   0.488601  -0.067309   0.012121  -0.035180
     2  C   -0.001491   0.085957  -0.096867  -0.141247   0.365512   0.189451
     3  C    0.000527   0.048040  -0.041961   0.503419  -0.071821   0.068989
     4  O   -0.023064  -0.146326  -0.092856  -0.002085   0.000594   0.010405
     5  O    0.190683   0.017881   0.013995   0.000351  -0.000002   0.000228
     6  O    0.000036  -0.004058  -0.000175  -0.051055  -0.029442   0.010331
     7  H    0.345794   0.000155  -0.000140   0.000002   0.000001  -0.000012
     8  H    0.000155   0.730728   0.006571   0.003990   0.007677  -0.081152
     9  H   -0.000140   0.006571   0.495599   0.003285   0.001442  -0.000573
    10  H    0.000002   0.003990   0.003285   0.525896  -0.004161   0.002224
    11  H    0.000001   0.007677   0.001442  -0.004161   0.396935  -0.045948
    12  H   -0.000012  -0.081152  -0.000573   0.002224  -0.045948   0.616513
 Mulliken charges:
               1
     1  C   -0.277792
     2  C   -0.437062
     3  C   -0.112211
     4  O   -0.049201
     5  O   -0.561851
     6  O   -0.331224
     7  H    0.480801
     8  H    0.206953
     9  H    0.223080
    10  H    0.226690
    11  H    0.367092
    12  H    0.264725
 Sum of Mulliken charges =  -0.00000
 Mulliken charges with hydrogens summed into heavy atoms:
               1
     1  C    0.152241
     2  C    0.194756
     3  C    0.114479
     4  O   -0.049201
     5  O   -0.081050
     6  O   -0.331224
 APT charges:
               1
     1  C    0.349912
     2  C   -0.965574
     3  C    1.351731
     4  O   -0.190495
     5  O   -0.422860
     6  O   -0.840653
     7  H    0.269118
     8  H    0.029383
     9  H    0.040979
    10  H   -0.008119
    11  H    0.367737
    12  H    0.018841
 Sum of APT charges =  -0.00000
 APT charges with hydrogens summed into heavy atoms:
               1
     1  C    0.420274
     2  C   -0.578996
     3  C    1.343612
     4  O   -0.190495
     5  O   -0.153743
     6  O   -0.840653
 Electronic spatial extent (au):  <R**2>=            707.3695
 Charge=             -0.0000 electrons
 Dipole moment (field-independent basis, Debye):
    X=             -0.4532    Y=              2.6526    Z=              0.1035  Tot=              2.6931
 Quadrupole moment (field-independent basis, Debye-Ang):
   XX=            -37.3961   YY=            -35.4988   ZZ=            -36.1021
   XY=             10.8789   XZ=              2.0392   YZ=             -4.0025
 Traceless Quadrupole moment (field-independent basis, Debye-Ang):
   XX=             -1.0638   YY=              0.8335   ZZ=              0.2302
   XY=             10.8789   XZ=              2.0392   YZ=             -4.0025
 Octapole moment (field-independent basis, Debye-Ang**2):
  XXX=            -31.7684  YYY=             -0.9259  ZZZ=              2.9167  XYY=             -6.7852
  XXY=             -3.9531  XXZ=             -3.9190  XZZ=             -1.2627  YZZ=             -1.5636
  YYZ=             -8.4269  XYZ=             -8.2172
 Hexadecapole moment (field-independent basis, Debye-Ang**3):
 XXXX=           -581.1180 YYYY=           -171.6367 ZZZZ=            -73.8675 XXXY=             87.0621
 XXXZ=             20.8608 YYYX=             20.5572 YYYZ=            -15.0060 ZZZX=              3.3060
 ZZZY=             -0.4895 XXYY=           -121.2319 XXZZ=           -116.4356 YYZZ=            -41.4060
 XXYZ=             -3.5685 YYXZ=             -5.1324 ZZXY=              1.2512
 N-N= 2.370759491840D+02 E-N=-1.277790611479D+03  KE= 3.401333466164D+02
  Exact polarizability:  87.126  -3.376  66.226  -1.230  -5.536  49.003
 Approx polarizability: 136.897 -20.780 127.453  -3.917 -16.419  73.928
 Calling FoFJK, ICntrl=    100127 FMM=F ISym2X=0 I1Cent= 0 IOpClX= 0 NMat=1 NMatS=1 NMatT=0.
 ***** Axes restored to original set *****
 -------------------------------------------------------------------
 Center     Atomic                   Forces (Hartrees/Bohr)
 Number     Number              X              Y              Z
 -------------------------------------------------------------------
      1        6          -0.011853434    0.023808501    0.028582802
      2        6          -0.035568797    0.029335748    0.023117068
      3        6           0.013861046   -0.053244366   -0.007405767
      4        8           0.039037570   -0.033177485    0.008651521
      5        8          -0.021594385    0.012208788    0.003770232
      6        8           0.010039082    0.016265871    0.008177242
      7        1           0.006089007   -0.002585601    0.000784323
      8        1           0.002689127    0.023810357   -0.042246420
      9        1          -0.018789808   -0.003761638    0.003699766
     10        1          -0.006307881    0.013984324   -0.002370789
     11        1           0.025523558   -0.018940136   -0.007176694
     12        1          -0.003125084   -0.007704362   -0.017583284
 -------------------------------------------------------------------
 Cartesian Forces:  Max     0.053244366 RMS     0.020745064
 FormGI is forming the generalized inverse of G from B-inverse, IUseBI=4.

 GradGradGradGradGradGradGradGradGradGradGradGradGradGradGradGradGradGrad
 Berny optimization.
 Internal  Forces:  Max     0.039962984 RMS     0.015998383
 Search for a saddle point.
 Step number   1 out of a maximum of  100
 All quantities printed in internal units (Hartrees-Bohrs-Radians)
 Swapping is turned off.
 Second derivative matrix not updated -- analytic derivatives used.
 ITU=  0
     Eigenvalues ---   -0.30848  -0.17805  -0.05392  -0.00714  -0.00210
     Eigenvalues ---   -0.00003   0.00889   0.01087   0.01644   0.03728
     Eigenvalues ---    0.04559   0.06946   0.09720   0.10443   0.12392
     Eigenvalues ---    0.14894   0.16906   0.18106   0.19079   0.22327
     Eigenvalues ---    0.24767   0.27574   0.28056   0.31140   0.32411
     Eigenvalues ---    0.35077   0.35508   0.38745   0.51159   0.84852
 Eigenvectors required to have negative eigenvalues:
                          A18       A10       A7        D12       D13
   1                    0.46060  -0.35582   0.35248  -0.25587  -0.23874
                          A17       D11       D10       D4        A1
   1                    0.22601   0.22187   0.20473  -0.18987  -0.18700
 RFO step:  Lambda0=1.162095561D-04 Lambda=-1.97329583D-01.
 Linear search not attempted -- option 19 set.
 Maximum step size (   0.300) exceeded in Quadratic search.
    -- Step size scaled by   0.369
 Iteration  1 RMS(Cart)=  0.07415946 RMS(Int)=  0.00487458
 Iteration  2 RMS(Cart)=  0.00472253 RMS(Int)=  0.00140667
 Iteration  3 RMS(Cart)=  0.00003040 RMS(Int)=  0.00140652
 Iteration  4 RMS(Cart)=  0.00000024 RMS(Int)=  0.00140652
 Variable       Old X    -DE/DX   Delta X   Delta X   Delta X     New X
                                 (Linear)    (Quad)   (Total)
    R1        2.91806   0.01036   0.00000   0.04942   0.04942   2.96748
    R2        2.69687   0.00492   0.00000   0.04029   0.04029   2.73716
    R3        2.43620  -0.03214   0.00000  -0.14180  -0.14180   2.29440
    R4        2.05700   0.00301   0.00000   0.00005   0.00005   2.05705
    R5        2.87700   0.02557   0.00000   0.04046   0.04046   2.91745
    R6        2.08858   0.00111   0.00000   0.00457   0.00457   2.09315
    R7        2.24768  -0.01317   0.00000  -0.06877  -0.06877   2.17891
    R8        2.28662   0.00375   0.00000  -0.00889  -0.00889   2.27773
    R9        2.08217  -0.00109   0.00000  -0.00193  -0.00193   2.08024
   R10        2.74012   0.01199   0.00000   0.00168   0.00168   2.74181
   R11        1.83333   0.00411   0.00000   0.00161   0.00161   1.83493
    A1        2.27676  -0.03033   0.00000  -0.02347  -0.02611   2.25065
    A2        1.06840   0.03996   0.00000   0.13995   0.14149   1.20990
    A3        2.09878  -0.00180   0.00000  -0.02742  -0.02817   2.07062
    A4        1.64774  -0.02871   0.00000  -0.02875  -0.02401   1.62373
    A5        1.81690   0.02282   0.00000   0.01545   0.01459   1.83149
    A6        2.54372  -0.01605   0.00000  -0.06824  -0.07233   2.47139
    A7        1.43644  -0.00769   0.00000  -0.01504  -0.01480   1.42165
    A8        1.95354   0.00756   0.00000  -0.01511  -0.01464   1.93890
    A9        1.72748  -0.02043   0.00000  -0.08209  -0.08218   1.64530
   A10        2.84076  -0.00077   0.00000   0.02939   0.02903   2.86980
   A11        1.15051   0.01886   0.00000   0.10654   0.10659   1.25710
   A12        2.27496  -0.00722   0.00000  -0.02699  -0.02697   2.24799
   A13        1.89864  -0.00692   0.00000   0.00741   0.00743   1.90607
   A14        2.02843   0.01751   0.00000   0.02369   0.02372   2.05215
   A15        1.85892  -0.02208   0.00000  -0.02919  -0.02919   1.82974
   A16        1.74891  -0.00961   0.00000  -0.00862  -0.00862   1.74029
   A17        3.16393  -0.02812   0.00000  -0.09712  -0.09697   3.06695
   A18        3.04562  -0.00811   0.00000  -0.03505  -0.03512   3.01050
    D1       -1.25198   0.02297   0.00000   0.06394   0.06154  -1.19044
    D2        1.71351   0.02099   0.00000   0.07237   0.07065   1.78416
    D3       -2.46185  -0.00344   0.00000  -0.06801  -0.06484  -2.52668
    D4        0.50364  -0.00541   0.00000  -0.05959  -0.05573   0.44791
    D5        1.36965   0.00502   0.00000  -0.02766  -0.02946   1.34019
    D6       -1.94805   0.00305   0.00000  -0.01923  -0.02035  -1.96840
    D7       -2.44694  -0.01325   0.00000  -0.05904  -0.05960  -2.50654
    D8       -1.48133   0.02970   0.00000   0.12091   0.12107  -1.36026
    D9        1.15307   0.00557   0.00000   0.02972   0.03011   1.18318
   D10        2.21463  -0.01225   0.00000  -0.02775  -0.02786   2.18677
   D11       -1.37516   0.00111   0.00000  -0.00888  -0.00900  -1.38416
   D12       -0.83099  -0.00415   0.00000   0.00729   0.00726  -0.82373
   D13        1.86240   0.00922   0.00000   0.02617   0.02613   1.88853
   D14       -0.34642  -0.00861   0.00000   0.00732   0.00748  -0.33894
   D15        2.34697   0.00475   0.00000   0.02619   0.02634   2.37332
   D16       -3.02876   0.00016   0.00000  -0.01827  -0.01827  -3.04703
         Item               Value     Threshold  Converged?
 Maximum Force            0.039963     0.000450     NO 
 RMS     Force            0.015998     0.000300     NO 
 Maximum Displacement     0.266369     0.001800     NO 
 RMS     Displacement     0.072851     0.001200     NO 
 Predicted change in Energy=-3.954801D-02
 GradGradGradGradGradGradGradGradGradGradGradGradGradGradGradGradGradGrad

                          Input orientation:                          
 ---------------------------------------------------------------------
 Center     Atomic      Atomic             Coordinates (Angstroms)
 Number     Number       Type             X           Y           Z
 ---------------------------------------------------------------------
      1          6           0        0.724942    1.400060   -1.816715
      2          6           0        0.339339    0.320129   -0.743881
      3          6           0        1.451536   -0.465811   -1.471062
      4          8           0        1.948201    2.166019   -1.938885
      5          8           0        1.523132    3.473422   -2.402704
      6          8           0        2.440416   -0.977314   -1.009240
      7          1           0        2.390221    3.887284   -2.543148
      8          1           0        0.423086    1.928252   -0.765980
      9          1           0        0.372296    1.269740   -2.838276
     10          1           0        1.045638   -0.890219   -2.402144
     11          1           0        0.224637   -0.428261    0.064600
     12          1           0       -0.374740    0.758602    0.048145
 ---------------------------------------------------------------------
                    Distance matrix (angstroms):
                    1          2          3          4          5
     1  C    0.000000
     2  C    1.570323   0.000000
     3  C    2.031967   1.543850   0.000000
     4  O    1.448440   2.724662   2.718835   0.000000
     5  O    2.297677   3.754506   4.048536   1.450901   0.000000
     6  O    3.040851   2.483606   1.205321   3.314674   4.753126
     7  H    3.080121   4.490888   4.580386   1.877037   0.971005
     8  H    1.214145   1.610455   2.699331   1.938611   2.505297
     9  H    1.088545   2.299856   2.458896   2.023782   2.523957
    10  H    2.385571   2.171091   1.100813   3.220221   4.389688
    11  H    2.670657   1.107648   1.965947   3.703365   4.795498
    12  H    2.257980   1.153028   2.672538   3.365288   4.120537
                    6          7          8          9         10
     6  O    0.000000
     7  H    5.100952   0.000000
     8  H    3.545577   3.296324   0.000000
     9  H    3.559740   3.318231   2.175001   0.000000
    10  H    1.973113   4.965111   3.317888   2.304132   0.000000
    11  H    2.522750   5.487625   2.506471   3.366259   2.640506
    12  H    3.472258   4.914109   1.633220   3.025021   3.277194
                   11         12
    11  H    0.000000
    12  H    1.329724   0.000000
 Stoichiometry    C3H6O3
 Framework group  C1[X(C3H6O3)]
 Deg. of freedom    30
 Full point group                 C1      NOp   1
 Largest Abelian subgroup         C1      NOp   1
 Largest concise Abelian subgroup C1      NOp   1
                         Standard orientation:                         
 ---------------------------------------------------------------------
 Center     Atomic      Atomic             Coordinates (Angstroms)
 Number     Number       Type             X           Y           Z
 ---------------------------------------------------------------------
      1          6           0       -0.389841    0.578967    0.342688
      2          6           0        0.973787    1.167822   -0.166902
      3          6           0        1.488840   -0.195272    0.343165
      4          8           0       -1.156942   -0.530242   -0.185698
      5          8           0       -2.543310   -0.137398   -0.016078
      6          8           0        2.118493   -1.034690   -0.249889
      7          1           0       -2.981541   -0.954585   -0.304194
      8          1           0       -0.559402    1.254017   -0.652151
      9          1           0       -0.587758    0.572333    1.413069
     10          1           0        1.598612   -0.154442    1.437731
     11          1           0        1.939063    1.452896   -0.629352
     12          1           0        0.808373    2.139316   -0.765494
 ---------------------------------------------------------------------
 Rotational constants (GHZ):           8.1129717           1.9182127           1.6547417
 Standard basis: 6-31+G(d) (6D, 7F)
 There are   126 symmetry adapted cartesian basis functions of A   symmetry.
 There are   126 symmetry adapted basis functions of A   symmetry.
   126 basis functions,   216 primitive gaussians,   126 cartesian basis functions
    24 alpha electrons       24 beta electrons
       nuclear repulsion energy       236.9536875532 Hartrees.
 NAtoms=   12 NActive=   12 NUniq=   12 SFac= 1.00D+00 NAtFMM=   60 NAOKFM=F Big=F
 Integral buffers will be    131072 words long.
 Raffenetti 2 integral format.
 Two-electron integral symmetry is turned on.
 One-electron integrals computed using PRISM.
 NBasis=   126 RedAO= T EigKep=  1.76D-04  NBF=   126
 NBsUse=   126 1.00D-06 EigRej= -1.00D+00 NBFU=   126
 Initial guess from the checkpoint file:  "/scratch/bell/zhao922/YARP/paper-example/KHP-network/pp_0/TS-folder/Gau-3770.chk"
 B after Tr=     0.000000   -0.000000   -0.000000
         Rot=    0.999959    0.008143   -0.000304    0.004046 Ang=   1.04 deg.
 ExpMin= 4.38D-02 ExpMax= 5.48D+03 ExpMxC= 8.25D+02 IAcc=3 IRadAn=         5 AccDes= 0.00D+00
 Harris functional with IExCor=  402 and IRadAn=       5 diagonalized for initial guess.
 HarFok:  IExCor=  402 AccDes= 0.00D+00 IRadAn=         5 IDoV= 1 UseB2=F ITyADJ=14
 ICtDFT=  3500011 ScaDFX=  1.000000  1.000000  1.000000  1.000000
 FoFCou: FMM=F IPFlag=           0 FMFlag=      100000 FMFlg1=           0
         NFxFlg=           0 DoJE=T BraDBF=F KetDBF=T FulRan=T
         wScrn=  0.000000 ICntrl=       500 IOpCl=  0 I1Cent=   200000004 NGrid=           0
         NMat0=    1 NMatS0=      1 NMatT0=    0 NMatD0=    1 NMtDS0=    0 NMtDT0=    0
 Petite list used in FoFCou.
 Keep R1 ints in memory in canonical form, NReq=47237537.
 Requested convergence on RMS density matrix=1.00D-08 within 128 cycles.
 Requested convergence on MAX density matrix=1.00D-06.
 Requested convergence on             energy=1.00D-06.
 No special actions if energy rises.
 SCF Done:  E(RB3LYP) =  -343.174782632     A.U. after   14 cycles
            NFock= 14  Conv=0.89D-08     -V/T= 2.0089
 DoSCS=F DFT=T ScalE2(SS,OS)=  1.000000  1.000000
 Range of M.O.s used for correlation:     1   126
 NBasis=   126 NAE=    24 NBE=    24 NFC=     0 NFV=     0
 NROrb=    126 NOA=    24 NOB=    24 NVA=   102 NVB=   102

 **** Warning!!: The largest alpha MO coefficient is  0.29513170D+02

 Symmetrizing basis deriv contribution to polar:
 IMax=3 JMax=2 DiffMx= 0.00D+00
 G2DrvN: will do    13 centers at a time, making    1 passes.
 Calling FoFCou, ICntrl=  3107 FMM=F I1Cent=   0 AccDes= 0.00D+00.
 End of G2Drv F.D. properties file   721 does not exist.
 End of G2Drv F.D. properties file   722 does not exist.
 End of G2Drv F.D. properties file   788 does not exist.
          IDoAtm=111111111111
          Differentiating once with respect to electric field.
                with respect to dipole field.
          Differentiating once with respect to nuclear coordinates.
 Keep R1 ints in memory in canonical form, NReq=47193545.
          There are    39 degrees of freedom in the 1st order CPHF.  IDoFFX=6 NUNeed=     3.
     36 vectors produced by pass  0 Test12= 6.28D-15 2.56D-09 XBig12= 1.03D+02 6.12D+00.
 AX will form    36 AO Fock derivatives at one time.
     36 vectors produced by pass  1 Test12= 6.28D-15 2.56D-09 XBig12= 2.07D+01 9.31D-01.
     36 vectors produced by pass  2 Test12= 6.28D-15 2.56D-09 XBig12= 2.87D-01 8.07D-02.
     36 vectors produced by pass  3 Test12= 6.28D-15 2.56D-09 XBig12= 1.63D-03 5.76D-03.
     36 vectors produced by pass  4 Test12= 6.28D-15 2.56D-09 XBig12= 3.72D-06 2.39D-04.
     34 vectors produced by pass  5 Test12= 6.28D-15 2.56D-09 XBig12= 5.55D-09 1.28D-05.
      5 vectors produced by pass  6 Test12= 6.28D-15 2.56D-09 XBig12= 5.22D-12 3.81D-07.
      2 vectors produced by pass  7 Test12= 6.28D-15 2.56D-09 XBig12= 3.84D-15 1.11D-08.
 InvSVY:  IOpt=1 It=  1 EMax= 5.33D-15
 Solved reduced A of dimension   221 with    39 vectors.
 Isotropic polarizability for W=    0.000000       65.47 Bohr**3.
 End of Minotr F.D. properties file   721 does not exist.
 End of Minotr F.D. properties file   722 does not exist.
 End of Minotr F.D. properties file   788 does not exist.
 Calling FoFJK, ICntrl=    100127 FMM=F ISym2X=0 I1Cent= 0 IOpClX= 0 NMat=1 NMatS=1 NMatT=0.
 ***** Axes restored to original set *****
 -------------------------------------------------------------------
 Center     Atomic                   Forces (Hartrees/Bohr)
 Number     Number              X              Y              Z
 -------------------------------------------------------------------
      1        6          -0.007943707    0.041819385    0.066287852
      2        6          -0.035318122    0.003745824    0.017283488
      3        6           0.004433637   -0.054359801   -0.009699789
      4        8           0.037548914   -0.031031676    0.000631245
      5        8          -0.016429782    0.009770212    0.001949309
      6        8           0.006323837    0.014600582    0.008626362
      7        1           0.004394089   -0.002102894    0.000414745
      8        1          -0.009284836    0.020912363   -0.058687790
      9        1          -0.016197505   -0.004275162    0.004414915
     10        1          -0.002763223    0.015855950   -0.004933204
     11        1           0.035552807   -0.013274849   -0.003819478
     12        1          -0.000316109   -0.001659933   -0.022467654
 -------------------------------------------------------------------
 Cartesian Forces:  Max     0.066287852 RMS     0.023829616
 FormGI is forming the generalized inverse of G from B-inverse, IUseBI=4.

 GradGradGradGradGradGradGradGradGradGradGradGradGradGradGradGradGradGrad
 Berny optimization.
 Internal  Forces:  Max     0.048236877 RMS     0.017388389
 Search for a saddle point.
 Step number   2 out of a maximum of  100
 All quantities printed in internal units (Hartrees-Bohrs-Radians)
 Swapping is turned off.
 Second derivative matrix not updated -- analytic derivatives used.
 ITU=  0  0
     Eigenvalues ---   -0.29984  -0.09283  -0.01635  -0.00505  -0.00178
     Eigenvalues ---    0.00497   0.00889   0.01981   0.02109   0.03705
     Eigenvalues ---    0.04750   0.07888   0.10405   0.12997   0.13621
     Eigenvalues ---    0.15349   0.18168   0.18311   0.20866   0.23091
     Eigenvalues ---    0.24544   0.26384   0.27945   0.30419   0.32622
     Eigenvalues ---    0.34158   0.35456   0.37602   0.50885   0.86768
 Eigenvectors required to have negative eigenvalues:
                          A18       A10       D13       A7        D12
   1                    0.50599  -0.34976  -0.29462   0.27653  -0.27097
                          D10       A1        D11       D1        A12
   1                    0.23502  -0.22548   0.21137   0.17993   0.17218
 RFO step:  Lambda0=2.669548840D-04 Lambda=-1.33600772D-01.
 Linear search not attempted -- option 19 set.
 Maximum step size (   0.300) exceeded in Quadratic search.
    -- Step size scaled by   0.388
 Iteration  1 RMS(Cart)=  0.08652161 RMS(Int)=  0.00594258
 Iteration  2 RMS(Cart)=  0.00556427 RMS(Int)=  0.00269285
 Iteration  3 RMS(Cart)=  0.00002810 RMS(Int)=  0.00269278
 Iteration  4 RMS(Cart)=  0.00000032 RMS(Int)=  0.00269278
 Variable       Old X    -DE/DX   Delta X   Delta X   Delta X     New X
                                 (Linear)    (Quad)   (Total)
    R1        2.96748   0.01194   0.00000   0.03973   0.03973   3.00721
    R2        2.73716   0.00894   0.00000   0.03245   0.03245   2.76960
    R3        2.29440  -0.03938   0.00000  -0.12712  -0.12712   2.16728
    R4        2.05705   0.00162   0.00000  -0.00145  -0.00145   2.05561
    R5        2.91745   0.02076   0.00000   0.02970   0.02970   2.94716
    R6        2.09315   0.00250   0.00000   0.00421   0.00421   2.09736
    R7        2.17891  -0.01587   0.00000  -0.04922  -0.04922   2.12969
    R8        2.27773   0.00230   0.00000  -0.00886  -0.00886   2.26887
    R9        2.08024  -0.00092   0.00000  -0.00195  -0.00195   2.07828
   R10        2.74181   0.00968   0.00000   0.00503   0.00503   2.74684
   R11        1.83493   0.00297   0.00000   0.00121   0.00121   1.83614
    A1        2.25065  -0.02705   0.00000  -0.06582  -0.06987   2.18078
    A2        1.20990   0.04824   0.00000   0.16461   0.17033   1.38022
    A3        2.07062  -0.00724   0.00000  -0.02981  -0.03251   2.03811
    A4        1.62373  -0.01655   0.00000   0.00341   0.01483   1.63855
    A5        1.83149   0.01898   0.00000   0.03016   0.02755   1.85904
    A6        2.47139  -0.02600   0.00000  -0.11336  -0.11669   2.35470
    A7        1.42165  -0.00268   0.00000   0.03708   0.03709   1.45874
    A8        1.93890  -0.00136   0.00000  -0.04664  -0.04658   1.89231
    A9        1.64530  -0.02261   0.00000  -0.07665  -0.07662   1.56868
   A10        2.86980   0.00415   0.00000   0.00688   0.00685   2.87664
   A11        1.25710   0.02443   0.00000   0.08043   0.08051   1.33761
   A12        2.24799  -0.01031   0.00000  -0.02061  -0.02071   2.22728
   A13        1.90607  -0.00165   0.00000   0.00740   0.00730   1.91337
   A14        2.05215   0.01582   0.00000   0.02539   0.02529   2.07743
   A15        1.82974  -0.01787   0.00000  -0.02435  -0.02435   1.80539
   A16        1.74029  -0.00710   0.00000  -0.00617  -0.00617   1.73412
   A17        3.06695  -0.02529   0.00000  -0.03957  -0.03953   3.02742
   A18        3.01050  -0.01657   0.00000  -0.04008  -0.04009   2.97041
    D1       -1.19044   0.02274   0.00000   0.07781   0.07270  -1.11773
    D2        1.78416   0.02430   0.00000   0.07829   0.07320   1.85736
    D3       -2.52668  -0.01407   0.00000  -0.11693  -0.11112  -2.63781
    D4        0.44791  -0.01251   0.00000  -0.11644  -0.11063   0.33729
    D5        1.34019  -0.00325   0.00000  -0.05167  -0.05239   1.28780
    D6       -1.96840  -0.00169   0.00000  -0.05119  -0.05189  -2.02029
    D7       -2.50654  -0.02379   0.00000  -0.14350  -0.14283  -2.64937
    D8       -1.36026   0.03401   0.00000   0.09729   0.09642  -1.26383
    D9        1.18318   0.00438   0.00000  -0.01579  -0.01559   1.16759
   D10        2.18677  -0.01366   0.00000  -0.02216  -0.02217   2.16459
   D11       -1.38416   0.00092   0.00000   0.01777   0.01778  -1.36638
   D12       -0.82373   0.00291   0.00000   0.01792   0.01791  -0.80582
   D13        1.88853   0.01749   0.00000   0.05785   0.05786   1.94639
   D14       -0.33894  -0.00930   0.00000   0.00602   0.00602  -0.33293
   D15        2.37332   0.00529   0.00000   0.04595   0.04597   2.41928
   D16       -3.04703   0.00061   0.00000  -0.01078  -0.01078  -3.05781
         Item               Value     Threshold  Converged?
 Maximum Force            0.048237     0.000450     NO 
 RMS     Force            0.017388     0.000300     NO 
 Maximum Displacement     0.261343     0.001800     NO 
 RMS     Displacement     0.086168     0.001200     NO 
 Predicted change in Energy=-4.553752D-02
 GradGradGradGradGradGradGradGradGradGradGradGradGradGradGradGradGradGrad

                          Input orientation:                          
 ---------------------------------------------------------------------
 Center     Atomic      Atomic             Coordinates (Angstroms)
 Number     Number       Type             X           Y           Z
 ---------------------------------------------------------------------
      1          6           0        0.662415    1.442724   -1.779967
      2          6           0        0.333183    0.298065   -0.724623
      3          6           0        1.456856   -0.477549   -1.478304
      4          8           0        1.941433    2.151595   -1.878100
      5          8           0        1.568663    3.447680   -2.420371
      6          8           0        2.454555   -0.957230   -1.013523
      7          1           0        2.453860    3.831780   -2.534321
      8          1           0        0.295970    2.066549   -0.890087
      9          1           0        0.318400    1.282976   -2.799476
     10          1           0        1.058309   -0.882968   -2.419746
     11          1           0        0.324737   -0.484054    0.062807
     12          1           0       -0.359676    0.722337    0.056422
 ---------------------------------------------------------------------
                    Distance matrix (angstroms):
                    1          2          3          4          5
     1  C    0.000000
     2  C    1.591349   0.000000
     3  C    2.099902   1.559568   0.000000
     4  O    1.465611   2.711559   2.703155   0.000000
     5  O    2.291560   3.784448   4.038244   1.453565   0.000000
     6  O    3.091761   2.481823   1.200633   3.267350   4.708211
     7  H    3.079921   4.501047   4.547473   1.875162   0.971643
     8  H    1.146876   1.776598   2.857637   1.921185   2.422609
     9  H    1.087780   2.296798   2.478109   2.058560   2.528403
    10  H    2.444359   2.189540   1.099780   3.206533   4.360616
    11  H    2.687437   1.109877   1.912266   3.650681   4.813736
    12  H    2.221700   1.126984   2.663625   3.328702   4.156981
                    6          7          8          9         10
     6  O    0.000000
     7  H    5.024683   0.000000
     8  H    3.717252   3.236670   0.000000
     9  H    3.573697   3.335701   2.064039   0.000000
    10  H    1.983049   4.918286   3.408910   2.320123   0.000000
    11  H    2.432798   5.468516   2.722942   3.363793   2.619224
    12  H    3.447553   4.929155   1.769932   2.988353   3.274002
                   11         12
    11  H    0.000000
    12  H    1.387026   0.000000
 Stoichiometry    C3H6O3
 Framework group  C1[X(C3H6O3)]
 Deg. of freedom    30
 Full point group                 C1      NOp   1
 Largest Abelian subgroup         C1      NOp   1
 Largest concise Abelian subgroup C1      NOp   1
                         Standard orientation:                         
 ---------------------------------------------------------------------
 Center     Atomic      Atomic             Coordinates (Angstroms)
 Number     Number       Type             X           Y           Z
 ---------------------------------------------------------------------
      1          6           0       -0.422248    0.658523    0.316440
      2          6           0        0.997834    1.170012   -0.187680
      3          6           0        1.492314   -0.202803    0.362882
      4          8           0       -1.130657   -0.509684   -0.214090
      5          8           0       -2.530197   -0.185375    0.007188
      6          8           0        2.090311   -1.058008   -0.230872
      7          1           0       -2.933907   -1.018822   -0.286879
      8          1           0       -0.732558    1.338985   -0.553045
      9          1           0       -0.590589    0.660493    1.391113
     10          1           0        1.581927   -0.151110    1.457786
     11          1           0        1.988243    1.334308   -0.660886
     12          1           0        0.843826    2.106295   -0.795750
 ---------------------------------------------------------------------
 Rotational constants (GHZ):           7.8604612           1.9382480           1.6593195
 Standard basis: 6-31+G(d) (6D, 7F)
 There are   126 symmetry adapted cartesian basis functions of A   symmetry.
 There are   126 symmetry adapted basis functions of A   symmetry.
   126 basis functions,   216 primitive gaussians,   126 cartesian basis functions
    24 alpha electrons       24 beta electrons
       nuclear repulsion energy       236.3967055574 Hartrees.
 NAtoms=   12 NActive=   12 NUniq=   12 SFac= 1.00D+00 NAtFMM=   60 NAOKFM=F Big=F
 Integral buffers will be    131072 words long.
 Raffenetti 2 integral format.
 Two-electron integral symmetry is turned on.
 One-electron integrals computed using PRISM.
 NBasis=   126 RedAO= T EigKep=  1.90D-04  NBF=   126
 NBsUse=   126 1.00D-06 EigRej= -1.00D+00 NBFU=   126
 Initial guess from the checkpoint file:  "/scratch/bell/zhao922/YARP/paper-example/KHP-network/pp_0/TS-folder/Gau-3770.chk"
 B after Tr=    -0.000000    0.000000    0.000000
         Rot=    0.999960    0.008948    0.000479    0.000163 Ang=   1.03 deg.
 ExpMin= 4.38D-02 ExpMax= 5.48D+03 ExpMxC= 8.25D+02 IAcc=3 IRadAn=         5 AccDes= 0.00D+00
 Harris functional with IExCor=  402 and IRadAn=       5 diagonalized for initial guess.
 HarFok:  IExCor=  402 AccDes= 0.00D+00 IRadAn=         5 IDoV= 1 UseB2=F ITyADJ=14
 ICtDFT=  3500011 ScaDFX=  1.000000  1.000000  1.000000  1.000000
 FoFCou: FMM=F IPFlag=           0 FMFlag=      100000 FMFlg1=           0
         NFxFlg=           0 DoJE=T BraDBF=F KetDBF=T FulRan=T
         wScrn=  0.000000 ICntrl=       500 IOpCl=  0 I1Cent=   200000004 NGrid=           0
         NMat0=    1 NMatS0=      1 NMatT0=    0 NMatD0=    1 NMtDS0=    0 NMtDT0=    0
 Petite list used in FoFCou.
 Keep R1 ints in memory in canonical form, NReq=47237537.
 Requested convergence on RMS density matrix=1.00D-08 within 128 cycles.
 Requested convergence on MAX density matrix=1.00D-06.
 Requested convergence on             energy=1.00D-06.
 No special actions if energy rises.
 SCF Done:  E(RB3LYP) =  -343.217385095     A.U. after   14 cycles
            NFock= 14  Conv=0.74D-08     -V/T= 2.0090
 DoSCS=F DFT=T ScalE2(SS,OS)=  1.000000  1.000000
 Range of M.O.s used for correlation:     1   126
 NBasis=   126 NAE=    24 NBE=    24 NFC=     0 NFV=     0
 NROrb=    126 NOA=    24 NOB=    24 NVA=   102 NVB=   102

 **** Warning!!: The largest alpha MO coefficient is  0.26907757D+02

 Symmetrizing basis deriv contribution to polar:
 IMax=3 JMax=2 DiffMx= 0.00D+00
 G2DrvN: will do    13 centers at a time, making    1 passes.
 Calling FoFCou, ICntrl=  3107 FMM=F I1Cent=   0 AccDes= 0.00D+00.
 End of G2Drv F.D. properties file   721 does not exist.
 End of G2Drv F.D. properties file   722 does not exist.
 End of G2Drv F.D. properties file   788 does not exist.
          IDoAtm=111111111111
          Differentiating once with respect to electric field.
                with respect to dipole field.
          Differentiating once with respect to nuclear coordinates.
 Keep R1 ints in memory in canonical form, NReq=47193545.
          There are    39 degrees of freedom in the 1st order CPHF.  IDoFFX=6 NUNeed=     3.
     36 vectors produced by pass  0 Test12= 6.28D-15 2.56D-09 XBig12= 9.77D+01 5.43D+00.
 AX will form    36 AO Fock derivatives at one time.
     36 vectors produced by pass  1 Test12= 6.28D-15 2.56D-09 XBig12= 1.97D+01 9.49D-01.
     36 vectors produced by pass  2 Test12= 6.28D-15 2.56D-09 XBig12= 3.00D-01 1.08D-01.
     36 vectors produced by pass  3 Test12= 6.28D-15 2.56D-09 XBig12= 1.72D-03 5.28D-03.
     36 vectors produced by pass  4 Test12= 6.28D-15 2.56D-09 XBig12= 3.49D-06 2.40D-04.
     33 vectors produced by pass  5 Test12= 6.28D-15 2.56D-09 XBig12= 3.22D-09 8.66D-06.
      5 vectors produced by pass  6 Test12= 6.28D-15 2.56D-09 XBig12= 2.75D-12 2.15D-07.
      2 vectors produced by pass  7 Test12= 6.28D-15 2.56D-09 XBig12= 2.09D-15 5.35D-09.
 InvSVY:  IOpt=1 It=  1 EMax= 2.36D-15
 Solved reduced A of dimension   220 with    39 vectors.
 Isotropic polarizability for W=    0.000000       64.17 Bohr**3.
 End of Minotr F.D. properties file   721 does not exist.
 End of Minotr F.D. properties file   722 does not exist.
 End of Minotr F.D. properties file   788 does not exist.
 Calling FoFJK, ICntrl=    100127 FMM=F ISym2X=0 I1Cent= 0 IOpClX= 0 NMat=1 NMatS=1 NMatT=0.
 ***** Axes restored to original set *****
 -------------------------------------------------------------------
 Center     Atomic                   Forces (Hartrees/Bohr)
 Number     Number              X              Y              Z
 -------------------------------------------------------------------
      1        6          -0.001752589    0.044217639    0.075619433
      2        6          -0.019773381   -0.006621662    0.000395763
      3        6          -0.004572293   -0.053596618   -0.006370796
      4        8           0.026014642   -0.029927383   -0.000775578
      5        8          -0.011090407    0.008137318   -0.000802103
      6        8           0.004734209    0.011247808    0.007681947
      7        1           0.002973122   -0.001460691    0.000207239
      8        1          -0.017507714    0.014940978   -0.053949453
      9        1          -0.012268881   -0.003729891    0.003573544
     10        1           0.000117048    0.018014589   -0.007210732
     11        1           0.034436094   -0.002506933   -0.000122999
     12        1          -0.001309851    0.001284847   -0.018246264
 -------------------------------------------------------------------
 Cartesian Forces:  Max     0.075619433 RMS     0.022699698
 FormGI is forming the generalized inverse of G from B-inverse, IUseBI=4.

 GradGradGradGradGradGradGradGradGradGradGradGradGradGradGradGradGradGrad
 Berny optimization.
 Internal  Forces:  Max     0.045099952 RMS     0.015675328
 Search for a saddle point.
 Step number   3 out of a maximum of  100
 All quantities printed in internal units (Hartrees-Bohrs-Radians)
 Swapping is turned off.
 Second derivative matrix not updated -- analytic derivatives used.
 ITU=  0  0  0
     Eigenvalues ---   -0.30793  -0.04392  -0.00692  -0.00280  -0.00006
     Eigenvalues ---    0.00432   0.01252   0.02517   0.03218   0.04648
     Eigenvalues ---    0.04868   0.07614   0.10894   0.14095   0.14927
     Eigenvalues ---    0.17647   0.18212   0.20179   0.23055   0.24659
     Eigenvalues ---    0.25378   0.26340   0.27999   0.30251   0.32095
     Eigenvalues ---    0.32998   0.35776   0.37208   0.50664   0.88802
 Eigenvectors required to have negative eigenvalues:
                          A18       A10       D13       D12       D10
   1                    0.52895  -0.33639  -0.32854  -0.26686   0.26209
                          A1        A7        D11       A12       A9
   1                   -0.21737   0.21094   0.20041   0.17458  -0.16553
 RFO step:  Lambda0=8.306196772D-04 Lambda=-8.97316460D-02.
 Linear search not attempted -- option 19 set.
 Maximum step size (   0.300) exceeded in Quadratic search.
    -- Step size scaled by   0.404
 Iteration  1 RMS(Cart)=  0.10358991 RMS(Int)=  0.00830712
 Iteration  2 RMS(Cart)=  0.01364619 RMS(Int)=  0.00361652
 Iteration  3 RMS(Cart)=  0.00015003 RMS(Int)=  0.00361559
 Iteration  4 RMS(Cart)=  0.00000122 RMS(Int)=  0.00361559
 Iteration  5 RMS(Cart)=  0.00000002 RMS(Int)=  0.00361559
 Variable       Old X    -DE/DX   Delta X   Delta X   Delta X     New X
                                 (Linear)    (Quad)   (Total)
    R1        3.00721   0.00449   0.00000  -0.02240  -0.02240   2.98481
    R2        2.76960   0.00446   0.00000  -0.00449  -0.00449   2.76512
    R3        2.16728  -0.02814   0.00000  -0.05324  -0.05324   2.11404
    R4        2.05561   0.00108   0.00000   0.00204   0.00204   2.05764
    R5        2.94716   0.01515   0.00000   0.01040   0.01040   2.95755
    R6        2.09736   0.00142   0.00000  -0.00296  -0.00296   2.09441
    R7        2.12969  -0.01136   0.00000  -0.01602  -0.01602   2.11368
    R8        2.26887   0.00241   0.00000  -0.00450  -0.00450   2.26437
    R9        2.07828  -0.00051   0.00000   0.00021   0.00021   2.07850
   R10        2.74684   0.00826   0.00000   0.00845   0.00845   2.75529
   R11        1.83614   0.00211   0.00000   0.00087   0.00087   1.83701
    A1        2.18078  -0.02827   0.00000  -0.12068  -0.12339   2.05739
    A2        1.38022   0.04510   0.00000   0.16496   0.17342   1.55364
    A3        2.03811  -0.00884   0.00000  -0.01875  -0.02349   2.01462
    A4        1.63855  -0.00134   0.00000   0.04207   0.05680   1.69536
    A5        1.85904   0.01592   0.00000   0.03692   0.03142   1.89046
    A6        2.35470  -0.02808   0.00000  -0.11954  -0.12193   2.23277
    A7        1.45874   0.00415   0.00000   0.10325   0.10386   1.56260
    A8        1.89231  -0.00791   0.00000  -0.05993  -0.05904   1.83327
    A9        1.56868  -0.01914   0.00000  -0.06245  -0.06293   1.50576
   A10        2.87664   0.00448   0.00000  -0.04204  -0.04253   2.83411
   A11        1.33761   0.02081   0.00000   0.01140   0.01107   1.34868
   A12        2.22728  -0.00928   0.00000   0.00206   0.00138   2.22866
   A13        1.91337   0.00065   0.00000  -0.00076  -0.00145   1.91192
   A14        2.07743   0.01296   0.00000   0.02260   0.02188   2.09931
   A15        1.80539  -0.01160   0.00000  -0.00732  -0.00732   1.79806
   A16        1.73412  -0.00462   0.00000  -0.00309  -0.00309   1.73103
   A17        3.02742  -0.01498   0.00000   0.04079   0.04093   3.06835
   A18        2.97041  -0.01948   0.00000  -0.05369  -0.05388   2.91653
    D1       -1.11773   0.01884   0.00000   0.07745   0.06910  -1.04864
    D2        1.85736   0.02162   0.00000   0.06727   0.06062   1.91798
    D3       -2.63781  -0.01797   0.00000  -0.11942  -0.11350  -2.75131
    D4        0.33729  -0.01519   0.00000  -0.12960  -0.12198   0.21531
    D5        1.28780  -0.00729   0.00000  -0.06426  -0.06439   1.22341
    D6       -2.02029  -0.00451   0.00000  -0.07444  -0.07286  -2.09315
    D7       -2.64937  -0.02639   0.00000  -0.23693  -0.23369  -2.88305
    D8       -1.26383   0.02952   0.00000   0.00144  -0.00173  -1.26556
    D9        1.16759   0.00406   0.00000  -0.09528  -0.09535   1.07224
   D10        2.16459  -0.01219   0.00000  -0.00094  -0.00131   2.16328
   D11       -1.36638   0.00358   0.00000   0.07243   0.07218  -1.29420
   D12       -0.80582   0.00729   0.00000   0.05275   0.05257  -0.75325
   D13        1.94639   0.02306   0.00000   0.12611   0.12606   2.07245
   D14       -0.33293  -0.01023   0.00000  -0.05681  -0.05645  -0.38937
   D15        2.41928   0.00555   0.00000   0.01656   0.01705   2.43633
   D16       -3.05781   0.00088   0.00000   0.03463   0.03463  -3.02317
         Item               Value     Threshold  Converged?
 Maximum Force            0.045100     0.000450     NO 
 RMS     Force            0.015675     0.000300     NO 
 Maximum Displacement     0.362519     0.001800     NO 
 RMS     Displacement     0.110801     0.001200     NO 
 Predicted change in Energy=-3.838760D-02
 GradGradGradGradGradGradGradGradGradGradGradGradGradGradGradGradGradGrad

                          Input orientation:                          
 ---------------------------------------------------------------------
 Center     Atomic      Atomic             Coordinates (Angstroms)
 Number     Number       Type             X           Y           Z
 ---------------------------------------------------------------------
      1          6           0        0.565338    1.505113   -1.729283
      2          6           0        0.353315    0.290367   -0.742246
      3          6           0        1.485623   -0.494177   -1.485089
      4          8           0        1.883620    2.139320   -1.760534
      5          8           0        1.629057    3.391840   -2.462144
      6          8           0        2.481280   -0.965330   -1.013405
      7          1           0        2.543776    3.708806   -2.550489
      8          1           0        0.104134    2.180724   -0.966171
      9          1           0        0.242759    1.335620   -2.755356
     10          1           0        1.111807   -0.847067   -2.457454
     11          1           0        0.434521   -0.483456    0.047034
     12          1           0       -0.326525    0.680146    0.055847
 ---------------------------------------------------------------------
                    Distance matrix (angstroms):
                    1          2          3          4          5
     1  C    0.000000
     2  C    1.579494   0.000000
     3  C    2.214433   1.565070   0.000000
     4  O    1.463237   2.607177   2.677607   0.000000
     5  O    2.286553   3.768913   4.009531   1.458035   0.000000
     6  O    3.207242   2.485667   1.198251   3.248731   4.670125
     7  H    3.073249   4.444501   4.463164   1.876998   0.972102
     8  H    1.118704   1.919813   3.054976   1.949179   2.455633
     9  H    1.088858   2.270988   2.550773   2.080391   2.497166
    10  H    2.522223   2.193400   1.099893   3.162261   4.270351
    11  H    2.669610   1.108313   1.858044   3.499449   4.768733
    12  H    2.159323   1.118509   2.652809   3.211412   4.185435
                    6          7          8          9         10
     6  O    0.000000
     7  H    4.920781   0.000000
     8  H    3.943439   3.285872   0.000000
     9  H    3.652361   3.311897   1.983583   0.000000
    10  H    1.993670   4.776522   3.522335   2.368144   0.000000
    11  H    2.354985   5.363873   2.869424   3.346520   2.619807
    12  H    3.425589   4.919796   1.865937   2.942208   3.273814
                   11         12
    11  H    0.000000
    12  H    1.390409   0.000000
 Stoichiometry    C3H6O3
 Framework group  C1[X(C3H6O3)]
 Deg. of freedom    30
 Full point group                 C1      NOp   1
 Largest Abelian subgroup         C1      NOp   1
 Largest concise Abelian subgroup C1      NOp   1
                         Standard orientation:                         
 ---------------------------------------------------------------------
 Center     Atomic      Atomic             Coordinates (Angstroms)
 Number     Number       Type             X           Y           Z
 ---------------------------------------------------------------------
      1          6           0       -0.488144    0.765739    0.279802
      2          6           0        0.972049    1.152199   -0.182029
      3          6           0        1.497086   -0.210037    0.381969
      4          8           0       -1.085862   -0.445336   -0.283307
      5          8           0       -2.497717   -0.300803    0.050823
      6          8           0        2.103000   -1.061163   -0.204765
      7          1           0       -2.816408   -1.171057   -0.242565
      8          1           0       -0.896059    1.485236   -0.473475
      9          1           0       -0.651732    0.759364    1.356283
     10          1           0        1.523920   -0.167547    1.480713
     11          1           0        1.954809    1.239154   -0.686985
     12          1           0        0.844155    2.065862   -0.814426
 ---------------------------------------------------------------------
 Rotational constants (GHZ):           7.6088633           1.9646029           1.6694833
 Standard basis: 6-31+G(d) (6D, 7F)
 There are   126 symmetry adapted cartesian basis functions of A   symmetry.
 There are   126 symmetry adapted basis functions of A   symmetry.
   126 basis functions,   216 primitive gaussians,   126 cartesian basis functions
    24 alpha electrons       24 beta electrons
       nuclear repulsion energy       236.3314545145 Hartrees.
 NAtoms=   12 NActive=   12 NUniq=   12 SFac= 1.00D+00 NAtFMM=   60 NAOKFM=F Big=F
 Integral buffers will be    131072 words long.
 Raffenetti 2 integral format.
 Two-electron integral symmetry is turned on.
 One-electron integrals computed using PRISM.
 NBasis=   126 RedAO= T EigKep=  1.96D-04  NBF=   126
 NBsUse=   126 1.00D-06 EigRej= -1.00D+00 NBFU=   126
 Initial guess from the checkpoint file:  "/scratch/bell/zhao922/YARP/paper-example/KHP-network/pp_0/TS-folder/Gau-3770.chk"
 B after Tr=     0.000000   -0.000000    0.000000
         Rot=    0.999955    0.005459    0.001970   -0.007560 Ang=   1.09 deg.
 ExpMin= 4.38D-02 ExpMax= 5.48D+03 ExpMxC= 8.25D+02 IAcc=3 IRadAn=         5 AccDes= 0.00D+00
 Harris functional with IExCor=  402 and IRadAn=       5 diagonalized for initial guess.
 HarFok:  IExCor=  402 AccDes= 0.00D+00 IRadAn=         5 IDoV= 1 UseB2=F ITyADJ=14
 ICtDFT=  3500011 ScaDFX=  1.000000  1.000000  1.000000  1.000000
 FoFCou: FMM=F IPFlag=           0 FMFlag=      100000 FMFlg1=           0
         NFxFlg=           0 DoJE=T BraDBF=F KetDBF=T FulRan=T
         wScrn=  0.000000 ICntrl=       500 IOpCl=  0 I1Cent=   200000004 NGrid=           0
         NMat0=    1 NMatS0=      1 NMatT0=    0 NMatD0=    1 NMtDS0=    0 NMtDT0=    0
 Petite list used in FoFCou.
 Keep R1 ints in memory in canonical form, NReq=47237537.
 Requested convergence on RMS density matrix=1.00D-08 within 128 cycles.
 Requested convergence on MAX density matrix=1.00D-06.
 Requested convergence on             energy=1.00D-06.
 No special actions if energy rises.
 SCF Done:  E(RB3LYP) =  -343.253857333     A.U. after   14 cycles
            NFock= 14  Conv=0.63D-08     -V/T= 2.0091
 DoSCS=F DFT=T ScalE2(SS,OS)=  1.000000  1.000000
 Range of M.O.s used for correlation:     1   126
 NBasis=   126 NAE=    24 NBE=    24 NFC=     0 NFV=     0
 NROrb=    126 NOA=    24 NOB=    24 NVA=   102 NVB=   102

 **** Warning!!: The largest alpha MO coefficient is  0.26609105D+02

 Symmetrizing basis deriv contribution to polar:
 IMax=3 JMax=2 DiffMx= 0.00D+00
 G2DrvN: will do    13 centers at a time, making    1 passes.
 Calling FoFCou, ICntrl=  3107 FMM=F I1Cent=   0 AccDes= 0.00D+00.
 End of G2Drv F.D. properties file   721 does not exist.
 End of G2Drv F.D. properties file   722 does not exist.
 End of G2Drv F.D. properties file   788 does not exist.
          IDoAtm=111111111111
          Differentiating once with respect to electric field.
                with respect to dipole field.
          Differentiating once with respect to nuclear coordinates.
 Keep R1 ints in memory in canonical form, NReq=47193545.
          There are    39 degrees of freedom in the 1st order CPHF.  IDoFFX=6 NUNeed=     3.
     36 vectors produced by pass  0 Test12= 6.28D-15 2.56D-09 XBig12= 9.27D+01 5.07D+00.
 AX will form    36 AO Fock derivatives at one time.
     36 vectors produced by pass  1 Test12= 6.28D-15 2.56D-09 XBig12= 1.66D+01 1.01D+00.
     36 vectors produced by pass  2 Test12= 6.28D-15 2.56D-09 XBig12= 2.92D-01 1.09D-01.
     36 vectors produced by pass  3 Test12= 6.28D-15 2.56D-09 XBig12= 1.65D-03 5.82D-03.
     36 vectors produced by pass  4 Test12= 6.28D-15 2.56D-09 XBig12= 2.96D-06 2.07D-04.
     32 vectors produced by pass  5 Test12= 6.28D-15 2.56D-09 XBig12= 2.49D-09 6.70D-06.
      4 vectors produced by pass  6 Test12= 6.28D-15 2.56D-09 XBig12= 2.03D-12 2.04D-07.
      2 vectors produced by pass  7 Test12= 6.28D-15 2.56D-09 XBig12= 1.57D-15 6.73D-09.
 InvSVY:  IOpt=1 It=  1 EMax= 7.11D-15
 Solved reduced A of dimension   218 with    39 vectors.
 Isotropic polarizability for W=    0.000000       63.20 Bohr**3.
 End of Minotr F.D. properties file   721 does not exist.
 End of Minotr F.D. properties file   722 does not exist.
 End of Minotr F.D. properties file   788 does not exist.
 Calling FoFJK, ICntrl=    100127 FMM=F ISym2X=0 I1Cent= 0 IOpClX= 0 NMat=1 NMatS=1 NMatT=0.
 ***** Axes restored to original set *****
 -------------------------------------------------------------------
 Center     Atomic                   Forces (Hartrees/Bohr)
 Number     Number              X              Y              Z
 -------------------------------------------------------------------
      1        6           0.003384642    0.032732519    0.071622823
      2        6          -0.006148197   -0.003790669   -0.015135446
      3        6          -0.012732257   -0.048104765   -0.003294718
      4        8           0.011944987   -0.023921836   -0.000650544
      5        8          -0.005787276    0.006993807   -0.003004763
      6        8           0.004319788    0.006845645    0.006858744
      7        1           0.001855047   -0.000861423    0.000060308
      8        1          -0.016800718    0.009233016   -0.043306976
      9        1          -0.007994493   -0.002605254    0.001773315
     10        1           0.002564038    0.018585951   -0.007875539
     11        1           0.029744642    0.006801115    0.005368825
     12        1          -0.004350203   -0.001908106   -0.012416030
 -------------------------------------------------------------------
 Cartesian Forces:  Max     0.071622823 RMS     0.019559005
 FormGI is forming the generalized inverse of G from B-inverse, IUseBI=4.

 GradGradGradGradGradGradGradGradGradGradGradGradGradGradGradGradGradGrad
 Berny optimization.
 Internal  Forces:  Max     0.038280666 RMS     0.012722528
 Search for a saddle point.
 Step number   4 out of a maximum of  100
 All quantities printed in internal units (Hartrees-Bohrs-Radians)
 Swapping is turned off.
 Second derivative matrix not updated -- analytic derivatives used.
 ITU=  0  0  0  0
     Eigenvalues ---   -0.31804  -0.02268  -0.00315  -0.00034   0.00037
     Eigenvalues ---    0.00426   0.01226   0.01941   0.04249   0.04543
     Eigenvalues ---    0.06944   0.07992   0.10879   0.13853   0.14781
     Eigenvalues ---    0.17807   0.18611   0.21600   0.24062   0.24202
     Eigenvalues ---    0.26704   0.28083   0.28648   0.30439   0.31276
     Eigenvalues ---    0.32870   0.35657   0.37856   0.50492   0.90011
 Eigenvectors required to have negative eigenvalues:
                          A18       D13       A10       D12       D10
   1                    0.55961  -0.37212  -0.30513  -0.28660   0.27301
                          D11       A1        A13       A12       A7
   1                    0.18749  -0.17937  -0.17564   0.17119   0.16481
 RFO step:  Lambda0=1.897020429D-03 Lambda=-5.81209897D-02.
 Linear search not attempted -- option 19 set.
 Maximum step size (   0.300) exceeded in Quadratic search.
    -- Step size scaled by   0.386
 Iteration  1 RMS(Cart)=  0.09966472 RMS(Int)=  0.01075715
 Iteration  2 RMS(Cart)=  0.00670753 RMS(Int)=  0.00363465
 Iteration  3 RMS(Cart)=  0.00019165 RMS(Int)=  0.00363279
 Iteration  4 RMS(Cart)=  0.00000237 RMS(Int)=  0.00363279
 Iteration  5 RMS(Cart)=  0.00000004 RMS(Int)=  0.00363279
 Variable       Old X    -DE/DX   Delta X   Delta X   Delta X     New X
                                 (Linear)    (Quad)   (Total)
    R1        2.98481  -0.00176   0.00000  -0.06634  -0.06634   2.91847
    R2        2.76512  -0.00042   0.00000  -0.01876  -0.01876   2.74636
    R3        2.11404  -0.01704   0.00000  -0.01553  -0.01553   2.09851
    R4        2.05764   0.00110   0.00000   0.00408   0.00408   2.06172
    R5        2.95755   0.00918   0.00000  -0.01275  -0.01275   2.94481
    R6        2.09441   0.00125   0.00000  -0.00109  -0.00109   2.09332
    R7        2.11368  -0.00688   0.00000   0.00407   0.00407   2.11775
    R8        2.26437   0.00360   0.00000   0.00550   0.00550   2.26987
    R9        2.07850   0.00013   0.00000   0.00294   0.00294   2.08144
   R10        2.75529   0.00737   0.00000   0.00955   0.00955   2.76483
   R11        1.83701   0.00146   0.00000   0.00069   0.00069   1.83770
    A1        2.05739  -0.02224   0.00000  -0.09496  -0.09527   1.96213
    A2        1.55364   0.03828   0.00000   0.12541   0.12876   1.68240
    A3        2.01462  -0.00977   0.00000  -0.00937  -0.01163   2.00298
    A4        1.69536   0.00747   0.00000   0.05084   0.05682   1.75217
    A5        1.89046   0.00966   0.00000   0.01690   0.01421   1.90467
    A6        2.23277  -0.02388   0.00000  -0.09195  -0.09282   2.13995
    A7        1.56260   0.00696   0.00000   0.13297   0.13611   1.69870
    A8        1.83327  -0.00847   0.00000  -0.00570  -0.00058   1.83269
    A9        1.50576  -0.01326   0.00000  -0.06230  -0.06465   1.44111
   A10        2.83411   0.00250   0.00000  -0.11777  -0.12172   2.71240
   A11        1.34868   0.01302   0.00000  -0.06921  -0.07077   1.27791
   A12        2.22866  -0.00723   0.00000   0.02451   0.02366   2.25232
   A13        1.91192   0.00113   0.00000  -0.01605  -0.01690   1.89502
   A14        2.09931   0.00984   0.00000   0.01250   0.01162   2.11093
   A15        1.79806  -0.00460   0.00000   0.00820   0.00820   1.80627
   A16        1.73103  -0.00247   0.00000  -0.00087  -0.00087   1.73016
   A17        3.06835  -0.00630   0.00000   0.07066   0.07146   3.13981
   A18        2.91653  -0.02008   0.00000  -0.02861  -0.03102   2.88551
    D1       -1.04864   0.01235   0.00000   0.05047   0.03962  -1.00902
    D2        1.91798   0.01478   0.00000   0.02910   0.03338   1.95137
    D3       -2.75131  -0.01528   0.00000  -0.06873  -0.07355  -2.82486
    D4        0.21531  -0.01284   0.00000  -0.09010  -0.07978   0.13553
    D5        1.22341  -0.00709   0.00000  -0.03499  -0.04202   1.18139
    D6       -2.09315  -0.00466   0.00000  -0.05636  -0.04825  -2.14141
    D7       -2.88305  -0.02256   0.00000  -0.15975  -0.15795  -3.04100
    D8       -1.26556   0.02179   0.00000  -0.00366  -0.00516  -1.27072
    D9        1.07224   0.00311   0.00000  -0.07275  -0.07305   0.99919
   D10        2.16328  -0.00908   0.00000   0.04407   0.04034   2.20362
   D11       -1.29420   0.00626   0.00000   0.11926   0.11565  -1.17855
   D12       -0.75325   0.01100   0.00000   0.07269   0.07137  -0.68189
   D13        2.07245   0.02634   0.00000   0.14787   0.14667   2.21912
   D14       -0.38937  -0.01151   0.00000  -0.12190  -0.11703  -0.50640
   D15        2.43633   0.00384   0.00000  -0.04672  -0.04173   2.39460
   D16       -3.02317   0.00092   0.00000   0.15930   0.15930  -2.86388
         Item               Value     Threshold  Converged?
 Maximum Force            0.038281     0.000450     NO 
 RMS     Force            0.012723     0.000300     NO 
 Maximum Displacement     0.279650     0.001800     NO 
 RMS     Displacement     0.099796     0.001200     NO 
 Predicted change in Energy=-2.400405D-02
 GradGradGradGradGradGradGradGradGradGradGradGradGradGradGradGradGradGrad

                          Input orientation:                          
 ---------------------------------------------------------------------
 Center     Atomic      Atomic             Coordinates (Angstroms)
 Number     Number       Type             X           Y           Z
 ---------------------------------------------------------------------
      1          6           0        0.491442    1.561287   -1.687745
      2          6           0        0.388814    0.310478   -0.787699
      3          6           0        1.516686   -0.519474   -1.471408
      4          8           0        1.819769    2.150597   -1.668464
      5          8           0        1.661496    3.374831   -2.453843
      6          8           0        2.480938   -1.037428   -0.976705
      7          1           0        2.598595    3.571209   -2.624073
      8          1           0       -0.043851    2.251416   -1.001917
      9          1           0        0.184294    1.405773   -2.723020
     10          1           0        1.186976   -0.789729   -2.487009
     11          1           0        0.509143   -0.450596    0.008147
     12          1           0       -0.285599    0.613543    0.054443
 ---------------------------------------------------------------------
                    Distance matrix (angstroms):
                    1          2          3          4          5
     1  C    0.000000
     2  C    1.544390   0.000000
     3  C    2.329698   1.558324   0.000000
     4  O    1.453310   2.491870   2.694433   0.000000
     5  O    2.290169   3.712952   4.018926   1.463086   0.000000
[...]
    D3        2.72567  -0.00000   0.00000  -0.00048  -0.00048   2.72519
    D4       -1.11425  -0.00000   0.00000  -0.00040  -0.00040  -1.11465
    D5        0.60790  -0.00000   0.00000  -0.00047  -0.00047   0.60743
    D6        3.05116  -0.00000   0.00000  -0.00039  -0.00039   3.05078
    D7       -3.04101  -0.00000   0.00000   0.00005   0.00005  -3.04096
    D8       -0.95085   0.00000   0.00000   0.00012   0.00012  -0.95073
    D9        1.11313  -0.00000   0.00000   0.00010   0.00010   1.11322
   D10       -2.63007   0.00000   0.00000   0.00004   0.00004  -2.63003
   D11        0.47165   0.00000   0.00000   0.00007   0.00007   0.47172
   D12       -0.14735   0.00000   0.00000  -0.00001  -0.00001  -0.14735
   D13        2.95438   0.00000   0.00000   0.00002   0.00002   2.95440
   D14        1.19190  -0.00000   0.00000  -0.00005  -0.00005   1.19185
   D15       -1.98955  -0.00000   0.00000  -0.00002  -0.00002  -1.98958
   D16       -2.17884   0.00000   0.00000   0.00016   0.00016  -2.17868
         Item               Value     Threshold  Converged?
 Maximum Force            0.000012     0.000450     YES
 RMS     Force            0.000003     0.000300     YES
 Maximum Displacement     0.000568     0.001800     YES
 RMS     Displacement     0.000228     0.001200     YES
 Predicted change in Energy=-2.016912D-09
 Optimization completed.
    -- Stationary point found.
                           ----------------------------
                           !   Optimized Parameters   !
                           ! (Angstroms and Degrees)  !
 --------------------------                            --------------------------
 ! Name  Definition              Value          Derivative Info.                !
 --------------------------------------------------------------------------------
 ! R1    R(1,2)                  1.4998         -DE/DX =    0.0                 !
 ! R2    R(1,4)                  1.4397         -DE/DX =    0.0                 !
 ! R3    R(1,8)                  1.0962         -DE/DX =    0.0                 !
 ! R4    R(1,9)                  1.0983         -DE/DX =    0.0                 !
 ! R5    R(2,3)                  1.4219         -DE/DX =    0.0                 !
 ! R6    R(2,11)                 1.5302         -DE/DX =    0.0                 !
 ! R7    R(2,12)                 1.0969         -DE/DX =    0.0                 !
 ! R8    R(3,6)                  1.2809         -DE/DX =    0.0                 !
 ! R9    R(3,10)                 1.0938         -DE/DX =    0.0                 !
 ! R10   R(4,5)                  1.4674         -DE/DX =    0.0                 !
 ! R11   R(5,7)                  0.9739         -DE/DX =    0.0                 !
 ! A1    A(2,1,4)              107.3369         -DE/DX =    0.0                 !
 ! A2    A(2,1,8)              110.6945         -DE/DX =    0.0                 !
 ! A3    A(2,1,9)              112.2168         -DE/DX =    0.0                 !
 ! A4    A(4,1,8)              108.6795         -DE/DX =    0.0                 !
 ! A5    A(4,1,9)              109.3796         -DE/DX =    0.0                 !
 ! A6    A(8,1,9)              108.4697         -DE/DX =    0.0                 !
 ! A7    A(1,2,3)              123.7837         -DE/DX =    0.0                 !
 ! A8    A(1,2,12)             113.9134         -DE/DX =    0.0                 !
 ! A9    A(3,2,11)              67.0391         -DE/DX =    0.0                 !
 ! A10   A(3,2,12)             110.8879         -DE/DX =    0.0                 !
 ! A11   A(11,2,12)             86.6562         -DE/DX =    0.0                 !
 ! A12   A(2,3,6)              110.2038         -DE/DX =    0.0                 !
 ! A13   A(2,3,10)             130.6263         -DE/DX =    0.0                 !
 ! A14   A(6,3,10)             119.1328         -DE/DX =    0.0                 !
 ! A15   A(1,4,5)              106.4616         -DE/DX =    0.0                 !
 ! A16   A(4,5,7)              100.0009         -DE/DX =    0.0                 !
 ! A17   L(1,2,11,3,-1)        190.8228         -DE/DX =    0.0                 !
 ! A18   L(1,2,11,3,-2)        217.7502         -DE/DX =    0.0                 !
 ! D1    D(4,1,2,3)            -85.3683         -DE/DX =    0.0                 !
 ! D2    D(4,1,2,12)            54.6204         -DE/DX =    0.0                 !
 ! D3    D(8,1,2,3)            156.1692         -DE/DX =    0.0                 !
 ! D4    D(8,1,2,12)           -63.8421         -DE/DX =    0.0                 !
 ! D5    D(9,1,2,3)             34.8301         -DE/DX =    0.0                 !
 ! D6    D(9,1,2,12)           174.8189         -DE/DX =    0.0                 !
 ! D7    D(2,1,4,5)           -174.237          -DE/DX =    0.0                 !
 ! D8    D(8,1,4,5)            -54.4796         -DE/DX =    0.0                 !
 ! D9    D(9,1,4,5)             63.7774         -DE/DX =    0.0                 !
 ! D10   D(1,2,3,6)           -150.6921         -DE/DX =    0.0                 !
 ! D11   D(1,2,3,10)            27.0238         -DE/DX =    0.0                 !
 ! D12   D(11,2,3,6)            -8.4423         -DE/DX =    0.0                 !
 ! D13   D(11,2,3,10)          169.2736         -DE/DX =    0.0                 !
 ! D14   D(12,2,3,6)            68.2911         -DE/DX =    0.0                 !
 ! D15   D(12,2,3,10)         -113.9931         -DE/DX =    0.0                 !
 ! D16   D(1,4,5,7)           -124.8384         -DE/DX =    0.0                 !
 --------------------------------------------------------------------------------
 GradGradGradGradGradGradGradGradGradGradGradGradGradGradGradGradGradGrad


 ----------------------------------------------------------------------

 Electric dipole moment (input orientation):
 (Debye = 10**-18 statcoulomb cm , SI units = C m)
                  (au)            (Debye)         (10**-30 SI)
   Tot        0.717776D+00      0.182440D+01      0.608556D+01
   x          0.195747D+00      0.497539D+00      0.165961D+01
   y         -0.122902D+00     -0.312386D+00     -0.104201D+01
   z         -0.679545D+00     -0.172723D+01     -0.576142D+01

 Dipole polarizability, Alpha (input orientation).
 (esu units = cm**3 , SI units = C**2 m**2 J**-1)
 Alpha(0;0):
               (au)            (10**-24 esu)      (10**-40 SI)
   iso        0.578809D+02      0.857706D+01      0.954327D+01
   aniso      0.401266D+02      0.594614D+01      0.661598D+01
   xx         0.447405D+02      0.662986D+01      0.737672D+01
   yx         0.973128D+00      0.144203D+00      0.160447D+00
   yy         0.807818D+02      0.119706D+02      0.133191D+02
   zx        -0.584210D+01     -0.865710D+00     -0.963232D+00
   zy        -0.102685D+02     -0.152163D+01     -0.169304D+01
   zz         0.481203D+02      0.713070D+01      0.793397D+01

 ----------------------------------------------------------------------

 Dipole orientation:
     6          0.23091691         -3.73495725          2.66719379
     6          1.06454389         -1.17608465          1.77825471
     6          1.75702592          0.82704371          3.42993369
     8          2.47281537         -5.22028842          3.07880751
     8          1.61476491         -7.78556233          3.68903134
     8          1.27662817          2.96406226          2.39960252
     1          2.46948960         -8.03374055          5.29999900
     1         -0.92824612         -4.66861040          1.22651441
     1         -0.86272528         -3.63606167          4.42848041
     1          2.52676241          0.78493518          5.34785796
     1          0.19028494          1.41486969          0.83771713
     1          2.30345469         -1.22609449          0.11716614

 Electric dipole moment (dipole orientation):
 (Debye = 10**-18 statcoulomb cm , SI units = C m)
                  (au)            (Debye)         (10**-30 SI)
   Tot        0.717776D+00      0.182440D+01      0.608556D+01
   x          0.000000D+00      0.000000D+00      0.000000D+00
   y          0.000000D+00      0.000000D+00      0.000000D+00
   z          0.717776D+00      0.182440D+01      0.608556D+01

 Dipole polarizability, Alpha (dipole orientation).
 (esu units = cm**3 , SI units = C**2 m**2 J**-1)
 Alpha(0;0):
               (au)            (10**-24 esu)      (10**-40 SI)
   iso        0.578809D+02      0.857706D+01      0.954327D+01
   aniso      0.401266D+02      0.594614D+01      0.661598D+01
   xx         0.418585D+02      0.620279D+01      0.690153D+01
   yx         0.176025D+00      0.260842D-01      0.290225D-01
   yy         0.833610D+02      0.123528D+02      0.137444D+02
   zx         0.442327D+01      0.655461D+00      0.729299D+00
   zy        -0.440654D+01     -0.652981D+00     -0.726540D+00
   zz         0.484232D+02      0.717558D+01      0.798391D+01

 ----------------------------------------------------------------------
 1\1\GINC-BELL-A103\Freq\RB3LYP\6-31+G(d)\C3H6O3\ZHAO922\23-Dec-2020\0\
 \#N Geom=AllCheck Guess=TCheck SCRF=Check GenChk RB3LYP/6-31+G(d) Freq
 \\pp_9_2 TS\\0,1\C,0.5498480395,1.707947838,-1.6413366135\C,0.81336538
 01,0.4653710036,-0.8438256704\C,1.3787450485,-0.7195419206,-1.38986647
 97\O,1.7691412648,2.4732747136,-1.6585995619\O,1.4530522185,3.74413203
 66,-2.3205812778\O,0.9584252753,-1.7461129235,-0.7493745576\H,2.123708
 0255,3.7383655298,-3.026800743\H,-0.2361788661,2.3103999832,-1.1714491
 024\H,0.2461492041,1.4829326409,-2.6725921594\H,2.0478274961,-0.861605
 304,-2.2434616841\H,0.1997822709,-0.8109302544,-0.264028391\H,1.204839
 6428,0.6576716567,0.1626252408\\Version=ES64L-G16RevB.01\State=1-A\HF=
 -343.3891783\RMSD=1.903e-09\RMSF=3.513e-06\ZeroPoint=0.0866447\Thermal
 =0.0937639\Dipole=0.1957468,-0.122902,-0.6795445\DipoleDeriv=0.6072839
 ,0.2969061,-0.0316306,0.2080967,0.7667107,-0.0556529,0.0059616,-0.1428
 474,0.4071299,-0.5235016,0.0419346,0.2492631,-0.0462474,-0.7265082,0.0
 223288,0.209978,-0.1444517,-0.271238,0.3369918,-0.0587971,-0.2114113,-
 0.2890843,1.2399022,0.143032,-0.1498249,0.0461047,0.3186914,-0.4870241
 ,-0.1687827,0.0272591,-0.0160229,-0.0452906,-0.1238571,-0.0170933,-0.2
 257258,-0.1968161,-0.2452162,-0.1692488,-0.0913087,-0.2211855,-0.72088
 88,0.1526918,-0.0525188,0.3452041,-0.346183,-0.2315324,0.2198467,-0.09
 87975,0.085391,-1.6538436,0.2042951,-0.0881637,0.1068308,-0.2455804,0.
 2554799,0.1153693,0.0743273,0.0658952,0.2192457,0.0025203,0.0779706,-0
 .0142295,0.2629303,-0.0565163,-0.0281134,0.0555582,0.0669138,-0.080650
 2,-0.0200927,0.062064,-0.0356392,0.0138206,-0.0131168,-0.0724954,0.004
 53,-0.0286482,-0.0247281,-0.0283134,-0.0896523,-0.0216571,-0.1589609,0
 .0889319,-0.0194817,0.0674644,0.0512301,0.0790559,-0.0217978,0.1173967
 ,-0.0447167,-0.0155617,0.0620655,-0.1753268,0.1283792,0.0695382,0.9368
 989,-0.2371835,0.0218389,0.073725,0.1546053,0.2061544,0.0181891,-0.173
 6332,0.0541234,0.0100961,-0.0379706,-0.0979568,0.0574029,0.0771626\Pol
 ar=44.7405199,0.9731282,80.7818208,-5.842101,-10.2684622,48.1203217\Qu
 adrupole=1.6674844,-6.0860456,4.4185612,0.0229422,-2.2041812,-0.376372
 4\PG=C01 [X(C3H6O3)]\NImag=1\\0.48136580,-0.10057721,0.48176712,0.0186
 7019,0.03710103,0.59105121,-0.08697536,0.04123104,-0.01821867,0.194089
 34,0.02823464,-0.15818930,0.05444972,-0.12816032,0.60066618,-0.0059144
 2,0.05837263,-0.12816868,0.09292494,0.05189343,0.48625089,-0.00746423,
 0.00164430,-0.00131007,-0.08743256,0.08819456,0.03867881,0.40641323,-0
 .00674300,-0.02787560,0.00035432,0.02732730,-0.25231065,-0.03645202,-0
 .00777316,0.58616893,-0.01068813,0.01327386,0.01372613,0.04966749,-0.0
 7823081,-0.15586907,-0.29286798,-0.02823613,0.57554883,-0.18834372,-0.
 00864352,-0.03539645,0.01037398,-0.00730056,0.00740581,0.00122842,0.00
 397903,-0.00105200,0.31065767,-0.06111316,-0.06830510,-0.01187638,-0.0
 1790528,-0.03009891,0.01302805,-0.00055077,-0.00020622,-0.00105139,0.0
 4515658,0.26291955,-0.00565481,0.00039691,-0.06340452,0.01163462,0.013
 69817,-0.00319358,-0.00013988,0.00022030,0.00024565,0.03459726,-0.0990
 6473,0.13098342,0.01608469,-0.02618124,0.01843853,-0.00312076,-0.00538
 813,0.00106389,-0.00117469,0.00035857,0.00087732,-0.07586757,0.0346952
 7,-0.00659221,0.30883900,0.00915303,-0.03474487,0.01632688,-0.01081922
 ,-0.00557176,0.00144822,-0.00309129,0.00130289,0.00241490,0.03783845,-
 0.14972652,0.05697009,-0.05064895,0.21452528,-0.00470914,0.01135530,-0
 .00808135,0.00552007,0.00445535,0.00231193,0.00239804,-0.00163287,-0.0
 0123995,-0.01024915,0.08900588,-0.06508995,-0.24744334,-0.07930403,0.3
 1960968,0.02153024,-0.00055617,0.00021939,0.05020572,0.03740253,-0.031
 54344,-0.11488376,-0.04586886,0.05961973,-0.00160892,0.00176888,-0.001
 12598,0.00116523,0.00432983,-0.00213231,0.06759892,-0.00797871,0.00453
 257,-0.01443305,0.01572145,-0.12180546,0.04070961,-0.09792181,-0.37529
 260,0.17715586,0.00086022,-0.00139635,0.00125471,-0.00262135,-0.006943
 74,0.00433173,0.11796070,0.50801753,-0.01039632,-0.00107835,0.00174805
 ,-0.03716162,-0.01627284,0.07090416,0.08925418,0.09482234,-0.17108688,
 0.00135443,-0.00024712,0.00103466,-0.00037942,-0.00191409,0.00018454,-
 0.04326511,-0.19584442,0.12718520,-0.00311387,-0.00114371,0.00060785,0
 .00067241,0.00055112,-0.00042901,0.00031349,-0.00050543,-0.00001322,0.
 00865202,0.01152296,-0.01680066,-0.24960356,0.01033228,0.25662807,-0.0
 0035131,0.00084308,0.00000422,0.24285387,0.00291641,-0.00433598,0.0062
 5052,-0.00156546,-0.00174099,-0.00052995,-0.00074178,0.00012555,0.0004
 8358,-0.02792772,-0.01368082,0.03212438,0.04733631,-0.03124685,-0.0234
 2220,0.00056343,-0.00086671,-0.00015791,-0.02063410,0.05134920,-0.0004
 9157,0.00162118,-0.00053497,-0.00008831,-0.00045425,0.00026622,0.00009
 599,0.00031266,0.00016685,0.00834425,0.00576519,-0.01158741,0.23280161
 ,0.00746004,-0.25154928,0.00010645,-0.00039897,-0.00013004,-0.24006035
 ,-0.01380704,0.26383880,-0.16794870,0.10255521,0.07689480,0.00010018,0
 .00339674,0.00153436,0.00096238,0.00059418,-0.00109331,-0.04138147,0.0
 0360134,0.01327997,0.00221104,0.00058882,-0.00132147,-0.00063242,0.000
 00735,0.00031372,0.00067162,0.00033875,-0.00050267,0.19862768,0.109789
 64,-0.13208583,-0.06882768,0.01769304,-0.01851013,-0.01060582,0.002241
 21,0.00016871,0.00447477,-0.02458275,0.00685761,0.01044958,-0.00000179
 ,0.00307002,-0.00103869,-0.00146074,-0.00169131,-0.00038409,0.00006042
 ,0.00004092,-0.00038206,-0.10737389,0.14321031,0.07808618,-0.06884989,
 -0.10544555,-0.01414204,0.01256639,0.00894215,-0.00172197,0.00065987,-
 0.00225596,0.00155451,0.00498487,0.00552762,0.00036982,-0.00084251,-0.
 00017412,0.00144114,0.00095962,-0.00011407,-0.00041836,-0.00012207,-0.
 00017886,-0.08633593,0.06923732,0.10615203,-0.06315243,-0.00750311,-0.
 05253643,0.00027501,0.00049488,-0.00461872,-0.00022335,-0.00028504,-0.
 00036722,-0.02384253,-0.01707945,-0.03091030,0.00147236,0.00224271,0.0
 0171062,-0.00015870,-0.00016502,0.00035479,-0.00013395,-0.00037843,-0.
 00017531,0.00788939,0.00446541,0.02073213,0.07706371,-0.00577034,-0.06
 003715,-0.04775958,0.00763831,0.00509909,0.02595390,-0.00080057,0.0023
 7263,0.00074248,-0.01878346,-0.00938264,-0.01441196,0.00148584,0.00260
 341,-0.00045562,-0.00038127,-0.00057539,0.00043980,-0.00050124,-0.0001
 1781,-0.00049487,-0.00329868,-0.00180216,-0.01903571,0.01792530,0.0665
 2312,-0.05566680,-0.04886339,-0.28102231,-0.00281665,-0.00158908,-0.01
 192323,0.00049114,-0.00208136,0.00021435,-0.00548017,0.00040765,0.0061
 4920,0.00073796,-0.00132246,0.00259382,0.00002362,0.00156480,-0.000165
 21,0.00036352,-0.00054863,-0.00031828,-0.00328206,-0.00241311,-0.01371
 978,0.06659306,0.05210777,0.29914569,0.00117845,-0.00042982,-0.0000081
 1,0.01183295,0.00087287,0.00461932,-0.15992177,0.04302788,0.12739154,-
 0.00039677,-0.00015564,-0.00013758,-0.00000306,0.00022806,-0.00014255,
 -0.00701759,-0.01246248,0.01983895,0.00003084,0.00004016,0.00001810,-0
 .00014755,-0.00015175,0.00007577,-0.00008103,0.00014759,-0.00040340,0.
 14765359,-0.00062978,0.00091739,-0.00047901,0.00724890,0.00669850,-0.0
 1460052,0.03881428,-0.06747650,-0.03818558,-0.00030907,0.00012381,0.00
 004915,-0.00017343,-0.00016857,0.00016554,-0.02483007,0.00518029,0.026
 68795,0.00000991,-0.00016117,0.00001051,0.00008981,0.00002904,0.000362
 55,0.00012632,-0.00010240,0.00047358,-0.02497996,0.05993336,0.00110340
 ,-0.00056433,-0.00091332,0.00881914,0.00485343,0.00237628,0.12428040,-
 0.02695586,-0.21741346,-0.00028795,0.00005983,0.00013727,-0.00016401,-
 0.00021636,0.00013165,0.01327277,-0.00669426,-0.00578748,0.00003026,-0
 .00005314,0.00000793,-0.00012367,-0.00037371,0.00030172,0.00012284,-0.
 00018615,0.00005145,-0.15509518,0.02812510,0.22364739,-0.00168937,0.00
 300120,-0.00126708,-0.04996568,-0.00982106,0.01890430,-0.03727765,-0.0
 4925417,0.05417144,-0.00039004,-0.00027937,0.00003021,0.00013854,-0.00
 062604,0.00016830,0.00029879,-0.00809257,-0.04040771,0.00009454,0.0000
 6863,-0.00009788,0.00017108,-0.00025552,0.00013191,-0.00005296,0.00031
 135,-0.00037371,0.00927253,0.00174664,0.00818009,0.07644551,0.02283994
 ,-0.00707313,0.00115401,0.04478071,0.02807242,-0.06709697,-0.00839567,
 0.12860766,-0.03018888,-0.00061390,0.00182282,-0.00135543,0.00138761,0
 .00668311,-0.00269538,-0.08408220,-0.00831785,0.08464622,-0.00054922,0
 .00043623,0.00033173,-0.00024852,-0.00044772,0.00090203,-0.00022394,-0
 .00023220,-0.00028716,-0.00764192,-0.00449839,0.00080163,0.06392799,-0
 .12878308,0.00262781,-0.00097628,-0.00282230,0.00153500,0.00227670,-0.
 01430354,0.04495529,0.01447785,-0.02807158,-0.00063559,0.00006478,-0.0
 0099378,0.00007646,-0.00046080,0.00050597,-0.00527039,-0.01362204,-0.0
 1753950,0.00004469,-0.00006259,0.00006611,0.00030983,-0.00000513,0.000
 07878,-0.00025551,0.00023056,-0.00050826,0.00241378,-0.00045414,-0.002
 95419,-0.03598394,0.00296277,0.06464819,-0.00147151,-0.00339697,-0.006
 09395,-0.04005522,-0.00847726,-0.12262584,-0.00053951,0.03514270,0.014
 35433,0.00091893,0.00033865,0.00181936,-0.00014123,0.00047231,-0.00042
 714,-0.01614621,-0.00615085,0.02048987,-0.00008610,-0.00001620,0.00004
 970,-0.00052323,-0.00042328,0.00022684,0.00094449,0.00202717,-0.000186
 52,-0.00240061,0.00288645,-0.00013809,0.00295471,-0.03118088,-0.009817
 42,0.05654551,0.00987855,0.00542987,0.02773923,-0.00319047,-0.05230899
 ,-0.06212057,-0.01161931,0.00441520,-0.02265266,0.00032669,0.00107276,
 -0.00033116,-0.00024871,0.00021759,-0.00076501,-0.00484606,-0.00084097
 ,0.00930250,0.00001394,0.00019842,0.00003589,-0.00025113,0.00116054,-0
 .00082248,0.00038039,-0.00434849,0.00255140,0.00150501,-0.00047535,0.0
 0120381,-0.00072708,-0.01626988,-0.00443170,0.00877816,0.06174928,-0.0
 0696641,-0.00178867,-0.01613240,-0.09767396,-0.04764621,-0.25759351,-0
 .00411395,-0.01548911,-0.01396491,-0.00015495,-0.00107664,0.00019141,0
 .00021339,-0.00055988,0.00079704,0.00865412,0.00501641,-0.00623343,0.0
 0004299,-0.00015494,-0.00004706,0.00032643,-0.00013138,0.00088603,-0.0
 0064995,0.00286937,-0.00049745,0.00142935,-0.00215512,0.00041475,-0.00
 345594,0.01082543,0.00189410,0.10234887,0.05029074,0.29028542\\0.00000
 096,-0.00001017,-0.00000194,-0.00000921,0.00000523,-0.00000372,0.00000
 273,-0.00000556,0.00000391,0.00000430,-0.00000082,0.00000243,-0.000000
 22,0.00000333,-0.00000256,0.00000291,0.00000549,-0.00000469,0.00000032
 ,0.00000022,0.00000093,0.00000145,-0.00000223,0.00000337,0.00000028,0.
 00000024,0.00000283,-0.00000029,-0.00000124,-0.00000101,-0.00000203,0.
 00000192,-0.00000029,-0.00000120,0.00000360,0.00000075\\\@


 GOD GAVE US TWO ENDS... ONE TO SIT ON...    
 AND THE OTHER TO THINK WITH...              
 YOUR SUCCESS DEPENDS UPON WHICH END YOU     
 USE THE MOST...                             
                                             
 IT'S A CASE OF HEADS YOU WIN TAILS YOU LOSE.
          SOURCE UNKNOWN(IT'S JUST AS WELL.) 
 Job cpu time:       0 days  0 hours  3 minutes 51.9 seconds.
 Elapsed time:       0 days  0 hours  0 minutes 14.7 seconds.
 File lengths (MBytes):  RWF=     27 Int=      0 D2E=      0 Chk=      3 Scr=      1
 Normal termination of Gaussian 16 at Wed Dec 23 22:07:40 2020.
