[Molden Format]
[Geometries] (XYZ)
12

C        1.412093       1.427066      -2.161111
C        0.576002       0.567357      -1.212376
C        1.259467      -0.711138      -0.840539
O        0.767551       2.619459      -2.524119
O        0.645678       3.470121      -1.384094
O        2.348863      -1.054459      -1.202545
H        0.795526       4.348598      -1.756782
H        1.561858       0.920354      -3.117290
H        2.389317       1.635866      -1.708811
H        0.651102      -1.349355      -0.168334
H        0.373677       1.131769      -0.297396
H       -0.392124       0.334072      -1.662413
12

C        1.471632       1.457639      -2.189864
C        0.438087       0.556869      -1.213343
C        1.209888      -0.646402      -0.854501
O        0.793716       2.642836      -2.481046
O        0.859644       3.547703      -1.378321
O        2.326876      -0.863231      -1.213504
H        0.631810       4.394075      -1.784342
H        1.467729       0.952169      -3.158089
H        2.507674       1.597800      -1.861431
H        0.650757      -1.409324      -0.271364
H        0.196334       1.317732      -0.474829
H       -0.466963       0.137456      -1.630490
12

C        1.529191       1.468456      -2.235563
C        0.247560       0.490287      -1.222395
C        1.148332      -0.591385      -0.867062
O        0.841059       2.650291      -2.465179
O        1.048356       3.596246      -1.418119
O        2.283574      -0.671287      -1.221885
H        0.539365       4.361399      -1.717955
H        1.403997       0.967799      -3.197584
H        2.595496       1.566742      -2.017490
H        0.696300      -1.449171      -0.322226
H       -0.028094       1.389126      -0.690469
H       -0.598324      -0.100670      -1.541319
12

C        1.599034       1.452860      -2.283883
C        0.040311       0.378390      -1.241443
C        1.062651      -0.526318      -0.896747
O        0.902196       2.621753      -2.458957
O        1.198769       3.594287      -1.464144
O        2.212891      -0.444175      -1.264813
H        0.515422       4.264453      -1.605028
H        1.385511       0.949824      -3.228063
H        2.680389       1.548317      -2.159974
H        0.773374      -1.438675      -0.339908
H       -0.271357       1.351658      -0.914095
H       -0.758488      -0.337203      -1.400112
12

C        1.776852       1.444935      -2.265434
C       -0.041791       0.338447      -1.191703
C        1.053242      -0.371477      -0.818633
O        1.027096       2.576139      -2.333384
O        1.380880       3.553804      -1.364470
O        2.234541      -0.121401      -1.224797
H        0.575227       4.089721      -1.282680
H        1.501521       0.926164      -3.178973
H        2.876333       1.564351      -2.239067
H        0.927946      -1.269440      -0.202352
H       -0.376575       1.345591      -1.078237
H       -0.818806      -0.419887      -1.173285
12

C        1.785318       1.419465      -2.262959
C       -0.230676       0.168767      -1.215182
C        0.945605      -0.355423      -0.874505
O        1.066205       2.544586      -2.361160
O        1.473101       3.557349      -1.441063
O        2.106973       0.069896      -1.306346
H        0.648312       4.008945      -1.217819
H        1.457888       0.893920      -3.174116
H        2.865275       1.576687      -2.288683
H        1.006129      -1.236152      -0.233938
H       -0.591713       1.164833      -1.293714
H       -0.989572      -0.597336      -1.044143
12

C        1.861850       1.395493      -2.318248
C       -0.272111       0.126983      -1.241550
C        0.939717      -0.203346      -0.825472
O        1.064921       2.494359      -2.274291
O        1.552890       3.504824      -1.402309
O        2.104131       0.320580      -1.245059
H        0.784950       3.740179      -0.858781
H        1.493931       0.840812      -3.186394
H        2.935582       1.611565      -2.449019
H        1.085392      -0.982244      -0.086265
H       -0.633370       1.054104      -1.631560
H       -1.023025      -0.582269      -0.921091
12

C        1.970204       1.415138      -2.248128
C       -0.229827       0.107496      -1.161436
C        0.998252      -0.046391      -0.689470
O        1.110178       2.499782      -2.095721
O        1.665140       3.523517      -1.289276
O        2.151311       0.579254      -1.104070
H        1.090517       3.555390      -0.502645
H        1.573867       0.839172      -3.074723
H        3.021947       1.690210      -2.462498
H        1.206283      -0.725023       0.115640
H       -0.564615       0.893259      -1.823650
H       -0.984283      -0.533432      -0.762273
12

C        1.902583       1.439680      -2.281370
C       -0.262410      -0.094724      -1.243379
C        0.946646      -0.056368      -0.712631
O        1.000986       2.500039      -2.213429
O        1.543292       3.588599      -1.492036
O        2.017076       0.697885      -1.103408
H        1.140091       3.530373      -0.612563
H        1.519537       0.824354      -3.107585
H        2.914142       1.799487      -2.502373
H        1.230440      -0.653126       0.143123
H       -0.557752       0.514439      -2.078640
H       -1.005623      -0.750929      -0.831520
[GEOCONV]
energy
0.0
14.045558658
50.9018214386
90.7758776927
93.3330609205
56.936732106
22.4151303143
7.27587016481
4.2767404609
max-force
4.29602543944e-05
0.00749182613787
0.00642064866106
0.00427051110226
0.0103997858634
0.00869460685009
0.00834162696579
0.00454578605763
3.13685596536e-05
max-step
1000.0
1000.0
1000.0
1000.0
1000.0
1000.0
1000.0
1000.0
1000.0
