[Molden Format]
[Geometries] (XYZ)
12

C        1.412093       1.427066      -2.161111
C        0.576002       0.567357      -1.212376
C        1.259467      -0.711138      -0.840539
O        0.767551       2.619459      -2.524119
O        0.645678       3.470121      -1.384094
O        2.348863      -1.054459      -1.202545
H        0.795526       4.348598      -1.756782
H        1.561858       0.920354      -3.117290
H        2.389317       1.635866      -1.708811
H        0.651102      -1.349355      -0.168334
H        0.373677       1.131769      -0.297396
H       -0.392124       0.334072      -1.662413
12

C        1.447770       1.441350      -2.175491
C        0.442018       0.543835      -1.215634
C        1.214458      -0.667628      -0.842981
O        0.782252       2.635101      -2.470615
O        0.874150       3.546563      -1.373956
O        2.327767      -0.908946      -1.184437
H        0.615041       4.385644      -1.774917
H        1.435192       0.942347      -3.148739
H        2.479795       1.572353      -1.854468
H        0.637954      -1.421951      -0.262286
H        0.187985       1.307577      -0.483738
H       -0.452371       0.106924      -1.639210
12

C        1.503687       1.453275      -2.201676
C        0.254272       0.473311      -1.208985
C        1.159298      -0.614218      -0.825495
O        0.831030       2.645580      -2.433849
O        1.081391       3.600638      -1.401657
O        2.296156      -0.718317      -1.154709
H        0.528973       4.347793      -1.665628
H        1.362164       0.960685      -3.167852
H        2.562619       1.538724      -1.995048
H        0.683525      -1.468032      -0.288404
H       -0.037213       1.378721      -0.698593
H       -0.571924      -0.143926      -1.532016
12

C        1.609794       1.456998      -2.210209
C        0.041634       0.357490      -1.183596
C        1.083316      -0.532673      -0.817390
O        0.929987       2.632098      -2.390035
O        1.249649       3.610249      -1.403664
O        2.235418      -0.436280      -1.180807
H        0.547680       4.266421      -1.513043
H        1.386489       0.957096      -3.154450
H        2.682121       1.548017      -2.090565
H        0.801982      -1.450938      -0.263276
H       -0.282458       1.330418      -0.877529
H       -0.746826      -0.374831      -1.341324
12

C        1.725250       1.414834      -2.231338
C       -0.114965       0.269083      -1.158784
C        1.000712      -0.406389      -0.810918
O        1.024542       2.556150      -2.334141
O        1.353381       3.530402      -1.346637
O        2.161982      -0.062925      -1.288577
H        0.584148       4.118932      -1.353665
H        1.467035       0.894179      -3.151206
H        2.814259       1.539647      -2.179177
H        0.951773      -1.313346      -0.208320
H       -0.467981       1.252008      -0.966784
H       -0.914402      -0.483188      -1.194470
12

C        1.812725       1.409886      -2.204778
C       -0.253616       0.168840      -1.150198
C        0.936126      -0.317032      -0.819724
O        1.090196       2.530928      -2.296141
O        1.470977       3.534939      -1.342345
O        2.089396       0.173723      -1.325040
H        0.642490       3.997585      -1.153957
H        1.502492       0.881326      -3.120672
H        2.901381       1.572027      -2.221415
H        1.058402      -1.164527      -0.159015
H       -0.618582       1.165903      -1.176587
H       -1.028167      -0.590114      -1.006032
12

C        1.859665       1.391203      -2.284561
C       -0.303360       0.137478      -1.194206
C        0.919724      -0.170006      -0.794899
O        1.059545       2.480468      -2.235278
O        1.536988       3.490589      -1.347542
O        2.081759       0.383265      -1.269553
H        0.758944       3.727719      -0.819773
H        1.499787       0.830416      -3.153324
H        2.934842       1.614397      -2.413303
H        1.101020      -0.921701      -0.043861
H       -0.667992       1.068796      -1.569227
H       -1.060523      -0.569308      -0.879208
12

C        1.888587       1.389056      -2.326460
C       -0.324097       0.068602      -1.228554
C        0.907992      -0.071532      -0.768506
O        1.035196       2.466125      -2.182854
O        1.593704       3.490055      -1.378011
O        2.051037       0.570553      -1.194651
H        1.012751       3.532923      -0.603237
H        1.489802       0.805841      -3.160380
H        2.930627       1.676840      -2.539813
H        1.140172      -0.757254       0.031047
H       -0.657250       0.844253      -1.894008
H       -1.084488      -0.575946      -0.827986
12

C        1.902583       1.439680      -2.281370
C       -0.262410      -0.094724      -1.243379
C        0.946646      -0.056368      -0.712631
O        1.000986       2.500039      -2.213429
O        1.543292       3.588599      -1.492036
O        2.017076       0.697885      -1.103408
H        1.140091       3.530373      -0.612563
H        1.519537       0.824354      -3.107585
H        2.914142       1.799487      -2.502373
H        1.230440      -0.653126       0.143123
H       -0.557752       0.514439      -2.078640
H       -1.005623      -0.750929      -0.831520
[GEOCONV]
energy
0.0
12.1471231413
48.1487926421
91.2051276692
86.7696423529
47.3756945384
18.4100339543
6.10844941881
4.2767404609
max-force
4.29602543944e-05
0.00590562703898
0.00707176945965
0.00342652842171
0.0046289972673
0.00649015939112
0.00379970997958
0.00193500315074
3.13685596536e-05
max-step
1000.0
1000.0
1000.0
1000.0
1000.0
1000.0
1000.0
1000.0
1000.0
