[Molden Format]
[Geometries] (XYZ)
12

C        1.869470       1.614646      -1.399269
C        0.925589       0.626095      -0.704646
C        0.636344      -0.573329      -1.560099
O        1.330479       2.161001      -2.572079
O        0.230827       3.012324      -2.236978
O        0.532958      -1.698228      -1.160946
H        0.125176       3.534886      -3.041796
H        2.141934       2.415806      -0.700819
H        2.776144       1.116352      -1.751847
H        0.512664      -0.326157      -2.631691
H        1.333677       0.317609       0.257827
H       -0.026352       1.138483      -0.533458
12

C        1.774260       1.612507      -1.337859
C        0.798912       0.818096      -0.531880
C        0.624815      -0.641182      -1.846953
O        1.164758       1.926579      -2.607260
O        0.093366       2.843947      -2.411992
O        0.852573      -1.749843      -1.516874
H        0.244377       3.490202      -3.117923
H        2.352532       2.458565      -0.911852
H        2.546341       0.927909      -1.680848
H        0.313175      -0.352477      -2.870898
H        1.220553       0.313202       0.328817
H       -0.096700       1.355922      -0.267997
12

C        1.789595       1.668210      -1.310957
C        0.729640       1.031542      -0.448165
C        0.600571      -0.626185      -2.082057
O        1.106479       1.759624      -2.556398
O        0.039151       2.691718      -2.438850
O        0.972598      -1.700568      -1.827640
H        0.264989       3.360343      -3.095299
H        2.457210       2.530188      -1.062662
H        2.492286       0.886864      -1.603404
H        0.201099      -0.298166      -3.053016
H        1.164284       0.491146       0.386503
H       -0.137827       1.589436      -0.156330
12

C        1.987017       1.304537      -1.276554
C        0.814263       0.887605      -0.330725
C        0.780497      -0.975477      -2.421299
O        1.097310       1.221023      -2.473467
O        0.100153       2.138987      -2.501484
O        1.402976      -1.860418      -2.065155
H        0.526207       2.857546      -3.070148
H        2.790612       2.076468      -1.291290
H        2.583195       0.378750      -1.530757
H        0.250203      -0.716515      -3.379012
H        1.257868       0.288903       0.446342
H       -0.026987       1.481072       0.036514
12

C        2.003731       1.784476      -0.972960
C        0.785843       1.733220      -0.206211
C        0.650964      -0.582127      -2.706208
O        1.123639       0.926250      -2.118260
O       -0.076316       1.836185      -2.184453
O        0.994948      -1.728967      -2.910095
H        0.215071       2.653778      -2.523825
H        2.792127       2.533685      -1.122447
H        2.654169       0.923221      -1.047188
H        0.130115      -0.145632      -3.513602
H        1.125935       1.302446       0.734061
H       -0.032335       2.381127      -0.113911
12

C        2.215974       1.869132      -0.785271
C        1.003249       1.856318      -0.095538
C        0.736858      -0.559929      -2.841198
O        1.136820       0.564057      -2.059410
O        0.046685       1.488946      -2.220247
O        1.160218      -1.658174      -3.029812
H        0.493434       2.339536      -2.370410
H        2.990378       2.607227      -1.010854
H        2.889695       1.010432      -0.837268
H        0.081890      -0.141116      -3.598876
H        1.272342       1.361122       0.830864
H        0.190325       2.546771      -0.061845
12

C        2.343183       1.899301      -0.618005
C        1.140356       1.982326       0.004150
C        0.774003      -0.640590      -2.959472
O        1.094906       0.304947      -2.078778
O        0.085078       1.285074      -2.220384
O        1.251727      -1.711795      -3.167085
H        0.584714       2.108902      -2.091206
H        3.049139       2.666683      -0.949603
H        3.014937       1.043955      -0.643477
H       -0.004563      -0.222415      -3.624925
H        1.201468       1.331174       0.868526
H        0.395275       2.753394      -0.007258
12

C        2.323114       2.030905      -0.485993
C        1.138058       2.145254       0.146184
C        0.630184      -0.759115      -3.153618
O        0.969930       0.123678      -2.206312
O        0.053481       1.185879      -2.247123
O        1.111435      -1.812254      -3.395712
H        0.555159       1.894323      -1.792376
H        2.920305       2.809123      -0.950199
H        2.946133       1.143312      -0.472821
H       -0.206966      -0.329642      -3.738225
H        0.950337       1.405962       0.911860
H        0.486162       3.003908       0.101512
12

C        2.360337       2.254797      -0.588345
C        1.286347       2.456475       0.154080
C        0.244131      -0.929843      -3.274676
O        0.741347      -0.051244      -2.399363
O       -0.068575       1.096550      -2.265729
O        0.796327      -1.955152      -3.509647
H        0.422104       1.620290      -1.592235
H        2.744668       3.011558      -1.253490
H        2.906447       1.325928      -0.561827
H       -0.707323      -0.588062      -3.720713
H        0.914853       1.706871       0.834772
H        0.748247       3.391322       0.141372
[GEOCONV]
energy
0.0
41.8847788808
85.0901688499
141.673896474
191.041949769
100.730151175
56.0918244976
30.4451584016
19.748269688
max-force
3.88344020265e-05
0.0105133556891
0.00850866695271
0.00920727599094
0.0162467603031
0.00788331333807
0.00629124085229
0.00462535539377
3.13461367964e-05
max-step
1000.0
1000.0
1000.0
1000.0
1000.0
1000.0
1000.0
1000.0
1000.0
