[Molden Format]
[Geometries] (XYZ)
12

C        1.869470       1.614646      -1.399269
C        0.925589       0.626095      -0.704646
C        0.636344      -0.573329      -1.560099
O        1.330479       2.161001      -2.572079
O        0.230827       3.012324      -2.236978
O        0.532958      -1.698228      -1.160946
H        0.125176       3.534886      -3.041796
H        2.141934       2.415806      -0.700819
H        2.776144       1.116352      -1.751847
H        0.512664      -0.326157      -2.631691
H        1.333677       0.317609       0.257827
H       -0.026352       1.138483      -0.533458
12

C        1.785686       1.589467      -1.281979
C        0.806610       0.778659      -0.508795
C        0.659755      -0.592340      -1.762895
O        1.190278       1.920533      -2.536423
O        0.117001       2.850360      -2.364929
O        0.896649      -1.701336      -1.421462
H        0.258985       3.473230      -3.096517
H        2.382468       2.417273      -0.853702
H        2.561667       0.915058      -1.639516
H        0.346746      -0.301226      -2.788504
H        1.247107       0.259555       0.337627
H       -0.089388       1.302548      -0.236063
12

C        1.785093       1.568559      -1.272309
C        0.728599       0.827520      -0.436496
C        0.599890      -0.563860      -1.899992
O        1.160091       1.712094      -2.501780
O        0.082798       2.655109      -2.412892
O        1.034740      -1.624213      -1.618462
H        0.295840       3.320552      -3.074914
H        2.351534       2.443173      -1.033376
H        2.540124       0.819930      -1.565741
H        0.172347      -0.232867      -2.835299
H        1.163044       0.214969       0.346296
H       -0.152029       1.343153      -0.165769
12

C        1.772661       1.491192      -1.228702
C        0.697929       0.927378      -0.306719
C        0.615376      -0.687815      -2.172279
O        1.027592       1.558595      -2.448096
O        0.003237       2.511288      -2.500953
O        1.253681      -1.582466      -1.784097
H        0.392275       3.222770      -3.037955
H        2.440277       2.325505      -1.092148
H        2.450531       0.647202      -1.480235
H        0.050364      -0.466709      -3.061903
H        1.134208       0.245618       0.410046
H       -0.136466       1.483239       0.051464
12

C        1.902026       1.656098      -0.911299
C        0.785595       1.476365      -0.047881
C        0.614392      -0.582500      -2.590167
O        1.088516       1.147146      -2.237926
O       -0.064693       1.998467      -2.314153
O        1.040905      -1.697160      -2.619573
H        0.199830       2.748534      -2.822114
H        2.650505       2.439864      -0.955952
H        2.594370       0.823297      -1.057853
H        0.109984      -0.166532      -3.445408
H        1.226378       0.960073       0.798424
H       -0.023333       2.104038       0.206655
12

C        2.033636       1.829746      -0.720152
C        0.881545       1.729544       0.056186
C        0.568261      -0.466117      -2.897642
O        0.974853       0.680835      -2.164841
O       -0.116414       1.559991      -2.314248
O        1.020486      -1.561748      -2.968459
H        0.306349       2.386614      -2.605657
H        2.819679       2.547105      -0.906434
H        2.665119       0.925657      -0.791272
H       -0.038062      -0.098079      -3.729562
H        1.257382       1.195670       0.915314
H        0.039229       2.379505       0.216906
12

C        2.089477       1.904640      -0.600458
C        0.948122       1.884313       0.083064
C        0.520333      -0.523720      -3.081443
O        0.899041       0.405211      -2.206469
O       -0.107877       1.389877      -2.279044
O        1.008103      -1.598800      -3.216954
H        0.412514       2.213396      -2.254923
H        2.764785       2.699054      -0.915136
H        2.734409       1.030814      -0.640020
H       -0.214359      -0.111489      -3.811538
H        1.051556       1.175780       0.894172
H        0.169936       2.618136       0.144115
12

C        2.171848       1.964099      -0.459938
C        1.017808       2.019584       0.184292
C        0.475946      -0.634927      -3.275907
O        0.798072       0.200171      -2.291314
O       -0.105189       1.279175      -2.280959
O        1.006302      -1.681479      -3.457471
H        0.428459       1.975027      -1.851454
H        2.682096       2.790527      -0.944778
H        2.799960       1.086588      -0.459406
H       -0.350451      -0.219272      -3.887965
H        0.786336       1.191918       0.837016
H        0.354443       2.866336       0.204111
12

C        2.360337       2.254797      -0.588345
C        1.286347       2.456475       0.154080
C        0.244131      -0.929843      -3.274676
O        0.741347      -0.051244      -2.399363
O       -0.068575       1.096550      -2.265729
O        0.796327      -1.955152      -3.509647
H        0.422104       1.620290      -1.592235
H        2.744668       3.011558      -1.253490
H        2.906447       1.325928      -0.561827
H       -0.707323      -0.588062      -3.720713
H        0.914853       1.706871       0.834772
H        0.748247       3.391322       0.141372
[GEOCONV]
energy
0.0
32.6018741821
55.6057369971
101.759108429
162.387410013
96.2048244555
50.7620603072
24.9071287302
19.748269688
max-force
3.88344020265e-05
0.00992270793089
0.0100638024066
0.00683081045854
0.0120091777079
0.00836311658599
0.00421256774553
0.00181504893645
3.13461367964e-05
max-step
1000.0
1000.0
1000.0
1000.0
1000.0
1000.0
1000.0
1000.0
1000.0
