[Molden Format]
[Geometries] (XYZ)
12

C        1.353398       1.425760      -2.190022
C        0.578927       0.575281      -1.182508
C        1.258051      -0.725208      -0.885893
O        0.720852       2.646312      -2.472532
O        0.738966       3.481367      -1.315676
O        2.298064      -1.094445      -1.352584
H        0.930121       4.353903      -1.683537
H        2.374581       1.592862      -1.825798
H        1.398020       0.933008      -3.164060
H        0.698165      -1.353800      -0.164505
H       -0.429867       0.371667      -1.550892
H        0.469732       1.132593      -0.247594
12

C        1.398307       1.470683      -2.214698
C        0.487703       0.604380      -1.067052
C        1.234969      -0.668056      -0.841799
O        0.583746       2.558505      -2.423068
O        0.717743       3.311365      -1.238031
O        2.299098      -0.958822      -1.312637
H        1.024422       4.122106      -1.691930
H        2.378889       1.490321      -1.752287
H        1.406888       0.999940      -3.199765
H        0.700201      -1.371281      -0.166116
H       -0.488287       0.377911      -1.487950
H        0.353915       1.107395      -0.113876
12

C        1.484388       1.548035      -2.326424
C        0.404542       0.634114      -0.966264
C        1.209014      -0.608019      -0.792635
O        0.504424       2.468360      -2.405950
O        0.676304       3.101411      -1.152364
O        2.290600      -0.834360      -1.258566
H        1.110881       3.911814      -1.687075
H        2.401575       1.430597      -1.781756
H        1.481235       1.136094      -3.338046
H        0.699553      -1.368511      -0.153828
H       -0.555211       0.396469      -1.410593
H        0.251600       1.091103       0.005528
12

C        1.565037       1.631069      -2.487621
C        0.328571       0.620484      -0.875037
C        1.177401      -0.586373      -0.738063
O        0.459166       2.362111      -2.427780
O        0.637844       2.844106      -1.086038
O        2.282249      -0.756796      -1.174926
H        1.212405       3.717974      -1.706902
H        2.426677       1.404460      -1.902013
H        1.578259       1.316954      -3.535790
H        0.678667      -1.394478      -0.149371
H       -0.620423       0.379541      -1.340848
H        0.153433       1.030153       0.120019
12

C        1.639317       1.751452      -2.603236
C        0.271154       0.617559      -0.811410
C        1.160778      -0.558107      -0.705161
O        0.437896       2.255902      -2.431275
O        0.598155       2.585644      -1.043516
O        2.269666      -0.709350      -1.136154
H        1.369796       3.672959      -1.805733
H        2.496137       1.478123      -2.029523
H        1.674277       1.520339      -3.677713
H        0.667741      -1.375698      -0.135313
H       -0.671070       0.365450      -1.280683
H        0.082053       0.989848       0.201923
12

C        1.705545       1.869222      -2.686903
C        0.234675       0.625173      -0.781019
C        1.163299      -0.521750      -0.703307
O        0.413496       2.150772      -2.414127
O        0.568023       2.345223      -1.017731
O        2.274630      -0.657427      -1.123786
H        1.557072       3.607228      -1.967846
H        2.565071       1.559319      -2.132002
H        1.750199       1.702696      -3.772587
H        0.675234      -1.347013      -0.152624
H       -0.702855       0.366883      -1.251822
H        0.031038       0.955524       0.244876
12

C        1.764559       1.986169      -2.752837
C        0.198823       0.618424      -0.743728
C        1.168508      -0.506167      -0.698762
O        0.429246       2.052379      -2.419596
O        0.531069       2.119283      -1.017034
O        2.287593      -0.571135      -1.113365
H        1.758941       3.472373      -2.159406
H        2.591982       1.559390      -2.219719
H        1.804856       1.884145      -3.840073
H        0.703850      -1.371276      -0.192674
H       -0.730637       0.344018      -1.226632
H       -0.025470       0.897613       0.296886
12

C        1.811511       2.170993      -2.783755
C        0.132859       0.647526      -0.659999
C        1.144128      -0.455472      -0.657765
O        0.472412       2.001394      -2.414998
O        0.489049       2.013951      -1.005282
O        2.268205      -0.436303      -1.063393
H        1.929460       3.401738      -2.326092
H        2.608277       1.606959      -2.316143
H        1.821266       2.113569      -3.873177
H        0.713597      -1.369280      -0.209635
H       -0.779032       0.340909      -1.168497
H       -0.116560       0.871720       0.387296
12

C        1.821473       2.412068      -2.762896
C        0.058978       0.616787      -0.568435
C        1.145036      -0.432677      -0.663060
O        0.537570       1.971842      -2.393291
O        0.424296       1.905939      -0.972427
O        2.262140      -0.264815      -1.050957
H        2.019586       3.415518      -2.377374
H        2.594606       1.719486      -2.420012
H        1.787187       2.430547      -3.850875
H        0.784825      -1.426204      -0.326941
H       -0.816505       0.261042      -1.131549
H       -0.230182       0.729766       0.482216
[GEOCONV]
energy
0.0
18.7200083106
73.9694988421
139.785633024
194.616537255
158.485175458
85.2221693269
27.4193358565
4.25368369832
max-force
2.6819672167e-05
0.00601763753256
0.0092973325949
0.00780617243709
0.00780114186447
0.00579314850364
0.00669579180731
0.00725912679248
6.74770337309e-05
max-step
1000.0
1000.0
1000.0
1000.0
1000.0
1000.0
1000.0
1000.0
1000.0
