[Molden Format]
[Geometries] (XYZ)
12

C        1.353398       1.425760      -2.190022
C        0.578927       0.575281      -1.182508
C        1.258051      -0.725208      -0.885893
O        0.720852       2.646312      -2.472532
O        0.738966       3.481367      -1.315676
O        2.298064      -1.094445      -1.352584
H        0.930121       4.353903      -1.683537
H        2.374581       1.592862      -1.825798
H        1.398020       0.933008      -3.164060
H        0.698165      -1.353800      -0.164505
H       -0.429867       0.371667      -1.550892
H        0.469732       1.132593      -0.247594
12

C        1.402578       1.438445      -2.220835
C        0.525660       0.609060      -1.103904
C        1.280682      -0.669682      -0.897775
O        0.555308       2.529297      -2.424554
O        0.743591       3.346152      -1.284301
O        2.359327      -0.933760      -1.351937
H        1.120396       4.084279      -1.762979
H        2.356013       1.425604      -1.710962
H        1.390497       0.940301      -3.187442
H        0.745296      -1.400623      -0.251914
H       -0.433886       0.370910      -1.559787
H        0.381839       1.105745      -0.152135
12

C        1.539507       1.540652      -2.429819
C        0.429123       0.639844      -0.985736
C        1.250148      -0.590702      -0.834951
O        0.512145       2.439370      -2.452593
O        0.711596       3.097968      -1.196118
O        2.345374      -0.794416      -1.282594
H        1.180441       3.800115      -1.703101
H        2.391237       1.356181      -1.812932
H        1.535774       1.136486      -3.438339
H        0.752830      -1.375519      -0.209811
H       -0.521932       0.407996      -1.453559
H        0.274487       1.076161      -0.009310
12

C        1.682956       1.698871      -2.677160
C        0.305916       0.655152      -0.851034
C        1.192438      -0.506313      -0.750477
O        0.521090       2.326386      -2.491724
O        0.693514       2.817996      -1.126320
O        2.300251      -0.655657      -1.184053
H        1.248175       3.628227      -1.640749
H        2.507966       1.439045      -2.057176
H        1.728737       1.429599      -3.729720
H        0.727311      -1.332903      -0.134256
H       -0.651957       0.429776      -1.304784
H        0.149593       1.035682       0.154438
12

C        1.770372       1.895674      -2.847524
C        0.189202       0.681295      -0.776069
C        1.144104      -0.418953      -0.704467
O        0.561041       2.138637      -2.433991
O        0.665698       2.541830      -1.094558
O        2.264854      -0.527125      -1.113821
H        1.413774       3.676367      -1.655545
H        2.659175       1.655858      -2.300088
H        1.806054       1.652455      -3.906458
H        0.686848      -1.248794      -0.102309
H       -0.768873       0.424852      -1.213002
H        0.027946       1.033749       0.243370
12

C        1.773304       1.963365      -2.814635
C        0.224109       0.726472      -0.761485
C        1.176466      -0.388023      -0.694463
O        0.461909       2.147676      -2.435454
O        0.595408       2.337894      -1.036536
O        2.293722      -0.515452      -1.097773
H        1.587168       3.607692      -1.893849
H        2.623693       1.662291      -2.243160
H        1.842838       1.820671      -3.889986
H        0.692333      -1.212639      -0.125444
H       -0.720375       0.488423      -1.232507
H        0.022598       1.035460       0.268706
12

C        1.786884       2.077200      -2.802327
C        0.182526       0.733123      -0.713825
C        1.172038      -0.377355      -0.672602
O        0.448819       2.106503      -2.409710
O        0.554382       2.145821      -1.013027
O        2.287065      -0.428310      -1.097808
H        1.781345       3.417948      -2.135182
H        2.608849       1.707450      -2.222231
H        1.868651       1.991176      -3.874524
H        0.723571      -1.234339      -0.126676
H       -0.763974       0.493994      -1.192596
H       -0.042076       0.981967       0.338692
12

C        1.828927       2.209729      -2.787937
C        0.135239       0.710862      -0.648531
C        1.150423      -0.393890      -0.643780
O        0.464127       2.058569      -2.407516
O        0.497324       2.032212      -0.993226
O        2.266635      -0.379062      -1.070987
H        1.963657       3.341295      -2.423977
H        2.614941       1.683305      -2.265593
H        1.866972       2.121975      -3.867968
H        0.726524      -1.295611      -0.161964
H       -0.786476       0.419086      -1.156229
H       -0.121105       0.919511       0.402412
12

C        1.821473       2.412068      -2.762896
C        0.058978       0.616787      -0.568435
C        1.145036      -0.432677      -0.663060
O        0.537570       1.971842      -2.393291
O        0.424296       1.905939      -0.972427
O        2.262140      -0.264815      -1.050957
H        2.019586       3.415518      -2.377374
H        2.594606       1.719486      -2.420012
H        1.787187       2.430547      -3.850875
H        0.784825      -1.426204      -0.326941
H       -0.816505       0.261042      -1.131549
H       -0.230182       0.729766       0.482216
[GEOCONV]
energy
0.0
18.0693242719
83.0788769655
141.986777015
153.999891373
137.599820382
70.155585781
17.7953220719
4.25368369832
max-force
2.6819672167e-05
0.00309962868348
0.00448486070631
0.00881278050313
0.00499793447486
0.00801406784312
0.0011452748866
0.00467417070068
6.74770337309e-05
max-step
1000.0
1000.0
1000.0
1000.0
1000.0
1000.0
1000.0
1000.0
1000.0
