[Molden Format]
[Geometries] (XYZ)
12

C        1.412095       1.427065      -2.161107
C        0.576014       0.567358      -1.212368
C        1.259465      -0.711134      -0.840536
O        0.767549       2.619453      -2.524121
O        0.645676       3.470121      -1.384101
O        2.348857      -1.054445      -1.202547
H        0.795520       4.348597      -1.756795
H        1.561859       0.920348      -3.117283
H        2.389321       1.635867      -1.708811
H        0.651079      -1.349356      -0.168348
H        0.373687       1.131767      -0.297387
H       -0.392112       0.334068      -1.662405
12

C        1.479485       1.414465      -2.227221
C        0.608313       0.537762      -1.176302
C        1.360240      -0.649149      -0.952406
O        0.737079       2.587240      -2.490055
O        0.703987       3.410897      -1.326205
O        2.456361      -1.105183      -0.985807
H        0.817155       4.299958      -1.687330
H        1.552215       0.949389      -3.209770
H        2.470286       1.673027      -1.845698
H        0.561247      -1.234809      -0.177122
H        0.374195       1.088383      -0.267742
H       -0.337947       0.388588      -1.696124
12

C        1.550440       1.407016      -2.258026
C        0.642894       0.514098      -1.127540
C        1.502241      -0.579638      -1.026616
O        0.745127       2.565834      -2.453731
O        0.766876       3.387743      -1.284274
O        2.510297      -1.165824      -0.871447
H        0.847318       4.281318      -1.642824
H        1.583811       0.962348      -3.258836
H        2.550198       1.705894      -1.921407
H        0.542896      -1.129514      -0.176980
H        0.380271       1.081448      -0.240015
H       -0.264059       0.427923      -1.722441
12

C        1.652229       1.395863      -2.267130
C        0.627301       0.433161      -1.021481
C        1.588603      -0.526055      -1.049276
O        0.816734       2.540956      -2.431076
O        0.833424       3.339642      -1.245381
O        2.582133      -1.093494      -0.874605
H        0.890672       4.241205      -1.585705
H        1.679214       0.960061      -3.276569
H        2.657180       1.707542      -1.937328
H        0.491374      -1.147085      -0.099693
H        0.406871       1.079857      -0.170978
H       -0.245724       0.381463      -1.664710
12

C        1.759295       1.348934      -2.252151
C        0.526214       0.319907      -0.859650
C        1.610686      -0.419444      -1.076537
O        0.903223       2.465572      -2.403521
O        0.897977       3.244107      -1.205544
O        2.666165      -0.877460      -0.979057
H        0.937741       4.150697      -1.535990
H        1.800606       0.922889      -3.257216
H        2.758091       1.657120      -1.927131
H        0.402281      -1.159725      -0.034607
H        0.323810       0.984373      -0.026853
H       -0.339664       0.276238      -1.508572
12

C        1.829882       1.281185      -2.226301
C        0.440583       0.235990      -0.743522
C        1.621274      -0.289364      -1.124799
O        0.958447       2.368979      -2.358109
O        0.952211       3.147104      -1.156887
O        2.732971      -0.660757      -1.073191
H        0.980204       4.051724      -1.490576
H        1.885634       0.863472      -3.235682
H        2.831098       1.584512      -1.906454
H        0.365581      -1.083021      -0.044698
H        0.250409       0.927070       0.064368
H       -0.422246       0.187470      -1.394099
12

C        1.855147       1.244929      -2.222867
C        0.387950       0.180172      -0.690201
C        1.636184      -0.173616      -1.195571
O        0.964399       2.307694      -2.328355
O        0.974034       3.089620      -1.127420
O        2.749103      -0.570941      -1.092492
H        0.983504       3.989452      -1.464953
H        1.910520       0.838619      -3.238349
H        2.857527       1.557551      -1.916781
H        0.341169      -0.999430      -0.080659
H        0.243850       0.947344       0.051598
H       -0.460222       0.149926      -1.360537
12

C        1.833204       1.259492      -2.276096
C        0.305741       0.136167      -0.687404
C        1.604387      -0.019923      -1.288087
O        0.899995       2.289929      -2.349905
O        0.919433       3.068003      -1.150000
O        2.637356      -0.589959      -1.103810
H        0.901745       3.972642      -1.482477
H        1.869673       0.857788      -3.295021
H        2.833116       1.617907      -2.011201
H        0.245305      -0.912269      -0.119503
H        0.200516       0.970214      -0.009735
H       -0.515749       0.157262      -1.394922
12

C        1.658909       1.331535      -2.439158
C        0.239420       0.115477      -0.694643
C        1.490166       0.122421      -1.515641
O        0.736214       2.371365      -2.258698
O        0.991190       3.052719      -1.033145
O        2.329210      -0.740075      -1.490670
H        0.960645       3.984876      -1.287773
H        1.483548       1.004163      -3.469067
H        2.692087       1.694680      -2.363190
H        0.138447      -0.827300      -0.165358
H        0.290091       0.937721       0.017913
H       -0.620928       0.292119      -1.336361
[GEOCONV]
energy
0.0
20.6075801134
62.0874034109
102.58108809
133.6248643
102.817402216
57.6572046924
11.9991574804
-6.45010104317
max-force
4.10813793764e-05
0.00851309492245
0.0100936314517
0.0097962644435
0.00956383802862
0.00742015614245
0.00919194139568
0.00898848703746
6.38339999429e-05
max-step
1000.0
1000.0
1000.0
1000.0
1000.0
1000.0
1000.0
1000.0
1000.0
