[Molden Format]
[Geometries] (XYZ)
12

C        1.412095       1.427065      -2.161107
C        0.576014       0.567358      -1.212368
C        1.259465      -0.711134      -0.840536
O        0.767549       2.619453      -2.524121
O        0.645676       3.470121      -1.384101
O        2.348857      -1.054445      -1.202547
H        0.795520       4.348597      -1.756795
H        1.561859       0.920348      -3.117283
H        2.389321       1.635867      -1.708811
H        0.651079      -1.349356      -0.168348
H        0.373687       1.131767      -0.297387
H       -0.392112       0.334068      -1.662405
12

C        1.471131       1.420635      -2.230952
C        0.632584       0.552796      -1.197501
C        1.367624      -0.657070      -0.957464
O        0.728541       2.597930      -2.487825
O        0.713684       3.424806      -1.325134
O        2.464185      -1.110851      -0.969397
H        0.832703       4.312055      -1.688906
H        1.534538       0.960563      -3.217475
H        2.462957       1.682170      -1.850188
H        0.573294      -1.227083      -0.194549
H        0.410515       1.114959      -0.293088
H       -0.310653       0.411530      -1.725397
12

C        1.548386       1.417178      -2.266835
C        0.657299       0.527839      -1.144231
C        1.513214      -0.574290      -1.034665
O        0.743653       2.579194      -2.455689
O        0.772305       3.403255      -1.286133
O        2.511017      -1.169902      -0.857444
H        0.852560       4.297212      -1.644022
H        1.580479       0.973485      -3.271693
H        2.550771       1.716407      -1.928202
H        0.550052      -1.119198      -0.188990
H        0.408311       1.112828      -0.261761
H       -0.248543       0.445720      -1.740614
12

C        1.622375       1.405745      -2.273083
C        0.614714       0.435706      -1.034659
C        1.567056      -0.532519      -1.054566
O        0.783772       2.544026      -2.429614
O        0.804968       3.355604      -1.246916
O        2.544736      -1.118079      -0.859739
H        0.854696       4.256764      -1.589589
H        1.624764       0.975347      -3.293133
H        2.636823       1.711268      -1.948634
H        0.450919      -1.156540      -0.111497
H        0.425778       1.109296      -0.196031
H       -0.245295       0.401692      -1.692259
12

C        1.720784       1.386243      -2.298839
C        0.441590       0.289309      -0.846017
C        1.546788      -0.406548      -1.077508
O        0.872238       2.489453      -2.453072
O        0.846736       3.263740      -1.248072
O        2.615993      -0.844154      -1.037049
H        0.878737       4.172373      -1.563016
H        1.759294       0.961316      -3.303517
H        2.717280       1.694881      -1.960662
H        0.267742      -1.219492       0.024033
H        0.238106       0.924423      -0.002579
H       -0.413643       0.242676      -1.497922
12

C        1.753500       1.294296      -2.277780
C        0.329319       0.236396      -0.764582
C        1.531972      -0.258810      -1.168066
O        0.877080       2.378033      -2.408902
O        0.853486       3.146967      -1.202023
O        2.651677      -0.603291      -1.176960
H        0.880740       4.057452      -1.529165
H        1.810491       0.876114      -3.287255
H        2.755990       1.595194      -1.954991
H        0.234283      -1.052141      -0.065496
H        0.132010       0.904015       0.058174
H       -0.532113       0.175105      -1.413135
12

C        1.730434       1.257624      -2.293509
C        0.260475       0.206331      -0.754227
C        1.523003      -0.144229      -1.277427
O        0.835328       2.320053      -2.389688
O        0.844443       3.088550      -1.186620
O        2.637987      -0.531317      -1.193584
H        0.856912       3.999957      -1.515869
H        1.780758       0.857737      -3.310778
H        2.734785       1.562194      -1.989547
H        0.207809      -0.940630      -0.154685
H        0.120689       0.960172      -0.002744
H       -0.592123       0.167272      -1.416998
12

C        1.746454       1.274166      -2.347777
C        0.214721       0.149097      -0.743650
C        1.522846       0.004672      -1.371012
O        0.808523       2.299543      -2.411445
O        0.826377       3.070772      -1.207085
O        2.538815      -0.572476      -1.151431
H        0.801527       3.977764      -1.536009
H        1.784051       0.877886      -3.370157
H        2.746595       1.630023      -2.086953
H        0.159473      -0.874967      -0.191452
H        0.111549       0.973293      -0.057593
H       -0.611012       0.162786      -1.446069
12

C        1.658909       1.331535      -2.439158
C        0.239420       0.115477      -0.694643
C        1.490166       0.122421      -1.515641
O        0.736214       2.371365      -2.258698
O        0.991190       3.052719      -1.033145
O        2.329210      -0.740075      -1.490670
H        0.960645       3.984876      -1.287773
H        1.483548       1.004163      -3.469067
H        2.692087       1.694680      -2.363190
H        0.138447      -0.827300      -0.165358
H        0.290091       0.937721       0.017913
H       -0.620928       0.292119      -1.336361
[GEOCONV]
energy
0.0
17.5580177492
61.2843060371
101.560644621
126.626454803
96.6343268038
54.2447743889
8.27890216611
-6.45010104317
max-force
4.10813793764e-05
0.00731150568035
0.00949857204712
0.00914900668697
0.00448512543154
0.00785611045459
0.00952409416948
0.00750828153762
6.38339999429e-05
max-step
1000.0
1000.0
1000.0
1000.0
1000.0
1000.0
1000.0
1000.0
1000.0
