11
 energy: -17.572287671253 gnorm: 0.000709557577 xtb: 6.2.3 (830e466)
C         6.66532936412629    2.33813683569250    2.19329963801926
C         6.89328964839122    1.67616357160710    0.82847800708224
C         7.99872684787768    2.80566123686407    2.74400433988520
O         5.78044952268840    3.42416429962478    2.12445915323517
O         8.30356276376168    3.92603791812001    3.01545768882430
H         4.99062570869827    3.16158582838039    1.63943831191882
H         6.28678587162924    1.57594685336351    2.90148200045311
H         8.70373571496809    1.95711654322372    2.87315149252922
H         5.95777185997705    1.26886156239801    0.44889746699525
H         7.26606572221301    2.41457059213783    0.12216060798690
H         7.61475697566906    0.86826475858807    0.91218129307053
11
Properties=species:S:1:pos:R:3 energy:=T -17.603840483424=T gnorm:=T 0.000560748862=T xtb:=T 6.2.3=T (830e466)=T pbc="F F F"
C        6.16932696       2.28665118       1.89892755
C        6.65574739       1.63247076       0.61219924
C        8.04463349       3.20699422       3.00461249
O        6.97974998       3.40165357       2.24252274
O        8.82904211       4.06016533       3.27653200
H        5.16036197       2.68501516       1.77073607
H        6.16862079       1.56072074       2.72237962
H        8.13075649       2.16265507       3.38532803
H        5.98737857       0.82173540       0.33672989
H        6.67598361       2.36432293      -0.19081115
H        7.65949865       1.23412566       0.74385351
