11
 energy: -17.576758688740 gnorm: 0.000588667865 xtb: 6.2.3 (830e466)
C         6.66120659241023    2.19268970948845    2.13644045996031
C         6.97221750364972    1.53331451905416    0.78859232319806
C         7.85461464446620    3.04581753540366    2.51318110922633
O         5.49257164849453    2.96546138364947    1.98080871798887
O         8.84129644569166    2.64545791541906    3.06104196797131
H         5.26223609383755    3.38074007145173    2.81878788355833
H         6.51987784067000    1.41000254433638    2.89804952198299
H         7.74028812013601    4.10573005691855    2.20933901872120
H         7.12931232610951    2.30079412533192    0.03522568213483
H         6.12626461407036    0.92131224510778    0.48914547947668
H         7.86101417046436    0.91518989383869    0.87250783578113
11
Properties=species:S:1:pos:R:3 energy:=T -17.573979748044=T gnorm:=T 0.000524773593=T xtb:=T 6.2.3=T (830e466)=T pbc="F F F"
C        6.54875977       2.20191067       2.23041878
C        7.27973261       1.24346155       1.28431973
C        7.65144589       3.20014461       1.82904974
O        5.23880754       2.48615499       1.84001625
O        8.34474321       2.18037366       1.10884889
H        4.89490906       3.21646421       2.36602028
H        6.59486728       1.90341349       3.28534202
H        8.25581019       3.62175425       2.63497321
H        7.29936271       3.99446779       1.16289206
H        6.72965328       1.07093741       0.35558276
H        7.62280846       0.29742737       1.70565627
