11
 energy: -17.577955452840 gnorm: 0.000886263062 xtb: 6.2.3 (830e466)
C         6.80770829590550    2.19089663157289    2.23459707696651
C         6.88731299293169    1.72969418392258    0.77541738462033
C         7.94378257824834    3.14422046138770    2.53713882157798
O         5.60333481995884    2.85732286298077    2.53339776658868
O         9.10524131175954    2.88797577292145    2.39923875067637
H         4.86165391594264    2.30751108542489    2.25774847034566
H         6.93356465363795    1.31343342455781    2.89362476521595
H         7.58933922670393    4.12355106282571    2.90454189404961
H         6.71054293216477    2.57463175819998    0.11335560879231
H         7.87609246965405    1.32557151639603    0.57812053359944
H         6.14231680309272    0.96168123981019    0.57570892756716
11
Properties=species:S:1:pos:R:3 energy:=T -17.515776069665=T gnorm:=T 0.000878180067=T xtb:=T 6.2.3=T (830e466)=T pbc="F F F"
C        7.24713024       2.05234874       2.08348873
C        7.43646777       1.49592038       0.72866974
C        8.25744086       3.00615013       2.61110998
O        6.49056724       2.47533837       0.98623782
O        8.72801461       2.95482098       3.71100467
H        3.54626724       2.92233368       2.41634784
H        6.72683980       1.44989626       2.82355032
H        8.54643855       3.78139030       1.87745749
H        4.12619953       2.97360574       1.89882082
H        8.29674787       1.80344387       0.14426065
H        7.05877629       0.50124156       0.52194194
