11
 energy: -17.576757253831 gnorm: 0.000486469027 xtb: 6.2.3 (830e466)
C         6.88802424964908    2.74225833564123    1.93768748564292
C         7.44402369998115    2.16594522709082    0.63120565528524
C         7.05591208928546    1.68891298831925    3.01299140135166
O         5.53258535464156    3.06586394299296    1.72662318628999
O         8.06619587804620    1.48170078157013    3.62105441050127
H         5.15983400810536    3.45083059599261    2.52682748746141
H         7.46954947449362    3.63579414839490    2.21416681751287
H         6.13707098620662    1.09170644496758    3.18076327737486
H         6.88278046514292    1.27636484069826    0.35771757889326
H         7.33227252755606    2.90311714561936   -0.15859025906584
H         8.49317126689199    1.91392554871285    0.75266295875234
11
Properties=species:S:1:pos:R:3 energy:=T -17.587432900145=T gnorm:=T 0.000583636180=T xtb:=T 6.2.3=T (830e466)=T pbc="F F F"
C        6.43458341       2.64662825       2.71795969
C        7.69860292       1.83993250       0.65720838
C        7.66053939       1.94192917       2.14922232
O        5.55992226       3.06193933       1.69794926
O        8.51435144       1.51284771       2.88267715
H        4.79520402       3.49140968       2.09416951
H        6.79294925       3.50041543       3.31238245
H        5.94311462       1.94618200       3.40903886
H        6.82060838       1.29573371       0.31809476
H        7.63539327       2.83873719       0.23228284
H        8.60615105       1.34066504       0.33212479
