11
 energy: -17.576758044608 gnorm: 0.000206431763 xtb: 6.2.3 (830e466)
C         6.56684401582959    2.35834602282168    2.04678773244766
C         6.92925051501971    1.39668615695647    0.91016626314714
C         7.86070800662593    2.82835768058454    2.67856049016276
O         5.83500375655264    3.42792489933144    1.49221256898708
O         8.47471664711336    2.23211413054238    3.51591515826013
H         5.57713452127595    4.04225220567234    2.18756016894193
H         5.97093808369147    1.81956653000030    2.79999026931617
H         8.21560901474629    3.79431715133818    2.26622056947491
H         6.01693421101099    1.06304513666062    0.42407772080903
H         7.54427428621597    1.91255136095472    0.17737081472725
H         7.46959694191812    0.54123872513734    1.30422824372595
11
Properties=species:S:1:pos:R:3 energy:=T -17.571359347581=T gnorm:=T 0.000719163343=T xtb:=T 6.2.3=T (830e466)=T pbc="F F F"
C        6.40257673       2.84057422       2.38913707
C        6.81711577       1.52925243       0.48137098
C        7.77562071       2.92981127       3.01378709
O        6.42832338       2.78565670       0.98718169
O        8.01796077       2.73578963       4.17031271
H        5.86748322       3.76194987       2.64866201
H        5.84914117       1.99310474       2.82113425
H        8.56082056       3.22535164       2.29033114
H        6.11398964       0.74666746       0.79039407
H        6.80525521       1.61911585      -0.60238285
H        7.82272282       1.24912618       0.81316185
