13
 energy: -23.799766439866 gnorm: 0.000709103324 xtb: 6.2.3 (830e466)
C        10.63758485726056    1.84291098017757    1.95149371782051
C         9.09814995071874    2.83013388966606    3.53608593480981
C         9.76743937366289    1.00711428802139    1.05050148698118
C         8.69116511313593    0.34497982226322    1.43446050637133
O        10.14098726119001    2.02408957968653    3.27040869620790
O         8.43206770158775    3.34221721608067    2.49556718270723
O         8.80065512779889    3.07097181789497    4.66150067559249
H         8.63393088557970    2.91029648040811    1.65261200883647
H        11.59727958607586    1.33491857885107    2.09551082781862
H        10.84684081641778    2.81704958030158    1.48389608955733
H        10.11862390738112    0.96857465339518    0.02793066586016
H         8.34585689969227    0.35847803583456    2.45600351982759
H         8.11912851949834   -0.24944492258091    0.74423868760940
13
Properties=species:S:1:pos:R:3 energy:=T -23.812980091075=T gnorm:=T 0.000855767361=T xtb:=T 6.2.3=T (830e466)=T pbc="F F F"
C       10.98733025       1.40300132       1.14263852
C        8.93176572       2.73915332       3.75557261
C        9.70610932       1.34854084       1.91926394
C        8.58603945       0.78550704       1.48162996
O        9.83241109       1.91410017       3.17874184
O        7.95175959       3.20357776       2.98223900
O        9.06134099       3.05390772       4.89306651
H        7.99659197       2.87156820       2.06947831
H       11.75563580       1.87897135       1.74505309
H       10.85415140       1.96812010       0.22167599
H       11.31388254       0.39917677       0.88128286
H        7.69395656       0.70765374       2.07977315
H        8.55873533       0.32901166       0.50979422
