13
 energy: -23.797140758383 gnorm: 0.000747231465 xtb: 6.2.3 (830e466)
C         9.80539020073804    2.22049654152208    1.48971270008946
C        10.24082932804735    2.83716496261395    3.80941998891624
C         9.07389855999594    0.90974937678331    1.59153757525239
C         8.99830132787417    0.03883473315129    0.60367071321429
O        10.67141210911134    2.45957036569555    2.59612856433208
O         8.92489340798334    3.00810883574672    3.98590524773764
O        11.01975143813529    3.01896798157565    4.68853464897736
H         8.38593020246064    2.81487934936900    3.20694671226565
H        10.47156543532997    2.21194231139339    0.62358292799471
H         9.09952957455518    3.05736799835898    1.35998639280075
H         8.61548606558881    0.69073886437504    2.54784766521623
H         8.46186851470146   -0.88739578655241    0.70879352296617
H         9.46092383547859    0.22188446596742   -0.35157665976296
13
Properties=species:S:1:pos:R:3 energy:=T -23.776279818859=T gnorm:=T 0.000516262147=T xtb:=T 6.2.3=T (830e466)=T pbc="F F F"
C        9.29222436       2.07658022       2.02562926
C       11.13086702       3.04274636       3.17711322
C        8.80052457       0.67237797       1.81472033
C        8.83653109       0.05005825       0.65281163
O       10.30506199       2.00716360       3.03486447
O        8.28940361       2.95306469       2.41069511
O       11.95601321       3.10379876       4.03039081
H        7.82953777       2.59738069       3.18300346
H       10.96922130       3.83661311       2.41790594
H        9.71702187       2.49654444       1.10333214
H        8.40303953       0.20101752       2.70249480
H        8.46334803      -0.95277352       0.53845780
H        9.23698564       0.51773789      -0.23092895
