13
 energy: -23.800190949284 gnorm: 0.000886355121 xtb: 6.2.3 (830e466)
C        10.48560339273760    1.87669007933201    1.76156151880711
C         9.55445672433101    3.06494640614374    3.66118402846013
C         9.57864278316654    0.67870940890934    1.71164517400164
C         8.64767028534814    0.49178328969851    0.79226747756075
O        10.59097319726484    2.44786518066709    3.06515571337819
O         8.37233348448950    3.03054012535344    3.03969052682868
O         9.71013571425065    3.62008256668711    4.70080684638582
H         8.33638364383139    2.41975105487092    2.28724500453354
H        11.51151321585542    1.56795683358325    1.53585630959085
H        10.18367322296054    2.63920863429439    1.03084946567838
H         9.74539223370500   -0.04430968569097    2.49840319270338
H         8.03569129283962   -0.39285495611395    0.77800036953658
H         8.47723080921976    1.20192106226509   -0.00245562746504
13
Properties=species:S:1:pos:R:3 energy:=T -23.771073161140=T gnorm:=T 0.000563208415=T xtb:=T 6.2.3=T (830e466)=T pbc="F F F"
C       10.15866083       2.14405260       2.13901377
C        9.35784962       2.87064169       3.24762153
C        9.51749121       0.81189021       1.86811867
C        8.62428408       0.59394107       0.91748151
O       11.48418043       2.03924421       2.58086848
O        8.05099301       2.99785582       2.96712717
O        9.83606298       3.29653001       4.24803800
H        7.79687681       2.53929497       2.15211347
H       11.98921034       1.50649335       1.95659806
H       10.09369498       2.78817133       1.24111540
H        9.82362271       0.02547876       2.54365114
H        8.17326413      -0.37290748       0.77798466
H        8.32350886       1.36160348       0.22047812
