13
 energy: -23.800190939548 gnorm: 0.000894498018 xtb: 6.2.3 (830e466)
C        10.36848812460349    2.20683307620165    1.72753384997374
C         9.28569959462293    2.87159320137362    3.79471157010298
C         9.86239715223896    0.79790911748122    1.58957859565214
C         8.95709752093867    0.41897494305236    0.70428297446196
O        10.40605258529463    2.66057885437973    3.08008481856736
O         8.12086228016718    2.53255187781559    3.23519406329515
O         9.35382089776992    3.34983288730587    4.88093557715443
H         8.20723772242356    2.01207840131568    2.42145334837241
H        11.41711585550443    2.25058810786071    1.41573614829747
H         9.79146846965017    2.90323974336441    1.10415372985589
H        10.30378744341329    0.09219934627482    2.28001460430932
H         8.51541458944251    1.11207710781347    0.00466502705255
H         8.64014776393018   -0.60574666423914    0.62185569290464
13
Properties=species:S:1:pos:R:3 energy:=T -23.780462527615=T gnorm:=T 0.000903182799=T xtb:=T 6.2.3=T (830e466)=T pbc="F F F"
C       10.06525459       2.21475602       1.72079963
C       10.38482913       2.18283171       4.07748390
C        8.77448153       1.54521441       1.28550863
C        8.75043039       0.44761194       0.54287208
O        9.90235480       2.80334047       3.00491233
O        7.63931639       2.16546751       1.68973027
O       10.22029248       2.58299579       5.18476613
H        7.86359813       2.87229624       2.31202300
H       10.89024607       1.49541309       1.72154696
H       10.30522477       3.03776091       1.03766213
H       10.96030797       1.26386352       3.83106401
H        7.81701833       0.01836968       0.23241956
H        9.65623542      -0.02721128       0.21941136
