13
 energy: -23.800190907342 gnorm: 0.000904768553 xtb: 6.2.3 (830e466)
C        10.47864812583321    1.89011226847090    1.74536691914889
C         9.57492743187728    3.03534984655245    3.68425339935623
C         9.57962027665386    0.68640492650859    1.68992162567314
C         8.63285650744077    0.50959027687600    0.78477524454526
O        10.60449176437905    2.43761183944627    3.05726330227422
O         8.38153925500954    3.00352925257124    3.08453911875827
O         9.74618882415044    3.57201568248017    4.73110976113827
H         8.33583868278360    2.40678032142734    2.32142766507755
H        11.50232241480891    1.59346227346559    1.49468461124786
H        10.15743581350843    2.66382105888257    1.03491779235600
H         9.76641266333876   -0.04987977213672    2.45969655329727
H         8.02716860036873   -0.37926685152616    0.76532628258837
H         8.44234963984734    1.23309887698182    0.00682772453861
13
Properties=species:S:1:pos:R:3 energy:=T -23.721169341823=T gnorm:=T 0.000776584622=T xtb:=T 6.2.3=T (830e466)=T pbc="F F F"
C       10.73206907       2.35580886       1.66177693
C        9.53268100       2.85074064       3.71954812
C        9.70223745       1.64140452       0.92258666
C        8.81460657       1.05362809       0.37247796
O       10.57734893       2.28962913       3.08000201
O        8.51813258       3.29464569       2.97444190
O        9.54349403       2.94014664       4.90419924
H        8.53905353       2.99137971       2.05207869
H       11.70487105       1.89008194       1.47592600
H       10.77066897       3.40488562       1.33119633
H        8.55360620      -1.00753302       2.11811504
H        8.17383251      -1.63044671       2.39273149
H        8.06719813       0.52825889      -0.14497039
