13
 energy: -23.811001053004 gnorm: 0.000185701807 xtb: 6.2.3 (830e466)
C        10.44653058113939    1.70222914446478    2.14505984500127
C         8.77976380399212    3.16887234273183    2.96672153958360
C         9.73882243536150    0.50828437327148    1.57916221981444
C         9.37721450427283    0.40281547508353    0.31547292356363
O         9.71994314403407    2.25111299673870    3.25358042911872
O         8.16095534925643    3.55188550217487    4.08182439743691
O         8.53506191090761    3.59752263037357    1.88436546320027
H         8.51517373133831    3.08121025831816    4.85042928260617
H        10.56983077993037    2.47635506266182    1.38234725263773
H        11.41785820969146    1.41925392994351    2.56062690848374
H         9.52132407622574   -0.27300531391573    2.29488120010224
H         8.86993733454517   -0.47003531417411   -0.05767541940671
H         9.57718413930501    1.18578891232765   -0.39649604214200
13
Properties=species:S:1:pos:R:3 energy:=T -23.776764918522=T gnorm:=T 0.000867175179=T xtb:=T 6.2.3=T (830e466)=T pbc="F F F"
C       10.88118261       1.67512548       2.04402500
C        8.78207590       3.00211118       2.59024852
C        9.39593144       1.86335470       1.83064953
C        8.68313828       1.09349926       1.01664839
O       11.14434295       0.78968093       3.10910362
O        7.52588930       2.81306500       3.02725674
O        9.35978064       4.03303598       2.78476634
H        7.19682969       1.92526092       2.83550225
H       11.35289678       1.32043599       1.11771959
H       11.32227967       2.63112372       2.33463599
H       10.81544957      -0.08787220       2.88133829
H        7.62525991       1.23163878       0.85349469
H        9.14454325       0.31183025       0.43491105
