10
 energy: -13.516890736585 gnorm: 0.000981769192 xtb: 6.2.3 (830e466)
C        -1.75717858724299   -0.27137460521593   -0.62084905812304
C        -1.40141047987865    1.14833196981717   -0.57680958831924
C        -1.98252936910085   -1.06513783665100    0.64019261962351
O        -0.46021391900560    0.16693378459015   -0.90276336290842
H        -2.30853073486598   -0.62467098927177   -1.49116136305440
H        -1.69440692670805    1.80694747300212   -1.38673571368582
H        -1.26065757259262    1.62970728891662    0.38515995330531
H        -1.70362748769246   -2.10464894522672    0.48248603523215
H        -3.03315303264757   -1.02208911972609    0.91949699330660
H        -1.37900189026524   -0.66318902023456    1.45018348462334
10
Properties=species:S:1:pos:R:3 energy:=T -13.520301682050=T gnorm:=T 0.000505126156=T xtb:=T 6.2.3=T (830e466)=T pbc="F F F"
C       -1.33659938      -0.01429657      -1.45497656
C       -1.53433902       0.48172763      -0.05325415
C       -2.07139343      -0.60713641       0.86961834
O       -0.41658932       0.26334852      -2.17031805
H       -2.15183468      -0.68040199      -1.80594012
H       -2.26019052       1.29930282      -0.11201528
H       -0.59573143       0.89201723       0.32281156
H       -1.35374346      -1.41946045       0.95783427
H       -3.00481109      -1.01145619       0.48383261
H       -2.25547767      -0.20283459       1.86160738
