12
 energy: -21.242425827524 gnorm: 0.000654782413 xtb: 6.2.3 (830e466)
C        -0.40542827515797   -0.06749172686536    0.37944197095303
N         0.75434878295718   -0.28678239005314   -0.43452997314534
O        -1.50047156854613   -0.41230807088345   -0.40538937793978
O        -0.53024052257108    1.23599974770793    0.87631669719178
H        -2.29953224306644   -0.40322579787514    0.13175736608956
H        -0.67760756749838    1.84628326252494    0.14111421805978
H        -0.32284716237200   -0.69844119487526    1.27865399948406
H         1.58872715139352    0.02841646488675    0.04504584180084
H         0.66344798775190    0.21113854287485   -1.31495756942152
C         0.84796576011292   -3.38933589164335   -1.02717962204484
N         0.97878861090874   -4.51391800216745   -1.15848329808875
H         0.73583904608672   -2.33952494363074   -0.90019025294173
12
Properties=species:S:1:pos:R:3 energy:=T -21.302487205629=T gnorm:=T 0.000312187007=T xtb:=T 6.2.3=T (830e466)=T pbc="F F F"
C        0.34470357      -0.40288871       0.34650566
N        1.37874729       0.47183848      -0.15353126
O       -1.86760463      -1.98981463      -0.78800968
O       -0.89962927       0.26266526       0.19350149
H       -1.98763530      -1.10291143      -0.39776490
H       -0.72381438       1.20577860       0.28418916
H        0.53994182      -0.56135523       1.42381226
H        2.28991174       0.10314604       0.08814389
H        1.32522152       0.50764984      -1.16793426
C       -0.58191618      -2.31331881      -0.74646817
N        0.40059291      -1.68625327      -0.27888037
H       -0.38552910      -3.28372615      -1.19196380
