12
 energy: -21.242608849757 gnorm: 0.000916219950 xtb: 6.2.3 (830e466)
C         0.69225522699147   -0.30738481091701   -0.05798437603563
N         1.72901278232852   -0.42396591866708    0.94126202412050
O        -0.25480317114824   -1.30091045021115    0.17102778750888
O         0.15394114885310    0.96591211484865   -0.00915307237585
H        -0.48486767018645   -1.30012112251587    1.11031245925727
H        -0.05512452005878    1.18450082696050    0.90907382378541
H         1.01902872408328   -0.44949985617054   -1.10136469212557
H         2.17296381586236   -1.33344224799559    0.89572575309576
H         2.43553080666573    0.28921738595138    0.80598700987156
C        -2.50448021822218   -2.03257607696493   -2.00218993767453
N        -3.36159694260919   -2.26550674574300   -2.71494272210952
H        -1.70885998256103   -1.81531309857469   -1.33596405731824
12
Properties=species:S:1:pos:R:3 energy:=T -21.243057842540=T gnorm:=T 0.000802145177=T xtb:=T 6.2.3=T (830e466)=T pbc="F F F"
C       -0.80756050      -0.72054874      -0.97729528
N        1.83048412      -1.04472035       0.90013384
O       -0.70692833      -1.62413738       0.06625029
O       -0.53899745       0.60250853      -0.57960543
H        0.20590301      -1.54897507       0.44792791
H       -1.15393620       0.84558902       0.12495382
H       -0.07958268      -0.92702612      -1.78439894
H        1.95756568      -0.99442802       1.90338374
H        1.91144269      -0.10587334       0.52468883
C       -2.15492588      -0.81999073      -1.55068712
N       -3.21254582      -0.84729644      -1.97984040
H        2.58208137      -1.60419136       0.51627873
