10
 energy: -13.520301676399 gnorm: 0.000501626292 xtb: 6.2.3 (830e466)
C        -2.13465905136247   -0.48515261798255    0.01504124964041
C        -1.93119463373568    0.95388693064925   -0.44703999032077
C        -0.83968277397140   -1.23675980603009    0.10499202913504
O        -0.67056843437912   -2.37723816284417   -0.22046120377241
H        -0.00929176702083   -0.63494736682266    0.52895752439582
H        -2.81997400430296   -1.01968798089453   -0.64477750672646
H        -2.56572509387494   -0.48645059539082    1.02148035708823
H        -1.24404341143093    1.47624999070002    0.21517832421370
H        -2.87882459210009    1.48622398587056   -0.44892061533563
H        -1.52314623782158    0.97597562274497   -1.45485016831792
10
Properties=species:S:1:pos:R:3 energy:=T -13.494585045921=T gnorm:=T 0.000455148483=T xtb:=T 6.2.3=T (830e466)=T pbc="F F F"
C       -2.66417438      -1.73794961       0.27465525
C       -1.13260725       1.59917026      -0.34954057
C       -1.50662576      -2.05708853      -0.19314986
O       -0.46379574      -2.35077447      -0.61302253
H       -0.68145123       1.19419598       0.54673241
H       -3.54482031      -1.80771830      -0.33253994
H       -2.77677693      -1.38773326       1.28126877
H       -0.82410886       2.62880808      -0.47509441
H       -2.21023846       1.55212607      -0.26490134
H       -0.81251107       1.01906378      -1.20480779
