12
 energy: -21.569100979990 gnorm: 0.000488726811 xtb: 6.2.3 (830e466)
C         0.84172391609302    1.22343126716869   -2.64341682906704
C         0.26771067622241    0.46156843973768   -1.44264914703950
C         1.30049057091710    0.34910511640275   -0.35115759371170
O         1.17798651097481    2.54510315844142   -2.31534058961308
O         2.24939145960390    2.53670332154752   -1.38097664415138
O         1.12937484197224    0.67658862764827    0.78909973083150
H         1.97340680740490    3.17476774391382   -0.70764521388719
H         1.71899749552074    0.69899781446905   -3.04267116120525
H         0.09396997803888    1.34142310750401   -3.43042993688702
H         2.25588375241776   -0.09437868166052   -0.68975261151826
H        -0.00310579183574   -0.54512223972251   -1.76431670500557
H        -0.61673021733007    0.97141232454981   -1.05653329874531
12
Properties=species:S:1:pos:R:3 6.2.3=T gnorm:=T pbc="F F F" energy:=T -21.670570158448=T xtb:=T 830e466=T 0.000776846523=T
C       1.24148241       0.95572948      -2.52181497 
C       0.58273627       0.82501603      -1.13519931 
C       1.53490182       1.30282467      -0.05551889 
O       0.33843598       0.69256834      -3.56290420 
O       1.67973082       2.63682962       0.02006712 
O       2.14145505       0.57364807       0.67121713 
H       1.12769239       3.11106132      -0.61602140 
H       2.11363512       0.28999720      -2.57320583 
H       1.58320250       1.98169154      -2.69157809 
H       0.04713512      -0.22431094      -3.50786054 
H       0.33618923      -0.22050942      -0.94281153 
H      -0.33749671       1.41505409      -1.12015950 
