12
 energy: -21.512523995943 gnorm: 0.000567924527 xtb: 6.2.3 (830e466)
C         0.12093138681216    1.48052442824637   -2.67719076108110
C        -0.78984889984866    1.16350938800859   -1.77798714091165
C         2.69556894349763   -0.24852971267699   -0.51868266085425
O         1.24567929298806    2.22216599273887   -2.50768303497387
O         1.42276087227361    2.68412142718503   -1.17320565652748
O         3.34686727740540   -0.98930136613841    0.15331320204108
H         1.85546847689253    3.53899856513855   -1.30237143973560
H         3.12623663924704    0.33651702490124   -1.34734217086022
H         0.09885371879532    1.17760775843606   -3.71467984582376
H         1.61633724000117   -0.09078620585842   -0.36287276204269
H        -1.63927492699322    0.56703015126535   -2.04758860108132
H        -0.71027002107308    1.49836254875670   -0.75950912814989
12
Properties=species:S:1:pos:R:3 6.2.3=T gnorm:=T -21.502531525107=T pbc="F F F" 0.000889515696=T energy:=T xtb:=T 830e466=T
C       0.65486795       0.93634276      -0.98715697 
C      -0.67682011       1.01878729      -0.97097387 
C       1.37097959      -0.29398052      -0.58066100 
O       1.51090851       1.91431648      -1.36506128 
O       0.85301397       3.09992819      -1.79084423 
O       2.55865744      -0.45861886      -0.59687158 
H       1.59866670       3.64063682      -2.08611431 
H       3.17558650       1.13910621      -3.36274261 
H       3.12730585       1.32782607      -4.11749581 
H       0.67126024      -1.08358517      -0.24817736 
H      -1.27132252       0.18349491      -0.65388937 
H      -1.18379412       1.91596582      -1.27581161 
