12
 energy: -21.559920265679 gnorm: 0.000551259086 xtb: 6.2.3 (830e466)
C         2.21464762443471    1.60964163760091   -1.91985192124956
C         0.93939209226506   -0.31369737474475   -1.28490327240063
C         0.12166190450635    0.25445290029535   -0.41750404835956
O         1.46161834857751    2.46072615806129   -2.72264723037983
O         1.91253393012024    0.25388921709675   -2.05809302469217
O         0.25963494788444    2.86971517906491   -2.06974204671335
H        -0.36303633449320    2.96580933966310   -2.80240031244103
H         2.16691540759293    1.92915333207468   -0.86914848943994
H         3.23164043630889    1.72638454860287   -2.31104195636878
H         0.92693995034416   -1.37742302210698   -1.47991022967254
H        -0.58053451136999   -0.35043288315301    0.12448704720750
H         0.09779620382887    1.31179096754489   -0.22515451549014
12
Properties=species:S:1:pos:R:3 energy:=T -21.429546080161=T gnorm:=T 0.000676249424=T xtb:=T 6.2.3=T (830e466)=T pbc="F F F"
C        2.30533538       1.35985565      -2.36841833
C        1.10019720      -0.29489866      -1.20365953
C        0.02344646       0.41555445      -0.91171077
O       -0.25363450       2.94736932      -1.39026625
O        2.19260963       0.02885195      -1.90053881
O       -0.29907695       3.62142992      -0.34249194
H        1.49294376       1.60321987      -3.05785458
H        2.29634214       2.06986604      -1.53849446
H        3.25936104       1.41530110      -2.88803232
H        1.16333825      -1.32935469      -0.87690426
H       -0.77806433       0.04178120      -0.30526530
H       -0.11358808       1.46103384      -1.25227345
