12
 energy: -21.561956337238 gnorm: 0.000617885626 xtb: 6.2.3 (830e466)
C         1.81691537918398    1.27589537821962   -2.41676092516113
C         0.96279840829897    0.05137204251754   -0.57724368743473
C        -0.30372505879206    0.05990505467541   -0.95212735056284
O         1.01356664796680    2.41382919310802   -2.36437737964837
O         2.02765216189257    0.65738795849312   -1.18263473952614
O         1.72243619906084    3.51695970225198   -1.83574436908073
H         1.43436044812846    3.57860365088014   -0.91185374989110
H         2.81523281999529    1.51862800349126   -2.79903790911664
H         1.28443316530562    0.61335652608832   -3.11351913596457
H         1.30876681914789   -0.46487457100427    0.30741882037032
H        -0.65857221249170    0.59288696185578   -1.81553345521139
H        -1.03447477769668   -0.47404990057756   -0.37457611877325
12
Properties=species:S:1:pos:R:3 energy:=T -21.568752747045=T gnorm:=T 0.000640046351=T xtb:=T 6.2.3=T (830e466)=T pbc="F F F"
C        1.39680123       1.36648235      -2.19664935
C        1.13569496      -0.68434116      -0.76089236
C        0.52664739       0.61392929      -1.18924575
O        0.84814574       2.60315983      -2.57176693
O        2.18971526      -1.11841029      -1.13068124
O        0.85389707       3.49502381      -1.45830305
H        1.14606770       4.32839887      -1.84947786
H        2.40644877       1.49706577      -1.78799200
H        1.46165162       0.82235124      -3.14157722
H        0.50806929      -1.24265275      -0.03739680
H       -0.46390102       0.41987328      -1.60858099
H        0.38015198       1.23901976      -0.30342645
