12
 energy: -21.562603201446 gnorm: 0.000584115297 xtb: 6.2.3 (830e466)
C         1.84267556831091    1.47744139676977   -2.14679216069771
C         1.10892654225452    0.75367424261402   -1.06032826460980
C         0.60755640234194   -0.46435401918526   -1.20410845685602
O         1.08928542589202    2.51481238869244   -2.73757889689779
O         0.89411150544269    3.56632275329950   -1.78677761554538
O        -0.07511943914699   -1.15682617373783   -0.26618588671162
H         0.58795920411571    4.28804974098988   -2.35005354551069
H         2.78580896968746    1.88911769573156   -1.76188027412029
H         2.04475847003111    0.81795758664015   -2.99379917149144
H         0.72625859772767   -1.04164643560136   -2.10940497723765
H        -0.18296978488616   -0.61518025509553    0.52620805020713
H         0.95974853822908    1.31022107888275   -0.14510880052872
12
Properties=species:S:1:pos:R:3 6.2.3=T gnorm:=T 0.000448914460=T pbc="F F F" -21.573115887166=T energy:=T xtb:=T 830e466=T
C       2.44282477       0.23444754      -2.27824424 
C       1.38486828       0.33495300      -1.23083101 
C       0.45434627       1.28430530      -1.20949625 
O       0.33971903       2.19084862      -2.21541028 
O       0.05911099       3.49996261      -1.74633910 
O      -0.51908025       1.41861676      -0.25358316 
H      -0.85534464       3.45362707      -1.42563534 
H       3.41586896       0.08403967      -1.81328726 
H       2.46233177       1.14033042      -2.87638510 
H       2.25125386      -0.61287551      -2.93643815 
H      -0.40221987       0.75091131       0.42787695 
H       1.35532084      -0.43957680      -0.47803706 
