12
 energy: -21.564394745320 gnorm: 0.000258277073 xtb: 6.2.3 (830e466)
C         1.64737538858084    1.77534674975375   -1.29315418543028
C         1.51294354371048    0.43249814197829   -0.62996314004057
C         0.47748026152576   -0.39243324995950   -0.74482799660914
O         0.90293734781382    1.77011733996180   -2.50134719732093
O         0.90920322377959    3.05723049566567   -3.09524645307234
O        -0.62737833376315   -0.21949608538317   -1.48758859647597
H         1.34841573290216    2.92245624641131   -3.94669394942819
H         1.26669407401880    2.57334510853870   -0.63784845790690
H         2.70423360383016    1.98488580962979   -1.50755280094100
H         0.45529548262923   -1.33273564387724   -0.21090789432374
H        -0.54384835994251    0.60829781388448   -1.98893794526700
H         2.33594803491480    0.16036727339617    0.00827861681610
12
Properties=species:S:1:pos:R:3 0.000770879143=T 6.2.3=T gnorm:=T -21.465860720179=T pbc="F F F" energy:=T xtb:=T 830e466=T
C       1.67594205       1.84857483      -0.92095137 
C       1.63648271       0.43227518      -0.42397988 
C       0.56124596      -0.30467359      -0.67443051 
O       0.36512459       2.26229636      -1.28336096 
O      -0.19708113       1.30642771      -2.12465583 
O      -0.50461816       0.13605397      -1.40051416 
H       1.11272332       2.36169491      -4.78913459 
H       1.96147806       2.54246926      -0.12764729 
H       2.36528722       1.96303546      -1.76969010 
H       0.38413044      -1.30899537      -0.32605278 
H       0.56165138       2.04414590      -4.33753658 
H       2.46693355       0.05657538       0.14216403 
