12
 energy: -21.617360077609 gnorm: 0.000793893317 xtb: 6.2.3 (830e466)
C         1.06925616150690    0.93364065911213   -2.75851862198694
C         0.62197838656421    0.52559896381427   -1.38546494022892
C         1.22779818505389   -0.77733244155876   -0.93276509201418
O         1.25289701447169    2.06938689849337   -3.10419182157337
O         1.13599585004910    3.54888346870916   -0.66182078937866
O         1.74254550754329   -1.59249569274806   -1.64076828349444
H         1.19334936749359    3.32142681713601   -1.60170880658000
H         1.42938096013321    4.45723251086300   -0.57970513223040
H         1.22506683173111    0.08898575880250   -3.44965225540748
H         1.14561032679760   -0.93098000550146    0.15971951731105
H        -0.46257549852580    0.37351703550663   -1.42087306597878
H         0.80798690718177    1.32212602737137   -0.66005070843755
12
Properties=species:S:1:pos:R:3 0.000935302010=T 6.2.3=T -21.580586661725=T pbc="F F F" energy:=T xtb:=T 830e466=T gnorm:=T
C       1.02365896       1.21055364      -2.85772659 
C       0.16185648       0.69007420      -1.72353643 
C       1.05235480      -0.14861636      -0.81116845 
O       1.16193360       2.38521021      -3.05012965 
O      -0.45785809       1.72605102      -1.03138861 
O       1.61646251      -1.14579406      -1.14825464 
H      -0.13255912       2.56324547      -1.40615980 
H       3.03621319       2.42380464      -0.59241151 
H       1.51562364       0.42866852      -3.45357558 
H       1.11818010       0.27621912       0.20523712 
H      -0.59165180       0.01439204      -2.15804655 
H       2.88507571       2.91618155      -0.00863931 
