12
 energy: -21.559927047269 gnorm: 0.000443882256 xtb: 6.2.3 (830e466)
C         2.14317186130376    1.25411865235302   -2.26638116752855
C         0.81267131361027   -0.15611448812794   -0.86214953286818
C         0.29680193860836    0.76589947191374   -0.06941041420208
O         1.33763242942459    1.99344764822406   -3.12762586405856
O         1.64441613749301   -0.00786406982705   -1.93586504176867
O         0.39123426303808    2.78753191757267   -2.41466028227890
H        -0.40803913952424    2.71565906359397   -2.95318668219380
H         2.38678856355858    1.83954285780465   -1.36873968627888
H         3.04492906129272    1.06697728117421   -2.85997589418138
H         0.61873332907005   -1.21133857611324   -0.72456762267410
H         0.45430535913365    1.82115417955601   -0.20146006617000
H        -0.33334511700893    0.47079606187578    0.74813225420311
12
Properties=species:S:1:pos:R:3 energy:=T -21.644084865818=T gnorm:=T 0.000462624009=T xtb:=T 6.2.3=T (830e466)=T pbc="F F F"
C        2.18476055       1.27436953      -2.23051898
C        0.75734702       0.03110683      -0.76549740
C       -0.05919037       0.96766161      -0.29297563
O        1.30228290       2.09304752      -2.95419616
O        1.62858336       0.06027120      -1.85036463
O       -0.27940090       2.23291445      -0.71226708
H        0.18424261       2.39925091      -1.55427321
H        2.50331718       1.87104796      -1.36523955
H        3.05796787       1.01407937      -2.84414837
H        0.77903858      -0.94434485      -0.30884664
H        0.98922125       1.61270358      -3.73101356
H       -0.65887004       0.72770191       0.57345120
