12
 energy: -21.561956910833 gnorm: 0.000787677838 xtb: 6.2.3 (830e466)
C         2.19785709461565    1.23226061560603   -1.81319434719882
C         0.21978302140191   -0.04255205391636   -1.54169783632661
C        -0.04840736567210    0.33965258013629   -0.30603803000479
O         1.73721283530717    2.50653321815269   -1.48527028948344
O         1.22864175561642    0.38697459572228   -2.35786132380449
O         1.57479050067232    3.30666116193234   -2.63893341305635
H         0.62588582922646    3.26973860254520   -2.83615668272818
H         2.58114032164657    0.84146574905995   -0.86032094956913
H         2.99725423236712    1.28535382914963   -2.56115008891292
H        -0.37102077388734   -0.77790317007693   -2.07013747985609
H         0.52216650889933    1.08804025673502    0.21400022536130
H        -0.87589396019366   -0.09642538504593    0.22096021557926
12
Properties=species:S:1:pos:R:3 energy:=T -21.558397904762=T gnorm:=T 0.000728169923=T xtb:=T 6.2.3=T (830e466)=T pbc="F F F"
C        2.64920481       0.54028218      -1.25450400
C        0.37223851      -0.08228859      -1.39354237
C       -0.18566543       1.12509818      -1.49993406
O        0.48169685       2.31407951      -1.38130873
O        1.64698277      -0.45119494      -1.16865717
O        0.08686889       3.21319556      -2.43576457
H        0.11020491       4.07376191      -1.99890530
H        3.58752562       0.03649443      -1.02777780
H        2.69420309       0.96790760      -2.25930485
H       -0.27433028      -0.94811722      -1.40491357
H        2.47027993       1.34326727      -0.53479047
H       -1.24979966       1.20731410      -1.67639710
