12
 energy: -21.530392488480 gnorm: 0.000423099642 xtb: 6.2.3 (830e466)
C         1.15407641326805    1.16479885068474   -2.73981481196474
C         0.51511957124525    0.40350361545136   -1.57239126416815
C         0.72435565227094    1.24005091797331   -0.30466775470102
O         2.49460540304928    1.49947250315759   -2.41790488963222
O         2.50061419590141    2.31589326258405   -1.28111647467421
O         2.09760798885536    1.56899395705451   -0.16819460784170
H         0.12082004045535    2.15687055979191   -0.34327120566646
H         1.23766654811016    0.55001395933682   -3.63649442302195
H         0.58344790938292    2.07585577351227   -2.96489745553343
H         0.48977896783654    0.68098289260956    0.60164280869466
H         1.01653718724133   -0.55835517001326   -1.45418420905064
H        -0.54523987761661    0.24192887785714   -1.75451571244014
12
Properties=species:S:1:pos:R:3 6.2.3=T gnorm:=T pbc="F F F" 0.000877189676=T energy:=T xtb:=T 830e466=T -21.490104118923=T
C       1.76796293       0.11471626      -2.64272085 
C       0.46987135      -0.04835933      -2.80924162 
C       0.68681471       2.07300736       0.07998570 
O       2.44815671       1.23726800      -2.27935828 
O       1.63895729       2.36959412      -2.02811419 
O       1.69011364       2.70948868      -0.68583396 
H       0.82458143       2.48257768       1.07840194 
H       2.50598453      -0.66188428      -2.79111183 
H      -0.31205801       2.31809701      -0.28937045 
H       0.82162080       0.98706460       0.10309781 
H       0.07426212      -0.99992859      -3.10597689 
H      -0.22687749       0.75836850      -2.66556738 
