12
 energy: -21.522099687672 gnorm: 0.000400671156 xtb: 6.2.3 (830e466)
C         1.28431963427096    0.97714863395069   -2.73440661677589
C         0.26359666832005    0.87267999555531   -1.60050861572873
C         0.99950785754330    0.88362004347272   -0.26004944423324
O         2.23063672994905    2.02269210696534   -2.47647952068920
O         1.85979736718375    2.75106324222240   -1.34577236252497
O         1.97070174631637    1.93728653526912   -0.21793947755088
H         0.30017760480677    1.02443089337195    0.57104887658243
H         1.86536442772216    0.05181290980210   -2.81824193014117
H         0.79060301232573    1.18544505456370   -3.68963993999951
H         1.55426680453556   -0.05035111947838   -0.11573534435975
H        -0.31429367537244   -0.04323861212157   -1.70164829442609
H        -0.41518817760127    1.72731031642661   -1.64633733015300
12
Properties=species:S:1:pos:R:3 -21.490103102019=T 6.2.3=T gnorm:=T 0.000660036665=T pbc="F F F" energy:=T xtb:=T 830e466=T
C       0.78475334       1.41521096      -3.13714430 
C      -0.40127682       1.11796990      -2.64255519 
C       1.81737034       0.56352895       0.11529032 
O       1.81672550       2.07836594      -2.54540132 
O       1.58349592       2.47048968      -1.20562505 
O       2.40852481       1.76326986      -0.34632757 
H       0.87524749       0.75828242       0.63340918 
H       1.65730134      -0.14764742      -0.70036023 
H       1.10652078       1.16618464      -4.13931517 
H       2.55063335       0.16520535       0.81302014 
H      -1.12206565       0.59078976      -3.23624256 
H      -0.68774042       1.39824996      -1.64445825 
