12
 energy: -21.579050433315 gnorm: 0.000733255843 xtb: 6.2.3 (830e466)
C         1.60366013442761    1.34203254551629   -2.47163610099124
C         0.19219485760213    0.14111028603138   -0.71085801128539
C         1.37556554461138    0.08714293787389   -1.62476778566804
O         0.82793290872432    2.45877162266229   -2.12859227144690
O         1.25855893608720    2.99569453156856   -0.88101575032289
O         2.11723902616456   -0.85501274265990   -1.72829064038634
H         1.32009893851004    3.94492286960508   -1.05679915153477
H         2.67515039758429    1.58213549586582   -2.46943783984567
H         1.30061926835808    1.12170663141107   -3.50048494471834
H         0.36666660501491    0.91270040005846    0.03777363567672
H         0.04412690393674   -0.81926625647563   -0.22620343336281
H        -0.69260352102124    0.42786167854263   -1.27548770611438
12
Properties=species:S:1:pos:R:3 6.2.3=T gnorm:=T -21.633611661645=T pbc="F F F" energy:=T xtb:=T 830e466=T 0.000374867201=T
C       1.41582819       1.19775171      -2.74514465 
C       0.81245492       0.75542031      -0.26915545 
C       1.53828004       0.28591548      -1.52713867 
O       0.11866736       1.67033832      -3.01365726 
O       0.99080803       2.11228920       0.05559146 
O       2.16649783      -0.73735611      -1.55705714 
H       0.86875714       2.67437696      -0.71750943 
H       2.12431205       2.03230717      -2.59956699 
H       1.72824461       0.64380702      -3.63298170 
H       1.18390453       0.18608052       0.58554422 
H      -0.25677524       0.51199275      -0.40004922 
H      -0.30176947       2.00687667      -2.21467518 
