12
 energy: -21.522099734377 gnorm: 0.000396951716 xtb: 6.2.3 (830e466)
C         1.24455518557305    0.93761782353278   -2.73688563908015
C         0.24579722576729    0.92952559978339   -1.57893934173818
C         1.01173094434305    0.90801806732696   -0.25549714865158
O         2.27094375085038    1.91490745106578   -2.52087635085361
O         1.98349955218284    2.68667135223164   -1.39461621711443
O         2.06120763560736    1.88463068767080   -0.25573139263852
H         0.34481399762507    1.11673859492612    0.58789510843709
H         1.75365474419586   -0.02965966744101   -2.81517545601639
H         0.74530135489902    1.16461696975556   -3.68492919926336
H         1.49713565777161   -0.06285712514185   -0.10512372642714
H        -0.40114200417946    0.05803197353483   -1.65006826113893
H        -0.36809804463607    1.83183827275500   -1.62586237551480
12
Properties=species:S:1:pos:R:3 0.000390562792=T 6.2.3=T gnorm:=T -21.480899360813=T pbc="F F F" energy:=T xtb:=T 830e466=T
C       0.95987602       0.96396345      -2.50563769 
C      -0.07957871       1.11040341      -1.43554709 
C      -0.21875394       0.27206832      -0.42641976 
O       1.68189730       2.16564454      -2.74666488 
O       2.28923169       2.66666057      -1.59997062 
O       3.52330656       2.04862255      -1.37156969 
H      -0.97709687       0.40832875       0.32435693 
H       1.64765564       0.13756996      -2.27848221 
H       0.49424068       0.77998439      -3.47869534 
H       0.40875313      -0.59865959      -0.31813708 
H       3.36471515       1.39893338      -0.66745852 
H      -0.70484665       1.98656027      -1.53158407 
