12
 energy: -21.522099997116 gnorm: 0.000394801899 xtb: 6.2.3 (830e466)
C         1.17077318484507    1.30360167409114   -2.74452322383266
C         0.44821037561181    0.56138918169872   -1.61970260030131
C         0.69348188749246    1.29100484478184   -0.29819978863194
O         2.52142805331618    1.60794356780606   -2.37246629353596
O         2.83879177905049    1.01499237912141   -1.14989673369202
O         2.08210863553975    1.61011804930725   -0.14027394884049
H         0.15646873914981    2.24593751124186   -0.27768795941031
H         1.19227520868010    0.70400787350354   -3.66075967084841
H         0.68423728869970    2.26418126312686   -2.94853689235346
H         0.37945289234604    0.67769884443802    0.55326319011487
H         0.84050828437728   -0.45561132545104   -1.54868819384996
H        -0.61831632910869    0.51484613633435   -1.82812788481836
12
Properties=species:S:1:pos:R:3 -21.591717794776=T gnorm:=T pbc="F F F" energy:=T 0.000641142866=T xtb:=T 6.2.3=T 830e466=T
C       1.21368443       1.24086559      -2.83048404 
C       0.20966765       0.56103396      -1.87763299 
C       1.32119832       1.42398679      -0.02255497 
O       2.18580269       1.93518163      -2.06843324 
O       2.41452064       1.22118031      -0.86521460 
O       0.09273045       1.32748108      -0.69813707 
H       1.33720366       2.41612689       0.45077069 
H       1.68800784       0.49813702      -3.48391766 
H       0.73678876       2.01752290      -3.43117457 
H       1.42623872       0.63510556       0.74090887 
H       0.54979681      -0.45557064      -1.63425337 
H      -0.78621997       0.51905893      -2.31547706 
