12
 energy: -21.522099687596 gnorm: 0.000400691066 xtb: 6.2.3 (830e466)
C         1.37435511161997    1.09737405776624   -2.71987212859108
C         0.28466647870136    0.84966636731013   -1.67596711667083
C         0.92560458989163    0.77350196437562   -0.28963787941808
O         2.24868740474902    2.15537965565745   -2.30590352548992
O         1.76609453378435    2.76457635530919   -1.14723174661939
O         1.83897017877399    1.85985732923521   -0.08764712058794
H         0.16494198882660    0.81028595832002    0.49754217715303
H         2.00420228346427    0.20868186466320   -2.83988836799505
H         0.93766273458885    1.36807977001408   -3.68715397429002
H         1.51414518407556   -0.14501582725084   -0.18555192916226
H        -0.23954969146581   -0.07754991338505   -1.89633236440523
H        -0.43028079700978    1.67526241798475   -1.69795602392323
12
Properties=species:S:1:pos:R:3 6.2.3=T gnorm:=T pbc="F F F" -21.465813967641=T energy:=T xtb:=T 830e466=T 0.000206754209=T
C       1.36721366       1.03524477      -2.80165704 
C       1.17379344       0.02661162      -1.70659163 
C       1.52639085       0.35028347      -0.46859179 
O       2.24230514       2.06268372      -2.35486234 
O       1.80057586       2.53540819      -1.12212017 
O       2.02306042       1.57059443      -0.11906340 
H      -1.40074623       2.16689990      -0.53180022 
H       1.88741617       0.60060484      -3.65777310 
H       0.40959750       1.45994538      -3.13501310 
H       1.49241629      -0.29763281       0.39208748 
H       0.77614555      -0.93883194      -1.95404376 
H      -0.90866864       2.76828842      -0.57617093 
