12
 energy: -21.579050145307 gnorm: 0.000274189604 xtb: 6.2.3 (830e466)
C         1.74064926506862    1.31164005874566   -2.38560590847356
C         0.16476584746683    0.13256299783283   -0.75388751381080
C         1.48830740498434    0.12542632481693   -1.45138894578415
O         0.81292926453451    2.35983772077638   -2.30529090073582
O         0.96175560268762    3.05834063896354   -1.07214852026889
O         2.32294862074164   -0.73224516842695   -1.32444716731005
H         0.95333133553021    3.98687135323568   -1.34090049672349
H         2.76658581995029    1.67189245464260   -2.23324569528130
H         1.64708744916089    0.96107836028045   -3.41863508436684
H         0.14851456773446    0.96737684258007   -0.05448154421551
H        -0.63101319550395    0.29709138895418   -1.47697295668088
H         0.01333801764457   -0.80009297240134   -0.21889526634872
12
Properties=species:S:1:pos:R:3 6.2.3=T gnorm:=T pbc="F F F" energy:=T 0.000716738911=T -21.643002394135=T 830e466=T xtb:=T
C       1.62655085       1.18513341      -2.59076818 
C       0.74123163       0.93047528      -0.18288423 
C       1.50042661       0.31180947      -1.34299632 
O       0.43895458       1.88399046      -2.90529965 
O       0.66578966       2.32460738      -0.17661334 
O       1.95474411      -0.80236242      -1.29989803 
H       0.36238457       2.62355868      -1.04715644 
H       2.38415076       1.94877890      -2.38239362 
H       1.97230641       0.56922001      -3.42883106 
H       1.22330544       0.63009620       0.75126032 
H      -0.21580062       1.26075407      -3.23826422 
H      -0.26484399       0.47371856      -0.19205522 
