12
 energy: -21.638943130310 gnorm: 0.000749538720 xtb: 6.2.3 (830e466)
C         1.64777436571664    1.96343734453823   -2.21229802466895
C         0.18242245473252    0.38884325580347   -1.23726189155104
C         1.11040194836602   -0.70961830868298   -0.77639654561869
O         0.59625051449201    1.05618505457194   -2.40729154736565
O         1.25626886270393    3.07873041323807   -1.47439219163034
O         2.16733500103808   -0.99327698727197   -1.25716024419595
H         0.55741802056779    3.54367212338021   -1.95044487429316
H         2.47973924231516    1.51331985995892   -1.66059380084661
H         1.97720398562262    2.23536210742174   -3.22320822588920
H         0.70185076922864   -1.25197583176871    0.10153829960379
H        -0.79501608804003   -0.04994367203468   -1.46008611405102
H         0.05985092325661    1.09797464084575   -0.40340483949319
12
Properties=species:S:1:pos:R:3 6.2.3=T gnorm:=T pbc="F F F" energy:=T -21.516565480960=T xtb:=T 830e466=T 0.000691086715=T
C       1.83907265       2.61189999      -2.14896999 
C       0.29850812       0.44496132      -1.34910287 
C       1.09880198      -0.75388339      -0.92304739 
O       0.83210377       1.01276989      -2.51837873 
O       0.99341306       3.24442201      -1.29908326 
O       2.03246029      -1.15200422      -1.56267473 
H       0.38311227       3.79026985      -1.81587333 
H       2.56714449       2.10586339      -1.46917834 
H       1.57485906       0.44836934      -2.81018920 
H       0.76365166      -1.23204824       0.01058293 
H      -0.74380314       0.14831139      -1.52346456 
H       0.30217580       1.20377868      -0.55162052 
