12
 energy: -21.640690384467 gnorm: 0.000529938703 xtb: 6.2.3 (830e466)
C         1.53402411804358    2.44002365307239   -1.73512787389216
C         0.75549858861530    0.28407118615732   -2.27203528612157
C         0.56402932539576   -0.32412997214580   -0.90081240951815
O         0.51342345904491    1.67352379207235   -2.30986412538520
O         1.65616508111540    2.26415872834287   -0.36207746980284
O         1.09550124755369   -1.32543580301891   -0.51927610287748
H         0.85463196445675    2.57249796545373    0.07830384537025
H         2.51332010967596    2.16720393520014   -2.15393211749101
H         1.29121609113616    3.47837389269182   -1.99886470681132
H        -0.15934883256346    0.23140802023981   -0.27448966886371
H         0.01163148852322   -0.16583843445845   -2.93917973941426
H         1.75909735900266    0.04425303639275   -2.64844434519256
12
Properties=species:S:1:pos:R:3 6.2.3=T gnorm:=T pbc="F F F" energy:=T 0.000968799835=T 830e466=T xtb:=T -21.591172832351=T
C       2.48100236       2.96248490      -1.64386689 
C      -0.53805458      -0.36739439      -1.98082605 
C       0.35076921      -0.77283652      -0.81823072 
O      -0.58081019       0.74592964      -2.42625116 
O       1.48904066       2.21591707      -0.98362492 
O       0.40985018      -1.90557235      -0.42995754 
H       0.72606664       2.12196958      -1.57274665 
H       3.32923075       3.02839089      -0.96420609 
H       2.13464748       3.97489666      -1.87789876 
H       0.92873337       0.05879040      -0.38047177 
H      -1.14441139      -1.19517630      -2.38822004 
H       2.80312550       2.47271041      -2.56949941 
