12
 energy: -21.638944856631 gnorm: 0.000526903959 xtb: 6.2.3 (830e466)
C         1.40470484909784    1.87494878329695   -2.38404971581227
C         0.17863577400519    0.59272639428371   -0.82518448781413
C         1.00314190470176   -0.66539417520209   -0.69105582486586
O         0.21558768354978    1.18534370647389   -2.10337026962937
O         1.53862704651604    3.03374604144932   -1.62088164993843
O         1.71812316214301   -1.13612790179949   -1.52563213434393
H         0.80606886433015    3.62958643637741   -1.82052495381742
H         1.35658667692471    2.09388357803862   -3.45865282247826
H         2.29024172688767    1.26699345065342   -2.16926168733820
H         0.88355965827677   -1.13294327853695    0.30852314534549
H        -0.86917680144532    0.34671575740989   -0.62811127585190
H         0.51758945501239    1.30212120755531   -0.05409832345563
12
Properties=species:S:1:pos:R:3 6.2.3=T gnorm:=T pbc="F F F" energy:=T -21.518426400504=T xtb:=T 0.000674984706=T 830e466=T
C       2.34141284       4.00743912      -2.48785357 
C       0.23894796       0.39692440      -0.71271544 
C       0.61457100      -1.05713816      -0.63291352 
O       0.58176355       0.93443994      -1.96120716 
O       1.21304479       3.72138443      -1.97706500 
O       1.11216808      -1.63536719      -1.55900683 
H       0.86243677       2.79845607      -2.03878813 
H       0.93762096       0.19902391      -2.49238981 
H       2.83580233       3.13156187      -2.98207409 
H       0.39608250      -1.54339130       0.33050957 
H      -0.84343128       0.49089349      -0.54515397 
H       0.75327049       0.94737342       0.08635797 
