12
 energy: -21.533901033947 gnorm: 0.000667596090 xtb: 6.2.3 (830e466)
C         0.39340151746596    1.31042007139923   -3.16495763276580
C        -0.01858783744886    0.32337442019190   -2.39699155960562
C         1.90196704072655    0.55139594071600    0.12629258982303
O         2.42923789793304    1.58571095372270   -0.53901872220617
O         1.61577329859987    2.73632819795420   -0.48252141661903
O         2.45915350890779   -0.49480065974184    0.19011744209122
H         1.93042196670975    3.26116240595481   -1.23425964985644
H         1.30563430700586    1.24459520021466   -3.73579385125434
H        -0.16330308804778    2.22898390451438   -3.26120517172274
H         0.93309225058425    0.80147704646935    0.59373862608149
H         0.53522732126600   -0.59626316202200   -2.30157183812681
H        -0.93291818370267    0.38739568062643   -1.82962881583866
12
Properties=species:S:1:pos:R:3 6.2.3=T gnorm:=T -21.659733838833=T pbc="F F F" 0.000236191880=T energy:=T xtb:=T 830e466=T
C       0.72931250       1.83565729      -2.64012546 
C       0.50268232       0.48920987      -1.93372151 
C       1.77872711       0.32152548       0.05352298 
O       1.68129238       0.09645869      -1.25129399 
O       0.93964013       2.88063217      -1.72964371 
O       2.77628496       0.13575965       0.67637792 
H       1.78959576       2.75620217      -1.29023114 
H       1.57259996       1.73842048      -3.33494177 
H      -0.16994595       2.09685705      -3.20141120 
H       0.83474972       0.69680715       0.50885017 
H       0.28368138      -0.28833952      -2.66798968 
H      -0.32952028       0.58058951      -1.22519263 
