8
 energy: -12.461013243560 gnorm: 0.000105665264 xtb: 6.2.3 (830e466)
C         2.15662139631473    1.06184834284380   -1.70559770365901
C         1.29312038461133    0.09067375392207   -1.42716686097218
C         1.69132174940691   -1.08271165692009   -0.63647074387100
O         2.79135090301549   -1.27805071810038   -0.18830405764337
H         3.17261161632830    0.99619443973046   -1.34977101489099
H         1.88911160676894    1.93134530714826   -2.28137681488602
H         0.87309703988907   -1.81104916525023   -0.47160503222982
H         0.26777530366524    0.12123969662609   -1.76640777184763
8
Properties=species:S:1:pos:R:3 0.000319205677=T 6.2.3=T gnorm:=T pbc="F F F" energy:=T -12.379635449438=T xtb:=T 830e466=T
C       3.10693489       1.14026773      -0.93377902 
C       2.51704843       0.10449108      -0.77953256 
C       1.81383174      -1.12937919      -0.60284711 
O       2.08781984      -2.17085124      -1.13332005 
H       3.61312345       2.05281415      -1.06123152 
H       0.35841285       0.54730398      -2.51757621 
H       0.95933932      -1.02906873       0.09751235 
H      -0.32150053       0.51391222      -2.89592588 
