12
 energy: -21.566436964931 gnorm: 0.000779583586 xtb: 6.2.3 (830e466)
C         1.63675647310757    0.90127790698855   -2.62813058461343
C         1.19690284820034    1.11212359966095   -1.17788394192431
C         0.94145146193900   -0.20377601049754   -0.47443004346884
O         0.00964483938176    1.86347539048457   -1.05882531880331
O         0.29592413293967    3.23441630720026   -1.33894307644665
O         1.65699496533455   -1.15942627003788   -0.54567452230451
H        -0.58773882148898    3.61945013004059   -1.39601622236729
H         2.50022500434691    0.24312641432030   -2.64463930578113
H         1.89549347042648    1.85578074499197   -3.07844170875001
H         0.01483723122189   -0.19904812030254    0.12721852775485
H         0.82824883671103    0.44633863712345   -3.19555565391471
H         2.00025955787981    1.62636127002732   -0.62447814938068
12
Properties=species:S:1:pos:R:3 -21.627200339068=T 0.000899642325=T gnorm:=T pbc="F F F" energy:=T xtb:=T 6.2.3=T 830e466=T
C       0.71596511       1.73864575      -2.17866944 
C       1.60630572       0.85954200      -1.27502183 
C       0.71864889      -0.03779030      -0.43339455 
O       2.51385147       0.09098861      -2.01345062 
O       0.03343586       2.65500495      -1.35953117 
O       0.82178973      -1.21974286      -0.30916919 
H      -0.60431969       3.14392864      -1.88935018 
H       3.15174485       0.66715588      -2.44923019 
H       1.35924640       2.26326620      -2.90277786 
H      -0.06820258       0.55019756       0.07685460 
H       0.02152360       1.09666940      -2.73635958 
H       2.11901063       1.53223417      -0.56569999 
