12
 energy: -20.816011998798 gnorm: 0.000649275029 xtb: 6.2.3 (830e466)
C         0.23477894338518    0.05820886945564    0.52897567035592
N         1.51882764532721   -0.52183741401644    0.34929386472421
O        -0.63370400106197   -0.79911118852685    1.15956891675723
O        -0.30407732626235    0.45328362504461   -0.74582916487618
H        -0.62126940306869   -1.64773366602290    0.68606602477609
H        -1.17791845357924    0.83466573395035   -0.60554839252614
H         0.32401289441296    0.94900325185670    1.16753759801122
H         1.44762436100725   -1.36983413863639   -0.20539346486595
H         2.15008007390345    0.12132505544212   -0.10932232612071
O        -0.39770240893809   -2.27857577641927   -1.36166075536959
H        -0.40932538515889   -1.31364833864305   -1.47640661062031
H        -0.80021693996664   -2.66095601348398   -2.14258136024316
12
Properties=species:S:1:pos:R:3 energy:=T -20.747435216133=T gnorm:=T 0.000728024402=T xtb:=T 6.2.3=T (830e466)=T pbc="F F F"
C       -0.58763081       0.96129070       0.17427100
N        1.80346242      -2.63967191      -0.44118487
O       -0.15746848      -0.29054808       0.59596238
O       -1.85318930       0.93377032      -0.41330479
H       -0.09454971      -0.88016369      -0.17559864
H       -2.48202118       0.55991439       0.21605234
H       -0.57452165       1.60020967       1.06994131
H        1.64590595      -2.18030178       0.45610868
H        2.60150377      -2.18470415      -0.88348217
O        0.66787276      -2.29832041      -1.25113584
H        0.07833363       1.38886409      -0.58833932
H        0.28341259      -3.14554915      -1.51459007
