12
 energy: -20.814398215676 gnorm: 0.000636700649 xtb: 6.2.3 (830e466)
C         0.04819633359054   -0.23428023064933    0.56859332015424
N         1.33105798739110   -0.49368287133155   -0.04683681747374
O        -0.51671900027034   -1.50082850710120    0.80105483902564
O        -0.73818168384988    0.53689739951771   -0.25131352539259
H        -1.44246386936173   -1.37829858713986    1.04012025578504
H        -0.79222154343423    0.07436087442207   -1.11762871911638
H         0.11917146882232    0.32201510893670    1.52694146152329
H         1.84912054690911   -1.16349556390530    0.50842541823587
H         1.86227538555549    0.36588494096071   -0.11362654802671
O        -0.40909720307809   -1.44697106165561   -2.13638756819529
H         0.53278519217465   -1.25060256830288   -2.17847081686231
H        -0.51292361445021   -2.00629893375040   -1.35648129965405
12
Properties=species:S:1:pos:R:3 energy:=T -20.808021327504=T gnorm:=T 0.000634681933=T xtb:=T 6.2.3=T (830e466)=T pbc="F F F"
C       -0.67523027      -0.73195481       0.35231571
N        2.56002446      -0.34709636      -0.83169182
O       -1.95910921      -0.80626056       0.88764915
O       -0.62338927       0.39080295      -0.43940388
H       -2.01779542      -1.53153942       1.51808766
H       -1.50813713       0.55603362      -0.79180530
H        0.09930614      -0.63907456       1.12700410
H        2.10372415      -1.23127086      -0.63445879
H        1.86920800       0.37765723      -0.66997705
O       -0.35506938      -1.89085422      -0.34223718
H        2.77507277      -0.33738573      -1.82261419
H       -0.93760485      -1.98435729      -1.10847841
