9
 energy: -15.732693031179 gnorm: 0.000723025068 xtb: 6.2.3 (830e466)
C        -0.06165527954813   -0.18176130962005    0.51417935840463
N         1.15524323159712   -0.34590161586660   -0.24116578280368
O        -0.95706886279693   -1.23867983018659    0.40756713242031
O        -0.71161080789628    0.97029080339315    0.07622951182211
H        -1.54276008302114   -1.05674193210965   -0.33837890233364
H        -0.06565601129525    1.67952340028306    0.00090959464481
H         0.21796817384755   -0.11327665874707    1.57885406045227
H         1.69068674730067   -1.13117215683791    0.10526653306329
H         0.94115289181242   -0.51447070030840   -1.21965150567008
9
Properties=species:S:1:pos:R:3 energy:=T -15.666216198373=T gnorm:=T 0.000560097734=T xtb:=T 6.2.3=T (830e466)=T pbc="F F F"
C       -0.65605847      -0.11088461       0.50639618
N        1.40107362      -0.93381870      -0.18182020
O       -0.02401216      -1.14501737      -0.15556563
O       -0.65219164       1.04538794      -0.29600563
H       -1.68226666      -0.47202394       0.67272900
H       -0.92799639       1.80169642       0.22826998
H       -0.16016716       0.08842923       1.47157059
H        1.77889701      -1.85980660      -0.36628225
H        1.58902185      -0.34615238      -0.99548203
