13
 energy: -23.857983759681 gnorm: 0.000773257434 xtb: 6.2.3 (830e466)
C         9.32606404402970    1.22086411886324    2.39321697478274
C        10.67851431663796    1.67442578903754    1.79891643392563
C         8.26495599350002    0.93780770020792    1.33919798274227
C         9.82050887449408    3.33625435176473    3.07923966356859
O         8.94320556780387    2.32946129713652    3.19767686944870
O        10.84470483199362    2.99378354275963    2.27686543854884
O         9.71354768542954    4.38804838783248    3.61434013900991
H         9.44101913363284    0.35610451365721    3.05682299336294
H        10.66343250397157    1.69408608083603    0.70547648827225
H        11.51992922774439    1.06526005531948    2.14026689057234
H         7.31699365695722    0.72432756233407    1.82449360793911
H         8.56097091255331    0.08024494681687    0.74174668977079
H         8.13586325125188    1.80192165343429    0.69172982805591
13
Properties=species:S:1:pos:R:3 energy:=T -23.829426733331=T gnorm:=T 0.000642041010=T xtb:=T 6.2.3=T (830e466)=T pbc="F F F"
C        9.37067660       0.92113473       2.03665003
C       10.79459788       1.46815408       2.25898792
C        8.59711027       2.15381134       1.56243232
C        9.50877739       3.32812745       1.90364028
O        8.91613425       0.41552265       3.26767672
O       10.71346267       2.87965454       2.27213106
O        9.22873228       4.48789967       1.84982242
H        9.37400119       0.12239830       1.28229720
H       11.48191574       1.16432910       1.46427154
H       11.17585823       1.13130278       3.22580443
H        8.00748429       0.10712597       3.17839444
H        8.42023290       2.14953567       0.48666348
H        7.64072631       2.27359372       2.07121818
