13
 energy: -23.857990466593 gnorm: 0.000657970940 xtb: 6.2.3 (830e466)
C         9.64341910672443    1.12226643358541    2.14463704407593
C        10.49813975295271    2.32456061976551    1.68593680143251
C         8.50244337895118    0.79408002341412    1.19133706912283
C         9.44382325858032    2.84164189608041    3.62415578874477
O         9.13026514182039    1.55730353284981    3.39762531943823
O        10.22663087604879    3.32791574438122    2.64357655604706
O         9.08458578208798    3.46589888179525    4.56506532425937
H        10.25331923693241    0.23124644043914    2.32916952984578
H        10.20533480884332    2.69054236998951    0.69853361730996
H        11.57093803530210    2.11019643276488    1.69273587836492
H         7.88549193746822    1.67437620758598    1.02504759838546
H         8.90349640861012    0.45017963990294    0.24185211973595
H         7.88171227567801    0.01238177744581    1.62022735323722
13
Properties=species:S:1:pos:R:3 energy:=T -23.755786960577=T gnorm:=T 0.000467837585=T xtb:=T 6.2.3=T (830e466)=T pbc="F F F"
C        9.69476157       1.28371822       2.22342664
C       10.59799417       2.32851902       1.57456487
C        8.46708660       0.92179012       1.38728469
C        9.23941895       2.05607507       3.46250061
O        9.51344502       3.35965256       3.29717937
O       10.10105300       3.57784451       2.03010491
O        8.71059683       1.63468912       4.44367889
H       10.23122651       0.38128665       2.51764556
H       10.53082399       2.35878533       0.48673587
H       11.64494374       2.20554507       1.88262138
H        7.94374420       1.82121927       1.06917211
H        8.76761583       0.35969530       0.50656666
H        7.78688958       0.31376973       1.97841844
