13
 energy: -23.803902391119 gnorm: 0.000868568900 xtb: 6.2.3 (830e466)
C        10.35880228841131    2.48380021427775    1.92315991818172
C         7.98806022734079    1.62048503173531    1.50333194408410
C         8.96045484892224    2.75291561404699    1.36569733559516
C        10.60046143273659    0.49340596462980    3.14621482919288
O        10.70416577426684    1.10362742796000    1.97707876685493
O         8.69535962179955    3.82232607061228    0.88758812766310
O        10.22979139710807    0.97654172849695    4.17429805100210
H        10.92355581645140   -0.55349619077828    3.02545175535307
H        11.10337126275532    2.98610535130665    1.30149452066818
H        10.39063596734578    2.90443051458553    2.93792328840830
H         7.91919378292753    1.32184161489031    2.54766252574651
H         8.34529107576993    0.76692196280340    0.93031546044221
H         7.01046650416473    1.92367469543327    1.14009347680787
13
Properties=species:S:1:pos:R:3 energy:=T -23.813850226313=T gnorm:=T 0.000355672921=T xtb:=T 6.2.3=T (830e466)=T pbc="F F F"
C       10.48382869       2.75074470       1.92894703
C        8.56862330       1.34796181       1.44562379
C        9.15493297       2.72017881       1.19576654
C        9.51719720       0.74257717       2.48052187
O       10.74022097       1.43043566       2.36009407
O        8.67503025       3.61199652       0.55730481
O        8.94393800       0.91852457       3.74306869
H        9.74441740      -0.31978165       2.30417456
H       11.30448191       3.07705992       1.28740073
H       10.40182548       3.44090917       2.78041817
H        9.58809378       0.68072785       4.42019320
H        8.55026866       0.77946225       0.51675813
H        7.55675140       1.42178322       1.84003839
