13
 energy: -23.795635927627 gnorm: 0.000419022929 xtb: 6.2.3 (830e466)
C        10.47907451237956    1.48856969456433    1.67428390378100
C         7.95374000582396    1.75268301093660    1.34166647115425
C         9.16801675305067    0.90533217468818    1.12634863249054
C        10.34085305315951    2.56439319824367    3.77713756348323
O        10.29876455335075    2.65114981594510    2.45169976292064
O         9.17359177283689   -0.15497973672815    0.56263739152595
O        10.12017493864267    3.48379269352174    4.49829373763065
H        10.60935023890198    1.54737818256174    4.14316670721794
H        11.10365642644770    1.76332095663238    0.81721801338366
H        11.00075928080005    0.70613097198978    2.24122422393784
H         7.71682431858048    1.77952830110038    2.40469493201084
H         7.10991101009357    1.34138152963530    0.79533831777024
H         8.15488313593212    2.77412920690900    1.02681034269319
13
Properties=species:S:1:pos:R:3 energy:=T -23.760790643393=T gnorm:=T 0.000675232911=T xtb:=T 6.2.3=T (830e466)=T pbc="F F F"
C       11.65608627       1.31689773       2.28253990
C        6.94109190       2.03355699       1.00109309
C        7.86513879       1.14742308       1.11123355
C        9.77622942       2.44871838       3.14958292
O       10.75928207       2.41047508       2.27047855
O        8.71546608       0.35800613       1.23079109
O        8.92439197       3.28456399       3.14864827
H        9.81728825       1.63174735       3.90509816
H       12.64904698       1.70563067       2.06093789
H       11.35832848       0.60295979       1.51142773
H       11.65801531       0.81870146       3.25603791
H        6.07359773       1.88694927       0.39083912
H        7.03563676       2.95718007       1.54181183
