13
 energy: -23.795629762656 gnorm: 0.000774339334 xtb: 6.2.3 (830e466)
C        10.37294005027302    1.12813575324475    1.86360081344359
C         8.00865533652856    1.88440883689737    1.24029556009707
C         8.94021409011058    0.73693358879792    1.47155632976377
C        10.54659270807727    2.85705576332145    3.46784851191627
O        10.51465964691492    2.49295201938605    2.19003919562998
O         8.64446386486408   -0.42147802915937    1.35685644057643
O        10.57416763214712    3.99169125772959    3.82238958738755
H        10.55268310163330    1.99409572507261    4.17161970345953
H        10.70212424306344    0.48298022686008    2.68851717602061
H        11.01656890619443    0.93344361969295    0.99879521763533
H         7.08043244348404    1.52983372338894    0.79976090385323
H         8.48224055780450    2.62241803575095    0.59749894841982
H         7.79376741890476    2.37013947901678    2.19153161179688
13
Properties=species:S:1:pos:R:3 energy:=T -23.760379963369=T gnorm:=T 0.000553200600=T xtb:=T 6.2.3=T (830e466)=T pbc="F F F"
C       11.55022915       0.12335430       1.59371655
C        7.76298795       2.95276524       1.64276082
C       10.27315322       0.01656318       1.68780795
C        9.54220108       2.58115341       3.14098129
O        9.14169436       3.02392552       1.96101412
O        9.11298494      -0.05280026       1.78835091
O       10.68482169       2.58002841       3.48494676
H        8.71808108       2.20336265       3.78446606
H       12.04795784       0.91756493       2.11853546
H       12.14474298      -0.55897783       1.02136644
H        7.32483621       2.02115699       2.00724737
H        7.69532142       2.98882328       0.55752024
H        7.23049809       3.80569018       2.07159604
