13
 energy: -23.802945634599 gnorm: 0.000631892705 xtb: 6.2.3 (830e466)
C        10.39999018153715    1.75223617931848    1.79091868607327
C         8.12093340932326    1.49650027983885    0.69617113110337
C         9.02847270467502    1.06657259379291    1.81203236952326
C        10.43718104282396    2.31287273863467    4.03776001259950
O        11.03715560659877    1.65381860648791    3.05784954549037
O         8.73494037948167    0.27364316205794    2.66165395617857
O         9.48174962733839    3.02248002407510    3.92613072855232
H        10.97770942397056    2.12481545198754    4.97835175505428
H        11.05423404399910    1.24019837775851    1.08186325022450
H        10.28488488204836    2.80339679405558    1.50607374940785
H         7.32141213910513    0.77251334979587    0.56413967211715
H         8.67177298630045    1.63149853797528   -0.23068519634281
H         7.67916357279818    2.45205390422131    0.97793034001812
13
Properties=species:S:1:pos:R:3 energy:=T -23.779293350942=T gnorm:=T 0.000617951430=T xtb:=T 6.2.3=T (830e466)=T pbc="F F F"
C       10.37867648       1.95534362       2.17548411
C        8.07166423       1.69263224       1.08337432
C        9.28898160       1.02214502       1.61720761
C        9.85040224       2.58163101       3.45566871
O       11.55786137       1.25182507       2.41095762
O        9.48565931      -0.16600547       1.65579405
O        8.91953603       3.33181717       3.52128460
H       10.42793715       2.26435995       4.34006811
H       11.34860318       0.30468181       2.32130487
H       10.56044776       2.76011565       1.45070964
H        7.27546748       0.96731314       0.93750537
H        8.31068924       2.15533334       0.12704334
H        7.75367392       2.48140744       1.76378766
