13
 energy: -23.795636691669 gnorm: 0.000185333646 xtb: 6.2.3 (830e466)
C        10.02883685811198    2.67703181920642    1.89007823365479
C         7.89208472392634    1.27707441340627    1.71484542726928
C         8.85619837473597    2.19025801344374    1.02566022626154
C        10.99815570389093    1.07135652578761    3.33215679617806
O        10.10741383664487    2.03971626505122    3.14555683721348
O         8.76016844388116    2.55565042694712   -0.11441670852048
O        11.07101576678913    0.43583916380079    4.33458854258616
H        11.67306575072561    0.91945760417286    2.45916166636871
H        10.95942870248777    2.55285484518978    1.32059748421022
H         9.88233743391964    3.74671802644667    2.07576391298845
H         7.02467911062624    1.10533177082028    1.08410510710773
H         8.38130864599537    0.32598818016171    1.92263530208263
H         7.59489664826493    1.70552294556547    2.66936717259940
13
Properties=species:S:1:pos:R:3 energy:=T -23.783438078823=T gnorm:=T 0.000419841062=T xtb:=T 6.2.3=T (830e466)=T pbc="F F F"
C       10.40759387       3.39992236       1.68987895
C        8.79756345       1.62483951       1.96481469
C        9.07701211       2.87076930       1.17060642
C        9.98529430       1.50177725       2.90570450
O       10.84175989       2.51848892       2.70216453
O        8.41403766       3.36711675       0.30774502
O       10.17442912       0.64964935       3.71806350
H        8.96312954      -1.56076314       2.99481317
H       11.15390399       3.43704570       0.88910722
H       10.29436130       4.40799786       2.10287518
H        8.54312735      -2.05799595       2.56684727
H        8.71521418       0.74388672       1.32529507
H        7.86216325       1.70006537       2.52218449
