9
 energy: -15.707958280020 gnorm: 0.000583637721 xtb: 6.2.3 (830e466)
C        -3.70651417864309    2.41832889765952   -1.07167420562226
O        -4.83889665116242    2.60993020212433   -1.74896883640955
N        -3.46574922831801    1.62757297597615   -0.13242007749708
H        -5.55345751442174    2.03788203235024   -1.42846656165887
H        -4.24329014755513    1.04396191532596    0.17198467014285
H        -2.91298644079280    3.06445357021345   -1.42904035605832
O        -0.90439600873606    2.07508704266595    1.10374794094982
H        -1.79848965730924    1.95431063796885    0.74882257602120
H        -0.45462017306124    1.23677272571428    0.98222485012858
9
Properties=species:S:1:pos:R:3 energy:=T -15.732693520852=T gnorm:=T 0.000540979505=T xtb:=T 6.2.3=T (830e466)=T pbc="F F F"
C       -2.93744614       2.32690459      -0.56706437
O       -4.01648044       2.30065462      -1.44175272
N       -3.27579252       2.08268055       0.81309760
H       -4.11758708       1.39399150      -1.75985151
H       -3.76444432       1.19662284       0.90280231
H       -2.50893182       3.34150980      -0.62678196
O       -2.02845693       1.35735725      -0.98600856
H       -3.87737640       2.81347077       1.17012882
H       -1.35188435       1.25510808      -0.30835960
