13
 energy: -23.782580610008 gnorm: 0.000353683470 xtb: 6.2.3 (830e466)
C         9.52855125076845    1.08166091630842    2.33203152625217
C         8.58083305322768    1.11005486582381    1.12775320259540
C         9.17121464068313    3.27594663155145    3.19000372085151
C        10.96136435276226    1.32721227329616    1.88995687568420
O         9.12455029313331    1.95454657146690    3.37317875905318
O         8.86997694170592    4.04872443499819    4.04273698025063
O        11.66719952444570    2.20468763863314    2.28557917948296
H         9.49605197977150    0.08460879803035    2.79150121647668
H         9.49211147047073    3.58847387216009    2.17727713127134
H        11.29939896021137    0.58758640924187    1.13923278743550
H         7.56236016718651    0.93902391922309    1.46702052710367
H         8.85401275084297    0.32932223954264    0.42363614498960
H         8.62187461479046    2.07065142972390    0.61989194855313
13
Properties=species:S:1:pos:R:3 energy:=T -23.771356496223=T gnorm:=T 0.000535057015=T xtb:=T 6.2.3=T (830e466)=T pbc="F F F"
C        9.20001845       1.31007010       1.54626195
C        7.81915619       1.02249062       0.97645084
C       10.01647899       2.78843376       3.31534224
C       11.46131705       2.32094413       3.06694963
O        9.02978448       2.28064437       2.57822856
O        9.77694081       3.60193610       4.16309069
O       12.37836890       2.74766690       3.70267162
H        9.63460069       0.39307974       1.96059513
H        9.85563107       1.70587294       0.76211412
H       11.60973388       1.56917664       2.27001623
H        7.16721855       0.64270148       1.75779744
H        7.89500231       0.28472129       0.18290428
H        7.38524864       1.93476193       0.57737727
