13
 energy: -23.782580610083 gnorm: 0.000353906361 xtb: 6.2.3 (830e466)
C         9.59936737305804    1.11280535867549    2.38022322704820
C         8.59263761952598    0.96072321938504    1.23452329488726
C         9.09555031976686    3.33436077451634    3.07990474557030
C        10.98077881048566    1.43832142683495    1.83761808002894
O         9.17412464211665    2.03382526880447    3.37018510175595
O         8.77169362550615    4.14861787844579    3.88438337371300
O        11.62635356661055    2.40160784489827    2.12045356641777
H         9.67773184693117    0.15881892000466    2.91878662743800
H         9.33581394582478    3.58591607256193    2.02859324506699
H        11.34353401101973    0.66864449997047    1.12987065636387
H         7.61167075810338    0.73493986830971    1.64484857805217
H         8.89684689673380    0.14877144959864    0.58019730626997
H         8.52349658431728    1.87513741799424    0.65021219738760
13
Properties=species:S:1:pos:R:3 energy:=T -23.781779678340=T gnorm:=T 0.000799181869=T xtb:=T 6.2.3=T (830e466)=T pbc="F F F"
C       10.43573378       1.45976603       1.94209470
C        7.56710677       1.68702351       1.69881020
C        8.37226426       2.51823322       2.67260878
C       11.91457049       1.54841382       2.27210226
O        9.71020877       2.36481411       2.73782775
O        7.86115741       3.32072656       3.39952126
O       12.41929278       2.26272409       3.07779098
H       10.12173823       0.42071107       2.11969293
H       10.32589093       1.68251890       0.87066706
H       12.50107656       0.83721783       1.65500244
H        6.82509475       1.13219459       2.26971454
H        8.14893680       0.99812600       1.09757032
H        7.02652848       2.37002027       1.04639677
