13
 energy: -23.782580613795 gnorm: 0.000354494553 xtb: 6.2.3 (830e466)
C         9.56285138930058    1.03395069639476    2.10025983118280
C         8.80807418697046    1.42991216123092    0.82637394745809
C         8.83430265166686    2.76545950967269    3.56647229459608
C        11.00816299124501    1.49751995027946    2.03057532923209
O         8.91157348298985    1.46317361944382    3.28378874028198
O         8.32340373481312    3.17275181287708    4.56054383617978
O        11.54270521961043    2.21837662219034    2.81754006575217
H         9.57598160844422   -0.06104160935946    2.18453322060697
H         9.26482914215659    3.43008432620443    2.79240335291739
H        11.53618984316158    1.08757515278806    1.14851347608152
H         8.81466105925455    2.50823988677639    0.68666179803625
H         9.27017410772463    0.96162241036871   -0.03798707395011
H         7.77660058266212    1.09487546113284    0.90022118162501
13
Properties=species:S:1:pos:R:3 energy:=T -23.748609346611=T gnorm:=T 0.000769873002=T xtb:=T 6.2.3=T (830e466)=T pbc="F F F"
C       10.18525978       0.27296192       0.75314432
C        8.87186661       0.49873161       0.73364814
C        8.33901982       3.67579578       4.02472325
C       11.13163180       1.08562525       1.51295837
O        8.42785866       2.99708252       2.89203225
O        7.31679868       4.09675610       4.46944877
O       10.85875024       2.01620321       2.24008334
H       10.62047057      -0.53988383       0.18795611
H        9.31537253       3.82065327       4.53596522
H       12.18609245       0.78574023       1.38604306
H        9.34930060       2.70849279       2.67728972
H        8.20566345      -0.12202565       0.15814290
H        8.42142480       1.30636681       1.28846455
