13
 energy: -23.782529454357 gnorm: 0.000593698110 xtb: 6.2.3 (830e466)
C         9.42863152697603    1.38853049821020    2.03610237228748
C         8.57440222662809    0.96817022054060    0.84383526924317
C         9.28484113213903    2.95023721064775    3.81075753259384
C        10.84975184467998    1.72762596538961    1.60599627792931
O         8.80917025305614    2.50433349906814    2.64898690484787
O         8.88451603351706    3.93751095075393    4.33800421402818
O        11.43924654973980    2.71217559767976    1.93221869145247
H         9.50792039729011    0.55548545233330    2.75630046910361
H        10.06357359450459    2.29348980040155    4.25553439921141
H        11.29879550413115    0.95125120311915    0.95824450413603
H         7.57251378731721    0.72195013504219    1.18353031507100
H         9.00997974185407    0.10207026489116    0.35422138675278
H         8.50614740816671    1.78966920192265    0.13604766334284
13
Properties=species:S:1:pos:R:3 energy:=T -23.726200017956=T gnorm:=T 0.000439211565=T xtb:=T 6.2.3=T (830e466)=T pbc="F F F"
C        9.25523927       2.10253558       1.98352231
C        8.52595858       1.33965730       0.90759746
C        8.93530689       3.36604898       3.94282673
C       10.55481505       2.22573922       1.94716171
O        8.42223128       2.63760370       2.96040947
O        8.27439695       3.84761078       4.80751271
O       11.71238966       2.25971376       1.80126384
H       11.01342228      -0.77275383       1.47299486
H       10.04218822       3.47699030       3.87097120
H       11.47323973      -1.34610144       1.22088590
H        7.97640901       0.51392320       1.35655230
H        9.22757104       0.95128992       0.17547220
H        7.81632204       2.00024252       0.41260930
