13
 energy: -23.782580608771 gnorm: 0.000353904600 xtb: 6.2.3 (830e466)
C         9.62234671595304    1.05706651345965    2.20647852265086
C         8.62946009714360    1.17516285022883    1.04480211885007
C         9.02604387576642    2.99564357643552    3.45749310288269
C        10.99293528855492    1.56477771257815    1.79127356565356
O         9.15469123339126    1.66839540143820    3.39673431793719
O         8.66508366465592    3.55666444301382    4.44240266381698
O        11.59782107290940    2.44266733584803    2.32802883837192
H         9.73544561765718   -0.00154014649486    2.47637094714039
H         9.26244480899100    3.52397418463116    2.51343582734447
H        11.39040941170393    1.02267363185818    0.91204788285097
H         7.65580886341485    0.81322874818302    1.36518922907681
H         8.96978707981273    0.57607128368299    0.20502939480767
H         8.52744227004574    2.20801446513731    0.72051358861643
13
Properties=species:S:1:pos:R:3 energy:=T -23.750946263142=T gnorm:=T 0.000991407199=T xtb:=T 6.2.3=T (830e466)=T pbc="F F F"
C       10.37884287       1.12744078       3.37435757
C        8.69137828       1.23513979       0.22100505
C        8.84869325       2.89234490       3.52185546
C       11.26245853       1.71306000       2.61538663
O        9.18644976       1.64786753       3.84434753
O        7.84160924       3.40836915       3.88831582
O       12.11606279       2.13457514       1.94852373
H       10.54168529       0.10892155       3.69247702
H        9.60718020       3.39184378       2.87653341
H        9.67075508       0.81592227       0.02763548
H        8.25783531       0.76497326       1.09402347
H        8.04957192       1.06069888      -0.63306366
H        8.77719749       2.30164297       0.38840251
