13
 energy: -23.784518630952 gnorm: 0.000682776032 xtb: 6.2.3 (830e466)
C         9.34039058977284    1.11301571516458    1.78183573970336
C         9.32621052057033    2.13070224752859    0.64385314959928
C         8.59023617151730    2.40158441353041    3.61428472234173
C        10.72462428636151    0.94684157242787    2.38960355864698
O         8.36368118809725    1.39126380266349    2.77761148763718
O         7.83057347491957    2.72538394361262    4.46938306392024
O        11.74962690611060    1.08181544016182    1.79056999564422
H         9.05474762804694    0.12439609333624    1.39458115596199
H         9.56668131552201    2.90853025576882    3.44041875914865
H        10.69589127996506    0.64966999808802    3.45570355255707
H         9.49656022304265    3.13420304020602    1.02737579699127
H        10.12064462272015    1.88653871559932   -0.05568227758740
H         8.36962179335405    2.10885476191199    0.13015129543537
13
Properties=species:S:1:pos:R:3 energy:=T -23.765610361931=T gnorm:=T 0.000988732200=T xtb:=T 6.2.3=T (830e466)=T pbc="F F F"
C        9.35336676       0.90221527       1.68180070
C        9.27783145       2.38250688       1.25756610
C        9.15909595       3.27852016       2.45386442
C       10.63467070       0.67862301       2.46982821
O        8.22116499       0.46881453       2.37755206
O        9.04062868       2.89575997       3.58620431
O       11.69628121       1.15376602       2.18393038
H        9.41267877       0.27238467       0.78353901
H        9.17827682       4.35627991       2.21141118
H       10.49924268       0.01905754       3.34644181
H        8.15875142       0.98675763       3.19444653
H       10.18050808       2.65116921       0.70533194
H        8.41699249       2.55694521       0.60777336
