10
 energy: -13.498317515406 gnorm: 0.000911657531 xtb: 6.2.3 (830e466)
C         9.12753126244175    2.45778055349792    1.71458097741807
C         8.15373765260237    3.34412412408134    2.43607098698684
C         6.95847453387225    2.97141810960413    2.85299743907977
O         8.74207815936440    1.11114969901831    1.61472167109734
H         8.55027476095716    0.78425401910659    2.50160296237886
H        10.11236132479044    2.54296661105296    2.20427479176394
H         9.24211560732716    2.80942772463040    0.68365108226053
H         8.51369472114504    4.35063538015201    2.59954324990629
H         6.57999235862290    1.97801690341908    2.67537079490841
H         6.30002961887653    3.64732687543726    3.36979604419996
10
Properties=species:S:1:pos:R:3 energy:=T -13.512750502043=T gnorm:=T 0.000312930226=T xtb:=T 6.2.3=T (830e466)=T pbc="F F F"
C        9.01705391       2.44238579       1.53727700
C        8.54880157       2.94074500       2.90742510
C        7.16662837       2.46808428       2.44795028
O        7.69078887       2.03771725       1.18948487
H        8.96067440       2.40704092       3.75938309
H        9.70704145       1.59387503       1.55190468
H        9.39754081       3.20938216       0.85659038
H        8.64077514       4.01192935       3.06408112
H        6.73849885       1.63510188       3.01285083
H        6.41248664       3.25083834       2.32566265
