13
 energy: -23.848070103175 gnorm: 0.000355092429 xtb: 6.2.3 (830e466)
C         8.31062603929859    1.29284345375416    1.83672371599627
C        10.51089236531825    2.28781075906565    1.56480049234206
C         9.70232266657435    1.03112963871783    1.28227011663600
C         9.42669062579821    2.30762491789757    3.72500231198212
O        10.47191078693922    2.61652671426096    2.94902285893480
O         8.37216448905198    1.66543700598476    3.20891105174098
O         9.44017964472651    2.59506225204180    4.88226690791397
H         7.81777032015336    2.09741071275142    1.27631267627188
H         7.67741640148461    0.40297046250010    1.80691762720883
H        11.57000082812653    2.16272768769026    1.32691526778597
H        10.11672260548405    3.13626558403711    0.99120718217323
H         9.66195691949002    0.82851800532454    0.21431405185350
H        10.15123630755433    0.17838280597384    1.79513573916038
13
Properties=species:S:1:pos:R:3 energy:=T -23.824180149492=T gnorm:=T 0.000351423763=T xtb:=T 6.2.3=T (830e466)=T pbc="F F F"
C        8.68923594       1.19377913       2.41591450
C       10.65612616       2.26286709       1.53867620
C        9.75130663       1.04440132       1.31889100
C        9.39393344       2.09797928       3.44777567
O       10.47085654       2.66754731       2.88975730
O        7.48605305       1.77081879       1.97427666
O        9.04377614       2.31651287       4.56740266
H        7.62352773       2.70050728       1.75674674
H        8.40327544       0.24299789       2.87024828
H       11.71596199       2.04208754       1.40141282
H       10.38530954       3.10380714       0.88994846
H        9.30093535       1.03889231       0.32871371
H       10.30959205       0.12051206       1.46003600
