13
 energy: -23.848070123446 gnorm: 0.000352723099 xtb: 6.2.3 (830e466)
C         8.27923591670613    1.45527688546170    1.75498967452490
C        10.64525160518227    1.99477385553294    1.62797009825528
C         9.64757652299436    0.85866759201115    1.46441960769645
C         9.35508670412211    2.63585642424468    3.56877379627607
O        10.51856999130982    2.60161677780479    2.90910378590467
O         8.26028080840577    2.08555623266777    3.03087333595537
O         9.29648620754259    3.14786192901708    4.64416165109057
H         8.01322007651794    2.19831345146044    0.99248828003792
H         7.49500591901292    0.69566170839925    1.79610575040075
H        11.68057636569794    1.64989190231308    1.57234756763900
H        10.48534388748283    2.76123356252861    0.85907250329368
H         9.68635830311169    0.45126634817298    0.45658331186997
H         9.86669769191363    0.06662333038553    2.18302063705536
13
Properties=species:S:1:pos:R:3 energy:=T -23.800190932294=T gnorm:=T 0.000895999326=T xtb:=T 6.2.3=T (830e466)=T pbc="F F F"
C        8.52462692       0.67142610       0.71755469
C       10.45666318       1.91558095       1.69470471
C        9.53462129       0.73492680       1.56772416
C        9.70949148       2.84233420       3.80904175
O       10.68247907       2.30932783       3.04772192
O        8.47719261       2.89067294       3.29527638
O        9.96213621       3.25503969       4.89489777
H        8.29379387       1.48044773       0.04143048
H        7.90326799      -0.20342078       0.64099586
H       11.45514254       1.63917404       1.34060016
H       10.10104892       2.76809637       1.10031954
H        8.36828489       2.38481058       2.47504900
H        9.76094102      -0.08581643       2.23459356
