13
 energy: -23.848070122932 gnorm: 0.000352731834 xtb: 6.2.3 (830e466)
C         8.32351356997890    1.23718428682482    1.89309934587637
C        10.55007170057445    2.12854949490008    1.50178487618819
C         9.74663121069533    0.83773920212674    1.53545537383354
C         9.31977331335079    2.75902220452403    3.48448567623993
O        10.42002244326528    2.83999488890192    2.72756754568969
O         8.29507042393301    1.98816185565059    3.10169945665263
O         9.25710522529715    3.36635196122240    4.50882275471317
H         7.88094950960474    1.84353754315935    1.09263120661733
H         7.68237789865318    0.37150278847483    2.07548057891844
H        11.62134036760215    1.94830400972928    1.38418388633482
H        10.20743857176195    2.77404445885505    0.68314362659367
H         9.77740631774265    0.33711022672068    0.57024167493416
H        10.14798944754042    0.17118707891023    2.30119399740808
13
Properties=species:S:1:pos:R:3 energy:=T -23.818396970750=T gnorm:=T 0.000348551011=T xtb:=T 6.2.3=T (830e466)=T pbc="F F F"
C        8.11693521       1.70304398       2.46769779
C       10.72436059       2.08986752       1.51945525
C        9.92170400       0.81441690       1.30245076
C        9.09731361       2.61576740       3.19651538
O       10.34519870       2.73042616       2.73260395
O        8.55482930       1.14752948       1.24891808
O        8.77831161       3.19106161       4.20038041
H        7.20935590       2.27236201       2.25298489
H        7.85408352       0.90507018       3.18241671
H       11.79491921       1.89351224       1.60775262
H       10.54620025       2.78257421       0.68878196
H       10.16948873       0.35762168       0.34422082
H       10.11698936       0.09943662       2.11561138
