13
 energy: -23.848070121252 gnorm: 0.000353012728 xtb: 6.2.3 (830e466)
C         8.36484423258065    1.14660570422857    1.90842909281814
C        10.73813210328745    1.66878305633210    1.90093917511519
C         9.51590562187221    1.55659010314259    1.00299466521772
C         9.26738460538952    2.72300401560429    3.50298740225309
O        10.49072670920249    2.55387464209798    2.98762826939191
O         8.22542552734872    2.05451988404126    2.99556471469916
O         9.10318728959078    3.48040026033710    4.40931666639315
H         7.40250498161787    1.16467836995283    1.39121464780164
H         8.53172306536426    0.13956056521251    2.31122576229492
H        11.01124524723446    0.68545803679187    2.30437019517801
H        11.60105327787796    2.08751501638781    1.37772587940028
H         9.30152752212184    2.52464627115206    0.54621798484765
H         9.67611981651179    0.81724407471903    0.22138554458915
13
Properties=species:S:1:pos:R:3 energy:=T -23.794373148702=T gnorm:=T 0.000811723115=T xtb:=T 6.2.3=T (830e466)=T pbc="F F F"
C        8.20119335       0.72381585       2.65453684
C       10.08775555       2.41801845       1.29771910
C       10.82705956       1.93633115       0.31723663
C        9.56514178       2.47123537       3.61266582
O       10.46537870       2.27709183       2.61632032
O        8.39556064       1.83491349       3.51965587
O        9.81999307       3.15614637       4.55094122
H        7.81736012       1.04273231       1.68287421
H        7.45774511       0.09849982       3.14767643
H        9.12344474       0.15681748       2.51677650
H        9.18672513       2.99779331       1.13178807
H       10.55508168       2.10534097      -0.70673348
H       11.72734056       1.38414360       0.51854246
