[Molden Format]
[Geometries] (XYZ)
12

C        0.646515       1.779912      -1.248615
C        0.387016       0.277604      -1.180224
C        1.657435      -0.513570      -1.022366
O        1.278063       2.028177      -2.483776
O        1.585649       3.419257      -2.566255
O        1.771738      -1.500450      -0.354498
H        1.934439       3.496845      -3.463807
H        1.293981       2.108882      -0.425709
H       -0.298281       2.336197      -1.195742
H        2.502962      -0.104075      -1.604424
H       -0.069765      -0.035509      -2.123704
H       -0.300852       0.046421      -0.366690
12

C        0.790312       1.689540      -1.279364
C        0.281870       0.281840      -1.112897
C        1.704457      -0.462273      -1.035915
O        1.415258       2.057669      -2.487576
O        1.558622       3.474938      -2.499317
O        1.808957      -1.496207      -0.432552
H        1.944101       3.630320      -3.371341
H        1.405035       1.973245      -0.411321
H       -0.272698       2.181505      -1.449271
H        2.535295      -0.057883      -1.634763
H       -0.136461      -0.305490      -1.925428
H       -0.415525       0.319169      -0.275788
12

C        0.940758       1.537625      -1.320452
C        0.175114       0.279448      -1.086551
C        1.776234      -0.465582      -1.090483
O        1.527410       2.016076      -2.505540
O        1.554593       3.445756      -2.436265
O        1.845311      -1.517089      -0.510471
H        1.940436       3.679911      -3.290180
H        1.505475       1.810901      -0.422045
H       -0.281967       1.913000      -1.716968
H        2.593945      -0.100094      -1.718672
H       -0.191741      -0.517311      -1.717561
H       -0.506092       0.530967      -0.277793
12

C        0.998824       1.443228      -1.274168
C       -0.035694       0.393122      -1.063510
C        1.849855      -0.283610      -1.179015
O        1.556773       1.909556      -2.414515
O        1.582487       3.395299      -2.368348
O        1.908987      -1.309434      -0.588396
H        1.976848       3.613555      -3.221371
H        1.551289       1.732462      -0.375080
H       -0.494683       1.673425      -1.784522
H        2.645120       0.092443      -1.830540
H       -0.398214      -0.460431      -1.601663
H       -0.715613       0.688045      -0.268725
12

C        1.040123       1.409965      -1.236660
C       -0.181955       0.552097      -1.032619
C        1.881380      -0.105572      -1.234798
O        1.561983       1.941540      -2.367159
O        1.566682       3.389310      -2.249430
O        1.879880      -1.085408      -0.605181
H        1.942194       3.662230      -3.094143
H        1.584316       1.681961      -0.328442
H       -0.595842       1.461080      -1.844555
H        2.710285       0.219750      -1.906250
H       -0.501310      -0.394962      -1.405455
H       -0.859192       0.978680      -0.296756
12

C        1.102721       1.391948      -1.235220
C       -0.235243       0.704192      -1.040294
C        1.889739      -0.044715      -1.244606
O        1.574860       2.044220      -2.347351
O        1.484280       3.459673      -2.124028
O        1.824287      -1.009188      -0.588623
H        1.838950       3.817279      -2.948817
H        1.594336       1.716489      -0.300041
H       -0.581944       1.301677      -1.990130
H        2.723064       0.176192      -1.949568
H       -0.492057      -0.329147      -1.116017
H       -0.890649       1.283981      -0.381125
12

C        1.161690       1.376533      -1.240499
C       -0.266922       0.859769      -1.080359
C        1.913095       0.001919      -1.258438
O        1.582827       2.154864      -2.305695
O        1.371506       3.531598      -1.979802
O        1.777536      -0.931273      -0.557716
H        1.704832       3.978602      -2.768909
H        1.597891       1.767755      -0.296738
H       -0.575360       1.119553      -2.098022
H        2.742632       0.117328      -1.989933
H       -0.512438      -0.142401      -0.788125
H       -0.882736       1.589981      -0.541497
12

C        1.236837       1.225240      -1.247212
C       -0.247949       0.848599      -1.166632
C        1.997133      -0.093775      -1.348003
O        1.643997       2.059075      -2.291258
O        1.320461       3.410275      -1.956638
O        1.824626      -1.053024      -0.670183
H        1.668887       3.894678      -2.716442
H        1.598716       1.642609      -0.286711
H       -0.546345       0.775274      -2.190477
H        2.802053      -0.016650      -2.105953
H       -0.474561      -0.050212      -0.615281
H       -0.826717       1.690761      -0.779050
12

C        1.285613       1.119802      -1.249613
C       -0.225931       0.876666      -1.266555
C        2.051311      -0.185386      -1.275698
O        1.740213       1.868462      -2.353793
O        1.321248       3.225713      -2.200382
O        1.830390      -1.112907      -0.554042
H        1.728397       3.649690      -2.966935
H        1.556955       1.648067      -0.320796
H       -0.512266       0.406391      -2.204127
H        2.854040      -0.202037      -2.034417
H       -0.489685       0.222794      -0.441031
H       -0.751384       1.822435      -1.168421
[GEOCONV]
energy
0.0
25.4097492354
101.905175171
165.447927369
87.5285178163
45.5592505454
17.6957672484
2.98212309903
-0.875240180148
max-force
1.97848224517e-05
0.0071043113968
0.00787430064198
0.011992034969
0.0108000594069
0.00928140190065
0.00572750049278
0.00288366893773
5.38810865931e-05
max-step
1000.0
1000.0
1000.0
1000.0
1000.0
1000.0
1000.0
1000.0
1000.0
