[Molden Format]
[Geometries] (XYZ)
12

C        0.646515       1.779912      -1.248615
C        0.387016       0.277604      -1.180224
C        1.657435      -0.513570      -1.022366
O        1.278063       2.028177      -2.483776
O        1.585649       3.419257      -2.566255
O        1.771738      -1.500450      -0.354498
H        1.934439       3.496845      -3.463807
H        1.293981       2.108882      -0.425709
H       -0.298281       2.336197      -1.195742
H        2.502962      -0.104075      -1.604424
H       -0.069765      -0.035509      -2.123704
H       -0.300852       0.046421      -0.366690
12

C        0.747652       1.744342      -1.225218
C        0.293649       0.301285      -1.091396
C        1.647110      -0.459212      -1.013872
O        1.421962       2.032613      -2.435260
O        1.506595       3.451342      -2.547002
O        1.779616      -1.541684      -0.518921
H        1.934396       3.555832      -3.407172
H        1.294274       2.062562      -0.348017
H       -0.252682       2.212254      -1.414389
H        2.462686      -0.002759      -1.592509
H       -0.091841      -0.216950      -1.970256
H       -0.375647       0.252520      -0.245991
12

C        0.920633       1.619200      -1.263757
C        0.145576       0.332805      -1.088075
C        1.699285      -0.440031      -1.047122
O        1.521854       2.043257      -2.445429
O        1.455181       3.508222      -2.487586
O        1.750030      -1.509263      -0.503332
H        1.855459       3.694728      -3.345478
H        1.423228       1.924326      -0.359043
H       -0.261111       1.928815      -1.645132
H        2.501236      -0.057219      -1.675410
H       -0.184628      -0.401582      -1.812292
H       -0.525576       0.490382      -0.258988
12

C        1.080033       1.508132      -1.269731
C        0.021922       0.360545      -1.146169
C        1.753761      -0.389123      -1.103567
O        1.607005       1.920240      -2.347405
O        1.438833       3.594985      -2.524392
O        1.690816      -1.389982      -0.452430
H        1.830882       3.724911      -3.388932
H        1.561154       1.839060      -0.343693
H       -0.330984       1.491219      -1.647932
H        2.510662      -0.043386      -1.774403
H       -0.345022      -0.368335      -1.854951
H       -0.631340       0.516399      -0.295230
12

C        0.988852       1.355624      -1.218553
C       -0.225296       0.466297      -1.082848
C        1.896190      -0.138721      -1.229597
O        1.548307       1.825546      -2.364075
O        1.532544       3.298250      -2.363451
O        1.910628      -1.128396      -0.599555
H        1.913508       3.502342      -3.225870
H        1.528808       1.599637      -0.300911
H       -0.679723       1.414842      -1.728593
H        2.725552       0.237077      -1.863415
H       -0.571635      -0.374190      -1.647572
H       -0.913882       0.776806      -0.299649
12

C        1.094009       1.234414      -1.246034
C       -0.275845       0.568656      -1.110945
C        1.957268      -0.110765      -1.282706
O        1.572632       1.832849      -2.381821
O        1.500458       3.268754      -2.243900
O        1.889291      -1.082389      -0.616975
H        1.841655       3.573167      -3.094848
H        1.590687       1.522435      -0.313342
H       -0.667095       1.217522      -1.930812
H        2.832413       0.157735      -1.916317
H       -0.533943      -0.435493      -1.374068
H       -0.933898       1.058966      -0.394119
12

C        1.205324       1.148692      -1.298311
C       -0.255794       0.662223      -1.192643
C        2.016176      -0.153106      -1.313460
O        1.614063       1.883415      -2.382439
O        1.405103       3.280701      -2.111564
O        1.856666      -1.095544      -0.618353
H        1.729571       3.696145      -2.921451
H        1.610272       1.558902      -0.362682
H       -0.596929       0.971173      -2.167138
H        2.875982      -0.035101      -2.005598
H       -0.464689      -0.374274      -1.012195
H       -0.866028       1.327695      -0.582107
12

C        1.260739       1.095676      -1.263721
C       -0.241344       0.785810      -1.260799
C        2.084083      -0.172630      -1.349512
O        1.661149       1.921562      -2.330216
O        1.301646       3.272533      -2.032621
O        1.876271      -1.151632      -0.694900
H        1.618297       3.743367      -2.814397
H        1.546009       1.576475      -0.313555
H       -0.580742       0.730113      -2.292563
H        2.912913      -0.113147      -2.076907
H       -0.423608      -0.157613      -0.757243
H       -0.794997       1.582063      -0.770946
12

C        1.285613       1.119802      -1.249613
C       -0.225931       0.876666      -1.266555
C        2.051311      -0.185386      -1.275698
O        1.740213       1.868462      -2.353793
O        1.321248       3.225713      -2.200382
O        1.830390      -1.112907      -0.554042
H        1.728397       3.649690      -2.966935
H        1.556955       1.648067      -0.320796
H       -0.512266       0.406391      -2.204127
H        2.854040      -0.202037      -2.034417
H       -0.489685       0.222794      -0.441031
H       -0.751384       1.822435      -1.168421
[GEOCONV]
energy
0.0
12.967711802
87.2682368388
137.637790955
87.0225673003
37.5446685599
10.5972342855
-0.250341503464
-0.875240180148
max-force
1.97848224517e-05
0.00269566460739
0.00827107678186
0.00526494436528
0.00815796024797
0.00500378248051
0.00449922332241
0.000140120875153
5.38810865931e-05
max-step
1000.0
1000.0
1000.0
1000.0
1000.0
1000.0
1000.0
1000.0
1000.0
