5
 energy: -11.271705991418 gnorm: 0.000856563034 xtb: 6.2.3 (830e466)
C         0.27672437971611   -0.93012220882963    0.32808091931795
O        -0.92727824738752   -1.37003689696703   -0.04017350290931
O         1.25150595817699   -1.60683974767142    0.31982047423632
H        -1.62367563839634   -0.70396878117576    0.01772920453730
H         0.28582354789076    0.13635763464384    0.64025290481775
5
Properties=species:S:1:pos:R:3 energy:=T -11.291527815896=T gnorm:=T 0.000962140611=T xtb:=T 6.2.3=T (830e466)=T pbc="F F F"
C        0.44339497      -2.10005857       0.13040783
O       -0.57342389      -2.62203611       0.17492801
O        1.46099513      -1.57957804       0.08554059
H       -1.20046939       0.86051555       0.09000127
H       -0.86739683       0.96654717       0.78483230
