11
 energy: -17.577955341346 gnorm: 0.000584276045 xtb: 6.2.3 (830e466)
C         6.61948337491101    2.54483450244337    2.04403832144572
C         6.86363612178744    1.42035968890119    1.03167258516971
C         7.82922309694486    2.70453261842082    2.93963458396306
O         6.37684425179778    3.78974580483596    1.43135222665145
O         8.29826618875568    1.83443412546657    3.61425638332211
H         5.67649071121490    3.68764072694956    0.77772138788914
H         5.76923388929526    2.26443586590374    2.69084765980239
H         8.24925324664894    3.72489676546466    2.90725871495520
H         7.15777584982496    0.51761130607585    1.55917556635378
H         7.66007031478780    1.70815876539719    0.34890428942101
H         5.96073295403138    1.21967983014103    0.45802828102638
11
Properties=species:S:1:pos:R:3 energy:=T -17.576985492601=T gnorm:=T 0.000917928912=T xtb:=T 6.2.3=T (830e466)=T pbc="F F F"
C        6.84921407       1.69988379       2.20885124
C        6.69674983       2.22153596       0.77427034
C        7.86593281       2.49632771       2.97869627
O        6.31375275       3.56984941       0.72064954
O        7.70561398       2.93537475       4.08083344
H        5.49840733       3.68993909       1.22025812
H        5.89256386       1.72541627       2.73625571
H        8.81275960       2.65154048       2.42620644
H        7.19801386       0.66510794       2.16845620
H        7.65495337       2.17116643       0.25076140
H        5.97304854       1.59018816       0.23765131
