11
 energy: -17.578883898484 gnorm: 0.000580981960 xtb: 6.2.3 (830e466)
C         7.39172268145979    2.56905011059298    1.66571451115883
C         6.55096941236054    1.46622748889683    1.01977499891843
C         7.29167418900155    2.50528155753055    3.17958814572326
O         7.08868015661488    3.85450184909698    1.18058093098846
O         7.33433723416985    1.50160772316516    3.83085249445225
H         6.13950979602022    4.00688835841704    1.25983441829532
H         8.45060298580322    2.41454229027361    1.41651822849391
H         7.17663787693519    3.50434203548942    3.64724059515787
H         5.49410407624067    1.63123982203978    1.22549173356061
H         6.70371210341308    1.45835545415507   -0.05600382370884
H         6.83914948798099    0.50437331034258    1.43329776695990
11
Properties=species:S:1:pos:R:3 energy:=T -17.588324687012=T gnorm:=T 0.000509844766=T xtb:=T 6.2.3=T (830e466)=T pbc="F F F"
C        6.83919413       2.58880118       1.88916329
C        6.54053342       1.47412684       0.91148094
C        8.00054249       2.53604278       2.78091715
O        6.42462724       3.84381623       1.48650348
O        6.69344114       2.29739358       3.24613180
H        5.46931332       3.91881671       1.59665427
H        8.65581570       1.67382077       2.76400346
H        8.44283018       3.46648467       3.11256525
H        5.46760896       1.41025208       0.73847776
H        7.03832230       1.68076728      -0.03276622
H        6.88887112       0.52608790       1.30975880
