11
 energy: -17.576757394148 gnorm: 0.000247544593 xtb: 6.2.3 (830e466)
C         6.60510057320929    2.29385340983790    2.10242317256236
C         6.87901205124400    1.48363246215248    0.83104965363720
C         7.93048888311591    2.84014203817003    2.59109001104019
O         5.70211255601358    3.32482820079926    1.77237502397644
O         8.71186866973038    2.24319741980936    3.27437668752592
H         5.50416445323887    3.84861287222554    2.55589723044404
H         6.18205310529228    1.62845526507046    2.87121681756756
H         8.13253052625794    3.86850702880216    2.22898708188188
H         5.93854021934904    1.09936824291660    0.44667261724242
H         7.32523358740050    2.12680184710656    0.07702701141591
H         7.54980537514823    0.65889121310966    1.05210469270611
11
Properties=species:S:1:pos:R:3 energy:=T -17.539729737683=T gnorm:=T 0.000468154080=T xtb:=T 6.2.3=T (830e466)=T pbc="F F F"
C        5.76394247       1.93639047       1.61924692
C        6.81904585       1.26755470       0.81381804
C        7.94430542       3.62311283       2.87986299
O        5.83499079       3.05461920       2.06160495
O        8.49945698       2.55964221       2.90387518
H        7.35299284       4.00339210       3.72517956
H        4.87400735       1.31573277       1.83228849
H        8.05098659       4.32943936       2.04286906
H        6.43424908       0.41301046       0.26758186
H        7.29656595       1.97810670       0.14301674
H        7.59036667       0.93528922       1.51387622
