11
 energy: -17.576757482304 gnorm: 0.000949464716 xtb: 6.2.3 (830e466)
C         6.53571921273571    2.32169648770300    1.99512174975619
C         7.06113957514311    1.56681406221371    0.76931464942459
C         7.72501456842619    2.65029953126356    2.87369885849370
O         5.88239532081415    3.48508575253743    1.54006956315350
O         8.21640577211422    1.90696821924369    3.67295227972178
H         5.52223289440424    3.97133493194664    2.28909571651358
H         5.84331174775975    1.67088224581306    2.55137708539587
H         8.12989835718307    3.66567278653088    2.69059057284318
H         6.22896048039397    1.33983882407220    0.10941291705821
H         7.76967425461106    2.19163424887563    0.23229185126510
H         7.54615781641454    0.64628290980022    1.07906475637429
11
Properties=species:S:1:pos:R:3 energy:=T -17.587211648956=T gnorm:=T 0.000400336247=T xtb:=T 6.2.3=T (830e466)=T pbc="F F F"
C        6.12871874       2.79583941       2.28580507
C        7.70882911       1.33072935       0.83045009
C        7.47468897       2.40631543       1.85641554
O        5.88100936       4.09652970       2.64979927
O        6.94729846       2.02866149       3.10762754
H        5.50745530       4.11976892       3.53928856
H        5.26430931       2.26644699       1.88038777
H        8.24071364       3.17432633       1.92159883
H        6.90756446       0.59696247       0.86305217
H        7.74922564       1.77505120      -0.16091069
H        8.65109700       0.82587873       1.02947586
