11
 energy: -17.576752414312 gnorm: 0.000980427787 xtb: 6.2.3 (830e466)
C         6.59256702524196    2.36455742795769    2.08310992169087
C         6.86656138356554    1.33293037366264    0.98372388550793
C         7.92903524474030    2.91417544273830    2.53614594088985
O         5.76908130033191    3.37012329826228    1.53748491604202
O         8.64434582495086    2.40277012051812    3.34887013676510
H         5.57854956905495    4.03528315778508    2.20738484937133
H         6.09835019322401    1.86610418159312    2.93173663880948
H         8.20511055797473    3.85629449892427    2.02089986954353
H         5.91964882629830    0.94736753070044    0.61677625964299
H         7.39088279098120    1.80815486131457    0.15868742956110
H         7.46687728363624    0.51864910654348    1.37818015217580
11
Properties=species:S:1:pos:R:3 energy:=T -17.589042246734=T gnorm:=T 0.000859437209=T xtb:=T 6.2.3=T (830e466)=T pbc="F F F"
C        6.74189070       2.00225174       2.05997578
C        7.16811464       1.00346329       1.01703497
C        7.11550186       3.42045529       1.98702823
O        6.32894606       4.43168202       2.47508197
O        7.74857747       2.57081804       2.88098932
H        6.00161827       4.18930701       3.34991041
H        5.83167048       1.74956772       2.60051811
H        7.70870617       3.78209199       1.15278145
H        6.38925923       0.90804901       0.26383350
H        8.08984888       1.32742517       0.54063046
H        7.33687624       0.03129872       1.47521581
