11
 energy: -17.577936738982 gnorm: 0.000679645657 xtb: 6.2.3 (830e466)
C         6.67729589260692    2.47472045052405    2.15835397868599
C         6.78274098482500    1.42756052153966    1.04247689640680
C         8.06698754220477    2.85769128405525    2.61869501218790
O         6.02889276529771    3.65243486725614    1.73863993310192
O         8.84630469067772    2.10793768502852    3.13186797348105
H         5.17668649686306    3.42227104318131    1.35190524249184
H         6.14850963856951    2.02817686323063    3.01783127458500
H         8.30108387602131    3.91977478914213    2.42343526215543
H         5.79354867251479    1.07177963005403    0.76010593272754
H         7.26231064367092    1.86709697375508    0.17059686584884
H         7.37674879674828    0.58685589223322    1.38909162832767
11
Properties=species:S:1:pos:R:3 energy:=T -17.534887895773=T gnorm:=T 0.000940111363=T xtb:=T 6.2.3=T (830e466)=T pbc="F F F"
C        6.78294437       3.45968171       2.90068580
C        6.29026314       1.22006924       0.51649359
C        8.21882421       2.97545120       2.83562268
O        6.40148960       4.44894436       2.34553588
O        8.62726938       2.04874803       3.47430262
H        5.32300471       1.30518485       0.99357380
H        6.12659520       2.82016049       3.51696109
H        8.85625590       3.56719252       2.15483848
H        6.21949424       0.53280542      -0.31581757
H        6.59900235       2.19176316       0.15296146
H        7.01596690       0.84629902       1.22784218
