11
 energy: -17.580788604303 gnorm: 0.000825519868 xtb: 6.2.3 (830e466)
C         6.42833678465596    2.00041716948327    1.97098888036101
C         6.88921798667784    1.45799431903240    0.60760393421058
C         7.63832298944784    2.47857434530684    2.73501901762610
O         5.49546847543947    3.03384947082830    1.82748490671018
O         7.78123927178329    3.62135152674075    3.07343298176163
H         5.92854318749533    3.85377487879777    2.11778202753873
H         5.95974672486041    1.18225068816983    2.53944116418293
H         8.39617078440314    1.70359957476359    2.93761194842625
H         6.01895733727015    1.13098983144275    0.04653917718189
H         7.38868919910206    2.24353684739887    0.04561669065279
H         7.56809725886450    0.62066134803562    0.74107927134793
11
Properties=species:S:1:pos:R:3 energy:=T -17.516541985325=T gnorm:=T 0.000273827390=T xtb:=T 6.2.3=T (830e466)=T pbc="F F F"
C        6.49454147       1.82824865       1.80099740
C        6.82458551       1.24253546       0.43833665
C        8.64229849       3.18810864       3.50304131
O        5.83629613       3.06072865       1.61583015
O        8.08841093       4.14303117       3.75375147
H        5.60772651       3.43856348       2.47121525
H        5.85893246       1.13328389       2.36927850
H        7.43231550       1.97869622       2.37375091
H        5.90896586       1.08547811      -0.12524604
H        7.45552699       1.93255953      -0.11456707
H        7.34319015       0.29576619       0.55621146
