11
 energy: -17.576758916357 gnorm: 0.000417737460 xtb: 6.2.3 (830e466)
C         6.65125802747599    2.32424536987326    2.14617216382840
C         6.73185538816464    1.42210820525225    0.91040381247116
C         8.04062549910626    2.86768771717899    2.40946903113346
O         5.72942469736781    3.35442265237623    1.87072836451814
O         8.90212749642633    2.29284901976056    3.01012317180154
H         5.63949381851326    3.92646307735705    2.64034527187292
H         6.32795855475949    1.72431273036885    3.01118724091490
H         8.20389155148837    3.86957869495628    1.96389960056903
H         5.74515765063222    1.01995982963270    0.69876796368724
H         7.05981979081462    2.00594609093406    0.05417721805107
H         7.42928752525101    0.60881661230988    1.08783616115215
11
Properties=species:S:1:pos:R:3 energy:=T -17.570462163599=T gnorm:=T 0.000631332261=T xtb:=T 6.2.3=T (830e466)=T pbc="F F F"
C        6.37908073       3.14873931       2.30556397
C        7.44376881       0.92524463       0.91327000
C        7.67320284       2.85729013       2.25471082
O        5.95423823       4.25592799       3.01050315
O        8.27349657       1.81677194       1.61498824
H        4.99775262       4.32527577       2.95028437
H        5.61248938       2.56311896       1.81968845
H        8.39749706       3.47730496       2.75937742
H        6.72821541       0.43474830       1.58193882
H        6.89605430       1.43469638       0.11315100
H        8.10510403       0.17727165       0.47963377
