13
 energy: -23.800181108757 gnorm: 0.000608817873 xtb: 6.2.3 (830e466)
C        10.49537061715276    1.72375140899682    1.80225905692808
C         9.66709063990038    3.22611539676587    3.51705426547140
C         9.44207189144606    0.65156814990571    1.83735412581945
C         8.56229255065734    0.44548106427562    0.87270944769246
O        10.63297022852182    2.42090371905615    3.03927319824522
O         8.50409028086442    3.25604851605244    2.86011104644832
O         9.86419137323388    3.88094962525655    4.48906028605235
H         8.41698437841854    2.57348033767864    2.17576279301972
H        10.32114676320726    2.43055020248917    0.97964781401968
H        11.47875748574078    1.26367537921282    1.65952672872564
H         9.45901568141397    0.03384462756081    2.72507046898644
H         7.84337150217536   -0.35305728081826    0.92417394413602
H         8.54234660726762    1.04908885356767   -0.02170317554486
13
Properties=species:S:1:pos:R:3 energy:=T -23.749783848137=T gnorm:=T 0.000761230378=T xtb:=T 6.2.3=T (830e466)=T pbc="F F F"
C       10.32347354       1.18616028       0.98038433
C        9.66496461       4.11154402       4.24319286
C        9.01775612       0.60639624       1.26080866
C        8.58855761      -0.48468872       0.63213571
O       10.77050093       2.17796899       1.51538139
O        9.13345081       3.26552884       3.37716782
O        9.06392565       4.60756045       5.14505762
H        9.77853885       2.94349390       2.69861975
H       10.74053613       4.32611906       4.05741040
H       10.91594611       0.65075198       0.21915795
H        8.41613202       1.11029907       2.00573911
H        7.62338313      -0.91618274       0.83582358
H        9.19253450      -0.98255136      -0.11057916
