13
 energy: -23.812134386089 gnorm: 0.000986534594 xtb: 6.2.3 (830e466)
C        10.45398871041807    1.94251274083797    1.66238643622678
C         8.93030457438227    3.08218100193480    3.02770406167966
C         9.99838369828658    0.51687212374876    1.74728621228425
C         9.23879951081745   -0.06678429135453    0.84123593689644
O        10.17399197874135    2.64994744481392    2.87754614750340
O         8.81357473233241    3.67836903034500    4.21871700663175
O         8.03895500401351    2.98332927123251    2.23389200818786
H         7.91124246833960    4.01082753026749    4.33260143864191
H        11.54170427045000    1.99754649149967    1.56252597256919
H         9.97052015999104    2.45213272448820    0.82326028085888
H        10.33036211134874   -0.01056247404282    2.63102525071891
H         8.93366056814065   -1.09472727971044    0.93403741423613
H         8.89412221273834    0.46076568593949   -0.03212816643516
13
Properties=species:S:1:pos:R:3 energy:=T -23.808908822466=T gnorm:=T 0.000735038620=T xtb:=T 6.2.3=T (830e466)=T pbc="F F F"
C       10.38799820       2.20762928       1.47855530
C        9.52908937       2.14571684       3.58066670
C        9.37008074       1.09743922       1.59737093
C        8.90473447       0.29981175       0.65364767
O       10.60175789       2.60730447       2.82095379
O        8.57545436       3.10840727       3.81227052
O        8.98829205       1.03963533       2.91087199
H        8.19638369       3.41569151       2.97757080
H       11.33975050       1.86531246       1.06625402
H       10.01290631       3.04201480       0.86890996
H        9.88704623       1.84293419       4.57178557
H        8.17201597      -0.45197509       0.87479681
H        9.26410021       0.38248797      -0.35356406
