10
 energy: -13.516890966800 gnorm: 0.000960920380 xtb: 6.2.3 (830e466)
C        -2.17898610514230   -0.08183601064346   -0.35939335133954
C        -1.31121131286368    1.01088422229579   -0.80323876226545
C        -1.74166362722980   -1.04809510267461    0.71119481101869
O        -1.52437097924607   -0.12269521281938   -1.59370977399528
H        -3.25511743156018    0.07084366698051   -0.42914046065508
H        -0.31739680631365    1.10426966566825   -0.37837726834313
H        -1.74531688146174    1.93229178857870   -1.17495501759450
H        -0.66058428139270   -1.16177417406346    0.69599871863819
H        -2.19542069835373   -2.02236820036458    0.54347060499752
H        -2.05053187643615   -0.68041064295776    1.68745049953858
10
Properties=species:S:1:pos:R:3 energy:=T -13.507130345563=T gnorm:=T 0.000151240426=T xtb:=T 6.2.3=T (830e466)=T pbc="F F F"
C       -2.53320280      -0.66635470      -0.52688257
C       -0.71659692       0.83727735      -0.50379352
C       -2.46708115      -1.00399607       0.75112259
O       -1.74926641       0.19684441      -1.21454312
H       -3.27845910      -1.08178688      -1.19203031
H       -0.20838407       1.48005059      -1.22031013
H       -1.11700721       1.44521934       0.31380536
H       -0.00681355       0.11024848      -0.09632980
H       -3.16677586      -1.71021699       1.15582376
H       -1.73701294      -0.60617553       1.43243775
