10
 energy: -13.516890913510 gnorm: 0.000965897279 xtb: 6.2.3 (830e466)
C        -1.75475424579266   -0.23710593315712   -0.63137963173067
C        -1.51779332779359    1.20042731520323   -0.48502805429461
C        -1.88309040191582   -1.13920320879159    0.56896105253212
O        -0.50594642602899    0.32973633483275   -0.90136420007471
H        -2.29518749812132   -0.56993475213287   -1.51647586369522
H        -1.88386841857361    1.89044378774024   -1.23700956196237
H        -1.39495439515727    1.61877010240761    0.50835034651413
H        -1.52265880827397   -2.13664976029490    0.32724758014207
H        -2.92665533761379   -1.20626365270920    0.86920017550564
H        -1.29579114072897   -0.74933023309813    1.39658815706363
10
Properties=species:S:1:pos:R:3 energy:=T -13.520301678250=T gnorm:=T 0.000502861566=T xtb:=T 6.2.3=T (830e466)=T pbc="F F F"
C       -2.04024463       0.04520993      -0.58989683
C       -0.76411570       0.83303878      -0.56182758
C       -2.13687055      -0.93108605       0.57769032
O       -0.09833005       1.11746421      -1.51631445
H       -2.12692792      -0.47213230      -1.54676082
H       -2.85625337       0.77225588      -0.52452045
H       -0.47196742       1.16273276       0.45671405
H       -1.34610078      -1.67526336       0.51805662
H       -3.09413139      -1.44560173       0.55995985
H       -2.04575820      -0.40572812       1.52598927
