10
 energy: -13.520299118157 gnorm: 0.000390019586 xtb: 6.2.3 (830e466)
C        -2.08855778096970   -0.22998003147166    0.26525208836558
C        -1.84501127357114    0.79026785921957   -0.83786383314021
C        -0.98433388423886   -1.24066894802193    0.37488734281014
O        -0.00125704694283   -1.28433660946420   -0.30704718855601
H        -1.15529032124397   -1.98592085104266    1.17978195476727
H        -3.01989355491777   -0.77770688145005    0.09376800210374
H        -2.18453798213474    0.25986728178805    1.23847155697028
H        -0.91761208692177    1.32629445597835   -0.65352565506631
H        -2.66197641941457    1.50557149939217   -0.88587409534173
H        -1.75871964964466    0.28851222507235   -1.79816017291274
10
Properties=species:S:1:pos:R:3 energy:=T -13.449667496172=T gnorm:=T 0.000832734607=T xtb:=T 6.2.3=T (830e466)=T pbc="F F F"
C       -2.93608695      -0.09490218       0.12777959
C       -2.41500658       0.68816346      -0.79689853
C       -0.14300832      -0.78223344       0.16780906
O       -0.06782458      -1.67608885      -0.62059154
H       -0.53404462      -0.91759197       1.18990402
H       -3.22285733      -1.11163841      -0.08379530
H       -3.11225566       0.24908095       1.13455831
H        0.20611414       0.24021646      -0.05261419
H       -2.14039812       1.71048833      -0.59101812
H       -2.25182199       0.34640564      -1.80544330
