10
 energy: -13.520298628744 gnorm: 0.000675405597 xtb: 6.2.3 (830e466)
C        -2.32153311402774   -0.30668540326471    0.21217882207243
C        -2.12569034715703    0.88695142331071   -0.71221469073240
C        -1.12239345021114   -1.20807021458544    0.26042712540000
O        -0.09970609024614   -1.05130888329795   -0.34212033180729
H        -1.26170906656062   -2.08048108368878    0.93391128066412
H        -3.17545919674515   -0.91194309318618   -0.10584142382873
H        -2.52845196232468    0.02052840879040    1.23529688155331
H        -1.27660658897869    1.48027486117001   -0.38165117440934
H        -3.01286708377755    1.51526154555005   -0.72106548864019
H        -1.92468309997127    0.54626243920188   -1.72502100027191
10
Properties=species:S:1:pos:R:3 energy:=T -13.460506636987=T gnorm:=T 0.000997206090=T xtb:=T 6.2.3=T (830e466)=T pbc="F F F"
C       -2.64991447      -0.26421843       0.38729555
C       -2.20223879       0.82672712      -0.57302102
C        0.07751848      -1.83609303       0.20256059
O        0.47216085      -1.51796859      -0.80763447
H       -1.82025413      -0.93830548       0.61573909
H       -3.45588873      -0.85191189      -0.04682933
H       -3.00126018       0.16674119       1.32193744
H       -1.40485194       1.42146626      -0.13236989
H       -3.03053802       1.48989355      -0.81259966
H       -1.83383306       0.39445930      -1.50117830
