10
 energy: -13.520301634225 gnorm: 0.000292836065 xtb: 6.2.3 (830e466)
C        -1.05597511254994   -0.16273836922643   -0.10850482233286
C        -2.09585604679845    0.88299714015820   -0.49663775664228
C        -1.68691731141948   -1.46326990371731    0.29308101325139
O        -1.27745975781843   -2.55317779884336    0.01128362785528
H        -2.59907039064605   -1.33819169071304    0.91234618010657
H        -0.34811721177698   -0.33794410693957   -0.92010786508799
H        -0.49185373204852    0.19042374259995    0.76069766535582
H        -1.61100873353327    1.82820700789112   -0.72651901978350
H        -2.79901206639377    1.04556379601789    0.31753852140063
H        -2.65192963701512    0.56004018277254   -1.37367754412301
10
Properties=species:S:1:pos:R:3 energy:=T -13.514264476074=T gnorm:=T 0.000353735777=T xtb:=T 6.2.3=T (830e466)=T pbc="F F F"
C       -1.55859473       0.03273599       0.55524918
C       -1.95096974       0.99133617      -0.52658247
C       -1.34033032      -1.26796128       0.41796698
O       -1.42466071      -2.00242873      -0.72024148
H       -1.05932114      -1.89016199       1.25468176
H       -1.67643544      -1.42891408      -1.45446674
H       -1.44726469       0.46270009       1.53817663
H       -1.20559868       1.78181506      -0.61429438
H       -2.90330241       1.46186272      -0.28205139
H       -2.05072213       0.51092605      -1.49893809
