10
 energy: -13.520298608704 gnorm: 0.000681731234 xtb: 6.2.3 (830e466)
C        -2.09355000889235   -0.30551858127899    0.23245656638228
C        -1.87722631944925    0.86636957242104   -0.71491380546532
C        -0.93714848090689   -1.26220732819260    0.24798378744876
O         0.06824659578689   -1.16113431727296   -0.39427141210601
H        -1.09121327130433   -2.11854361340227    0.93866762219500
H        -2.98646378055223   -0.87330809970456   -0.04497845855469
H        -2.24571892284912    0.04332359464123    1.25804067822466
H        -0.98922285895484    1.42262933360693   -0.42461050421322
H        -2.73360043689674    1.53592772407338   -0.69909730735168
H        -1.73120251598113    0.50446171510880   -1.72977716655979
10
Properties=species:S:1:pos:R:3 energy:=T -13.464606743325=T gnorm:=T 0.000550940173=T xtb:=T 6.2.3=T (830e466)=T pbc="F F F"
C       -1.26976154       0.28153091       0.15418699
C       -1.79154585       1.28680744      -0.83708132
C       -0.44882575      -0.67187879      -0.13953916
O        0.29199290      -1.53491565      -0.39542525
H       -2.78386614      -3.02057622       1.24842190
H       -3.23111703      -2.68000921       0.71261512
H       -1.60761849       0.36624255       1.17433373
H       -1.50378071       2.29456269      -0.53905825
H       -2.87924133       1.24170878      -0.88075214
H       -1.39333606       1.08852751      -1.82820163
