12
 energy: -21.568771014189 gnorm: 0.000481133144 xtb: 6.2.3 (830e466)
C         1.41207934103069    1.42706924274075   -2.16111216159102
C         0.57600555168512    0.56735507082290   -1.21237530074620
C         1.25947268945781   -0.71111220208158   -0.84055159318346
O         0.76751631849362    2.61945493096622   -2.52413987162992
O         0.64558643625869    3.47009162414228   -1.38413008919958
O         2.34889321706982   -1.05443826337300   -1.20252099193983
H         0.79565065216338    4.34855829960941   -1.75675692922610
H         1.56185750349530    0.92036764181303   -3.11728691372827
H         2.38928111376231    1.63588832289274   -1.70881852100931
H         0.65105537512623   -1.34935292568186   -0.16834617751208
H         0.37369199622062    1.13175468282245   -0.29739661295821
H        -0.39208019476368    0.33407357532667   -1.66237483727609
12
Properties=species:S:1:pos:R:3 0.000403440555=T 6.2.3=T gnorm:=T pbc="F F F" -21.561955621633=T energy:=T xtb:=T 830e466=T
C       1.90258812       1.43967243      -2.28137210 
C      -0.26242214      -0.09470610      -1.24334952 
C       0.94665295      -0.05638479      -0.71263009 
O       1.00103297       2.50002791      -2.21341832 
O       1.54335231       3.58858185      -1.49204031 
O       2.01708693       0.69783228      -1.10339990 
H       1.13999562       3.53051572      -0.61262965 
H       1.51952605       0.82436269      -3.10758714 
H       2.91415402       1.79946149      -2.50238793 
H       1.23044681      -0.65319894       0.14307893 
H      -0.55777916       0.51446111      -2.07859552 
H      -1.00562448      -0.75091564      -0.83147847 
