12
 energy: -21.565670053339 gnorm: 0.000967380999 xtb: 6.2.3 (830e466)
C         1.36038512371774    1.56352242667881   -1.70574322945201
C         0.49644360131543    0.38488160154082   -1.27350810354103
C         1.30516124622931   -0.83917601560495   -0.96194560984817
O         0.47830741578051    2.64618777637905   -1.90286269391104
O         1.21693404079821    3.76449478160617   -2.38709255260162
O         2.49666409037808   -0.92689546231365   -1.02437934234390
H         0.66871630253386    4.51200551195361   -2.11411180735069
H         2.09935015763293    1.80646083457448   -0.93179385044425
H         1.89265611059271    1.33486857096951   -2.63619369101304
H         0.67964813347264   -1.69964612628523   -0.65294395165762
H        -0.22261585148444    0.13902004612410   -2.05877751898675
H        -0.08275037096697    0.65397605437728   -0.38635764884988
12
Properties=species:S:1:pos:R:3 6.2.3=T gnorm:=T pbc="F F F" -21.510035009050=T energy:=T xtb:=T 0.000764708157=T 830e466=T
C       1.35038757       1.71270005      -1.15411406 
C       0.76292681       0.56677629      -0.77823372 
C       1.57512994      -0.60819916      -0.51321453 
O       0.64710590       2.81563459      -1.41031048 
O       1.48240339       3.89628922      -1.79851658 
O       2.77862007      -0.66461545      -0.59757672 
H       0.84964143       4.60026323      -2.00107665 
H       2.42699528       1.77915362      -1.26513350 
H       0.09734423       0.13823695      -3.47033556 
H       0.98460329      -1.49675892      -0.21939938 
H      -0.25933360       0.10278368      -4.16127760 
H      -0.30692431       0.49743590      -0.66652122 
