12
 energy: -21.566729661020 gnorm: 0.000280575156 xtb: 6.2.3 (830e466)
C         1.46144582664356    1.41490244428136   -2.45041953635625
C         0.27253161247553    0.54586460994228   -2.00052893726906
C         0.54517988538409    0.01687978917404   -0.61391366830950
O         1.53944115914817    2.63202617734035   -1.76635434301048
O         1.89595623854453    2.38498158473602   -0.40453497102173
O         1.31732693380685   -0.86776331238014   -0.37651532651316
H         2.08497476106224    3.27407438112516   -0.07651600413683
H         2.39330037790230    0.84808153826337   -2.33493298532443
H         1.33887839101448    1.72485539689227   -3.49097698507708
H        -0.01539222846289    0.52110081730204    0.19348491928599
H         0.19679694195124   -0.29288762756914   -2.69314564105735
H        -0.64134989947005    1.13779420089237   -2.02155652121007
12
Properties=species:S:1:pos:R:3 6.2.3=T gnorm:=T pbc="F F F" 0.000511769697=T energy:=T -21.571988535348=T xtb:=T 830e466=T
C       1.49992765       1.41881603      -2.84620207 
C       0.58834267       0.48753887      -2.05915419 
C       1.44727264       0.22788508      -0.82532666 
O       2.32089785       2.03570940      -1.86476715 
O       2.44850521       1.12381985      -0.79368999 
O       1.31821000      -0.61271930       0.00799940 
H      -0.18632554       2.16054136       0.93933393 
H       2.12160953       0.86201341      -3.56044321 
H       0.98585145       2.23245068      -3.35743626 
H      -0.16611993       2.87406956       0.63069671 
H       0.34679891      -0.44036732      -2.57057365 
H      -0.33588042       0.97015241      -1.73634686 
