12
 energy: -21.513286441202 gnorm: 0.000221160019 xtb: 6.2.3 (830e466)
C         0.23125480404486    1.22000149446545   -2.44003873751009
C        -0.47095216115451    0.81989766242264   -1.14961678947436
C         2.54285486358686   -0.10245602220283   -1.13085407768789
O         1.60909363523780    1.49612935095837   -2.27651417437896
O         1.80397571773877    2.65728126023373   -1.49019819631018
O         3.10789283163664    0.50407166835062   -0.34515584821305
H         2.42564227194422    2.36610743543857   -0.79834989479351
H        -0.25566263532559    2.09117430410906   -2.89253134045996
H         0.24778168307583    0.39386205374601   -3.15399087798877
H         0.01377852682490   -0.05316068504331   -0.71790815432472
H        -1.50969038051808    0.58364759052731   -1.35932164394206
H        -0.43589915708461    1.63894388698617   -0.43443026492089
12
Properties=species:S:1:pos:R:3 830e466=T 0.000251328566=T gnorm:=T pbc="F F F" energy:=T xtb:=T 6.2.3=T -21.562783921604=T
C       0.33430975       0.80404081      -2.32430779 
C      -0.67533027       0.67668277      -1.19994296 
C       2.50377919       0.36186750      -1.47671286 
O       1.47636059      -0.07404945      -2.06148736 
O       2.12000242       2.84427594      -1.04316081 
O       2.94670477       1.36657503      -1.02994340 
H       2.75733373       3.39878116      -0.59122237 
H       0.68940881       1.83176885      -2.41104469 
H      -0.07008845       0.45009627      -3.27386697 
H      -0.94974975      -0.36477400      -1.04876471 
H      -1.56607189       1.24613424      -1.44996657 
H      -0.25658890       1.07410087      -0.27848952 
