10
 energy: -20.529388776590 gnorm: 0.000396322741 xtb: 6.2.3 (830e466)
C         1.26266771641288    1.82017627674956   -1.66303111614199
C         0.74431948821968    1.14656374641750   -0.62907805253094
C         1.12233602365791   -0.23752631975790   -0.40186367229571
O         1.05059480256052    3.07735215356828   -2.03780743939437
O         0.13793720055429    3.77960217734848   -1.20086494583628
O         1.89283975672260   -0.87455340918734   -1.08023972363226
H         0.12475985279061    4.65923185408259   -1.60417288195939
H         1.96542105835811    1.36105889613515   -2.34866970683581
H         0.63359966207581   -0.69357076339484    0.47972557297376
H         0.04692443864760    1.61595538803856    0.04498196565293
10
Properties=species:S:1:pos:R:3 0.000469529949=T 6.2.3=T gnorm:=T -20.596954255664=T pbc="F F F" energy:=T xtb:=T 830e466=T
C       1.37581187       1.99839502      -2.10940563 
C       0.40079074       1.56142094      -1.03323988 
C       1.07270537       0.45850222      -0.21992210 
O       1.77251436       3.12750322      -2.17023457 
O       0.01100115       2.62898245      -0.22984278 
O       1.40529859      -0.60019593      -0.66015867 
H       0.50527423       3.41265029      -0.52668433 
H       1.69347547       1.19856849      -2.79258292 
H       1.21878316       0.75352452       0.83288814 
H      -0.47425495       1.11493879      -1.53183726 
