12
 energy: -21.559757947636 gnorm: 0.000778660651 xtb: 6.2.3 (830e466)
C         2.30074340386554    1.32315641730810   -2.07065955532422
C         0.54728553020782    0.24151125137451   -0.95445949874684
C        -0.36211405912631    0.13785648709463   -0.00298650492571
O         1.59051248657958    1.82688114192016   -3.16114494537191
O         1.53066278727333    1.19514506168827   -0.91653385489462
O         1.38018008301537    3.21877995799757   -3.03797651321244
H         0.50391833177473    3.30648496266845   -2.63072677820345
H         2.66467627503432    0.35071314118466   -2.43317484885806
H         3.13886871487882    1.97814117056788   -1.80734237660680
H         0.57304639680307   -0.41577967670602   -1.81697393591680
H        -1.10996499264533   -0.63054351605512   -0.04116000046106
H        -0.36872495766090    0.80765360095689    0.83704881252188
12
Properties=species:S:1:pos:R:3 energy:=T -21.562363062302=T gnorm:=T 0.000881683790=T xtb:=T 6.2.3=T (830e466)=T pbc="F F F"
C        2.48081654       1.77042177      -2.31024534
C        0.00191508       0.18236906      -1.19051739
C       -0.71622608      -0.06173281      -0.10997652
O        1.15850318       1.51399234      -2.68680141
O        2.69599509       3.04197357      -1.81434440
O        0.29008626       1.46226625      -1.56533612
H        2.28396553       3.68865815      -2.40122382
H        2.82468221       1.07426408      -1.53369048
H        3.02635378       1.58684819      -3.25157435
H        0.38670606      -0.58813916      -1.84632430
H       -0.96156347      -1.06847863       0.16649635
H       -1.08214418       0.73755720       0.50744778
