12
 energy: -21.614998338582 gnorm: 0.000732111733 xtb: 6.2.3 (830e466)
C         0.39883762237642    0.75359905635178   -2.96004198351964
C         0.35186546160580    0.61857096043834   -1.46409720609990
C         1.28438044245270   -0.44324229489434   -0.95945132859463
O        -0.54483427682158    1.00213286179218   -3.65338163118908
O         1.79318408549719    3.22416228913337   -0.56714198598314
O         2.35697457906652   -0.70044393462826   -1.42748669591522
H         1.63573716418424    4.12239675174105   -0.86760607339759
H         2.74380020612128    3.10367511434061   -0.50755730494552
H         1.41029127657431    0.60019268724441   -3.37705079822157
H         0.89839762336259   -0.99170809562507   -0.07879412811412
H        -0.66850676247593    0.47759947777963   -1.10926171814474
H         0.72886257805425    1.57265512632690   -1.06391914587582
12
Properties=species:S:1:pos:R:3 6.2.3=T gnorm:=T pbc="F F F" -21.624237535555=T energy:=T xtb:=T 830e466=T 0.000627133935=T
C       0.16016513       0.45556444      -3.23420715 
C       0.25093352       0.91136217      -1.79734129 
C       1.51090237       1.71612140      -1.57262641 
O      -0.83859371       0.47166134      -3.88871541 
O       1.25828998       2.84053437      -0.90284623 
O       2.60564387       1.40151351      -1.94820177 
H       2.07119212       3.35280717      -0.76378023 
H       2.56311391       0.20499884       0.95043718 
H       1.12508751       0.09236670      -3.63086615 
H       1.99005941       0.39882562       1.43884043 
H      -0.62898286       1.48365153      -1.50504166 
H       0.32117875       0.01018291      -1.18144132 
