12
 energy: -21.561956363839 gnorm: 0.000939736020 xtb: 6.2.3 (830e466)
C         1.75155823356464    1.32729318195243   -2.45572585018027
C         1.12788925837074    0.09832390541500   -0.52817110590892
C        -0.14179421103467   -0.07308543608342   -0.84900353343055
O         0.81929109909255    2.36269157568404   -2.41712640216653
O         2.08494706955844    0.80171937838907   -1.20516479960662
O         1.41033821909367    3.56876207057306   -1.97622221391787
H         1.16533106406751    3.63928550510037   -1.04124653800488
H         2.69689860852344    1.66686151161295   -2.89385746493304
H         1.27566679706040    0.57128348652390   -3.09554778209119
H         1.56878077109652   -0.32454432762188    0.36419086616675
H        -0.59267210465703    0.36655956013601   -1.72049926597488
H        -0.77684480473613   -0.66514041168158   -0.21753590995190
12
Properties=species:S:1:pos:R:3 energy:=T -21.599077515354=T gnorm:=T 0.000573007530=T xtb:=T 6.2.3=T (830e466)=T pbc="F F F"
C        1.92968440       1.43162259      -2.65281447
C        1.34344406       0.70376302      -0.54395424
C       -0.11643631       0.94291578      -0.94955721
O        0.60000220       1.56010709      -3.04848245
O        2.11244011       0.42462487      -1.70095370
O       -0.17202342       1.96523163      -1.92213417
H        1.73930396       1.60138408      -0.04536678
H        2.30941809       2.39633884      -2.26518735
H        2.47069102       1.13695465      -3.55478482
H        1.43991428      -0.16131377       0.11099602
H       -0.55512639       0.01871150      -1.34609379
H       -0.71192200       1.31966974      -0.11757704
