12
 energy: -21.516428981863 gnorm: 0.000932537806 xtb: 6.2.3 (830e466)
C         0.20553913595482    1.19881347619325   -2.44552346863246
C        -0.30502824866932    1.14577000967040   -1.22402505113012
C         2.18107865984863    0.05476535811411   -0.75475555506550
O         1.07266604226327    2.09890316390378   -2.95189448858581
O         1.44568843613177    3.12023141422236   -2.05056255014271
O         2.92525016911549    0.93511696243486   -1.08484356315849
H         2.29424504029464    2.81179164752151   -1.68610074351265
H         1.68075584627881    0.03788182689286    0.22551181055088
H        -0.00985642978047    0.48236995596704   -3.22713583540370
H         1.98996658831504   -0.82718705455226   -1.38517644619297
H        -0.99401162177402    0.36957327630346   -0.95267512545260
H        -0.09698361797885    1.91206996332853   -0.49861898327300
12
Properties=species:S:1:pos:R:3 -21.563361431580=T 6.2.3=T gnorm:=T pbc="F F F" energy:=T 0.000639714772=T xtb:=T 830e466=T
C       1.08795437       0.95474953      -1.82469142 
C       0.03918223       0.95730445      -0.70594903 
C       2.03508816      -0.21525991      -1.65354123 
O       1.85389537       2.13100181      -1.85037967 
O       1.03597486       3.21182426      -2.30193023 
O       3.22664418      -0.17095034      -1.61902187 
H       1.68808216       3.91505732      -2.41585820 
H       0.52975695       1.04025162       0.26066071 
H       0.58088116       0.82613013      -2.79613840 
H       1.47885777      -1.16804830      -1.54986965 
H      -0.54924275       0.04544804      -0.73856777 
H      -0.61776446       1.81259139      -0.84051325 
