12
 energy: -21.559096937138 gnorm: 0.000877895999 xtb: 6.2.3 (830e466)
C         1.97749094028009    1.15162780253067   -2.63907001738462
C         0.75167594331974    0.39046569351472   -0.78976725348833
C        -0.32087273054707   -0.14659789742060   -0.23762142060461
O         1.54286431442274    2.45082065617464   -2.88527819630437
O         0.99452241152622    0.30851045271737   -2.13556355726867
O         1.51645378275171    3.19831094810513   -1.66647053067290
H         0.85071145858810    3.87540562343645   -1.84905428191473
H         2.86257371559836    1.17248272777014   -1.98115475426647
H         2.24021747874778    0.77609513542383   -3.63308304858964
H         1.50621416103827    0.91330921560072   -0.21134835185667
H        -1.06037431459905   -0.65214743827372   -0.83094278582506
H        -0.47227716112680   -0.09848291957935    0.82335419817605
12
Properties=species:S:1:pos:R:3 energy:=T -21.541057023002=T gnorm:=T 0.000398063326=T xtb:=T 6.2.3=T (830e466)=T pbc="F F F"
C        2.18860727       1.16207587      -2.48178429
C        1.10153718      -0.01631472      -0.85250796
C        1.00354949       1.12025280      -0.17086924
O        1.42877005       2.26850316      -2.11676064
O        1.57689878      -0.05207073      -2.14044385
O        1.33270946       2.34188647      -0.70028963
H       -1.35538354       2.19470361      -2.34260971
H        3.19274025       1.21369060      -2.02713530
H        2.25807067       1.20865130      -3.57116445
H        0.81454451      -0.97965839      -0.47484388
H       -1.81448871       1.66747645      -2.00121032
H        0.66164459       1.21060357       0.84361927
