12
 energy: -21.579061076733 gnorm: 0.000571385734 xtb: 6.2.3 (830e466)
C         1.76131451317590    1.34272259991223   -2.35377213670540
C         0.23757894960347    0.07835475375294   -0.73806128644492
C         1.59815091812652    0.20052200531805   -1.34722638968108
O         0.70594319618860    2.26545640545738   -2.40556439846190
O         0.67620130054632    3.05612617966782   -1.22258706490252
O         2.52584692302256   -0.52628475381218   -1.10218526464623
H         0.67206569026376    3.96345371577706   -1.55668322730117
H         2.72310424865139    1.84092775003074   -2.17399119585386
H         1.77754747005961    0.91230418933198   -3.36034216900615
H         0.17304151654947   -0.81927939793083   -0.13070516486169
H        -0.51540772289421    0.06826772201388   -1.52301334138566
H         0.05410299670663    0.95751883048093   -0.12176836074942
12
Properties=species:S:1:pos:R:3 6.2.3=T gnorm:=T pbc="F F F" 0.000273770216=T energy:=T -21.616829014273=T xtb:=T 830e466=T
C       1.21482728       1.03696118      -2.75779672 
C       0.15962269       0.08208851      -0.65683311 
C       1.36313831       0.13277325      -1.53759562 
O       0.16670420       1.41045568      -3.20827934 
O       1.65333859       2.86959154      -1.16133733 
O       2.39388255      -0.46579121      -1.35779499 
H       1.09357605       3.52609915      -1.58509475 
H       2.55681386       3.19419552      -1.19490071 
H       2.18203781       1.25664415      -3.24618986 
H       0.21182896      -0.75690276       0.03040631 
H      -0.73896169       0.04002247      -1.26772565 
H       0.13268140       1.01395250      -0.09275823 
