12
 energy: -21.605521812803 gnorm: 0.000365898420 xtb: 6.2.3 (830e466)
C         1.33239526172762    1.68895750472310   -2.68768434805358
C         0.22356818460964    1.07647181345999   -1.81839513204210
C         1.05203855503874    0.37474869019689   -0.70926099727813
O         2.49459474691911    1.63886304909011   -1.88634127764472
O         0.88655832888791    0.96548828161451    0.53644131457912
O         2.38011502040489    0.41874985115072   -1.15817872777221
H         1.36794888188907    1.80393833288212    0.54614512029849
H         1.17639815629877    2.74038806917713   -2.92782732630934
H         1.47805803666920    1.11146257795329   -3.60893357123581
H         0.80276082083076   -0.68270629683693   -0.58521971030013
H        -0.41555860877782    1.83095024723450   -1.36297096517580
H        -0.38967738449788    0.37278787935458   -2.37337437906579
12
Properties=species:S:1:pos:R:3 6.2.3=T gnorm:=T pbc="F F F" energy:=T -21.561032957229=T 0.000975783184=T 830e466=T xtb:=T
C       1.03129854       1.48053915      -2.85727678 
C       0.66166901       0.02133547      -2.88383771 
C       0.65585630      -0.39327313      -1.62745733 
O       1.20008530       1.77024364      -1.47764352 
O       1.64619072       2.73534176       1.42526756 
O       0.96612825       0.56419270      -0.72433526 
H       1.47759694       1.87487065       1.03119633 
H       0.23921499       2.12345837      -3.26542621 
H       1.97210769       1.68439221      -3.38805074 
H       0.45066386      -1.34986150      -1.18728345 
H       1.63407278       3.35776528       0.69479050 
H       0.45431562      -0.52890459      -3.77554339 
