10
 energy: -20.588178769271 gnorm: 0.000732407963 xtb: 6.2.3 (830e466)
C         1.31811266494447    1.43001308190196   -3.01288337365744
C         0.94714687694763    0.31090302062160   -2.05027916865330
C         1.73504727377476    0.73119729402979   -0.81361852047894
O         2.58537419734310    1.88622065373274   -2.56207010360169
O         2.63569455556359    1.66441645733280   -1.16767904018584
O         1.62123914019011    0.34759880831833    0.30754115183560
H         0.58820017809339    2.25001211574553   -2.97353176185590
H         1.46697700209282    1.11294883464400   -4.04456528476433
H         1.31338091735950   -0.66468795769547   -2.37311644344635
H        -0.11467280630936    0.23758769136873   -1.83408745519182
10
Properties=species:S:1:pos:R:3 6.2.3=T gnorm:=T pbc="F F F" -20.536856964161=T energy:=T xtb:=T 830e466=T 0.000743812954=T
C       0.55273380       1.48062277      -3.09663875 
C       0.43219303       0.74598183      -2.00137884 
C       1.38232193       0.74238555      -0.87191224 
O       3.15169062       0.70411017      -2.44852350 
O       2.71799330       0.77348681      -1.10317470 
O       1.05713301       0.71736608       0.28323247 
H       1.40496202       2.11276405      -3.27650766 
H      -0.21507996       1.48107581      -3.85203791 
H       4.06458321       0.39459208      -2.34850094 
H      -0.45203097       0.15382487      -1.80884792 
