12
 energy: -21.539968170681 gnorm: 0.000894600308 xtb: 6.2.3 (830e466)
C         1.76783716584787    1.35252680800969   -3.14258445683701
C         0.01927715689012    0.33904949322854    0.27470243789776
C         0.67608376338275   -0.71455062717838   -0.06238079888824
O         1.92125661724540    2.64796068184118   -2.63090797869571
O         0.95176780945942    2.86808336256249   -1.60182301696687
O         1.28053190923714   -1.65555003552209   -0.38673547662586
H         1.04083218342890    3.81563943434905   -1.44050395037996
H         2.51221653649322    1.29467889533720   -3.93408484314453
H         0.76673599456712    1.20424945078855   -3.55728549648590
H         1.96847987697381    0.59259872349777   -2.38209581528918
H        -0.69601545087270    0.32818323612652    1.07132061269795
H         0.18007643734772    1.26702057695881   -0.24332121728198
12
Properties=species:S:1:pos:R:3 6.2.3=T gnorm:=T pbc="F F F" -21.566067520389=T energy:=T 0.000853769786=T xtb:=T 830e466=T
C       1.85812592       0.15742798      -2.99180225 
C       0.19179156       0.87065007       0.12905853 
C       0.77195202       0.98750479      -1.05650555 
O       0.93248157       2.16109571      -1.76752452 
O       0.34544711       3.27283467      -1.15001891 
O       1.31353192      -0.06449956      -1.70478012 
H       1.08553682       3.75017104      -0.74486063 
H       2.71631712       0.83274703      -2.94959836 
H       1.11197983       0.56983935      -3.67422948 
H       2.17855383      -0.82164233      -3.34033382 
H       0.12523015      -0.09251433       0.59142270 
H      -0.24186785       1.71627558       0.62347240 
