12
 energy: -21.539746205084 gnorm: 0.000632583789 xtb: 6.2.3 (830e466)
C         1.66517102984294    1.24750876281380   -3.16932885491817
C         0.10875833084731    0.35510212688657    0.36204418995703
C         1.18823346943015   -0.33799148585129    0.26989068740257
O         0.53385198849716    2.02324538845938   -2.86012218334813
O         0.77505583978064    2.82892847153245   -1.71856618452005
O         2.17451027738849   -0.95015944610008    0.16461480066255
H         0.83699756593899    3.73071013820398   -2.06509160151613
H         2.51815760688388    1.87374681559701   -3.45078706255536
H         1.94387814385876    0.59549788276009   -2.33834344442925
H         1.34548467411312    0.64941403165609   -4.02034629902822
H         0.03041500934929    1.29629013994571   -0.14936090499474
H        -0.73149393593071    0.02739717409634    0.93959685728591
12
Properties=species:S:1:pos:R:3 6.2.3=T gnorm:=T pbc="F F F" -21.505849282315=T energy:=T 0.000915826744=T 830e466=T xtb:=T
C       1.84972325       0.96759920      -3.21714602 
C       0.60492898       0.51886375      -0.44876928 
C       1.37423719      -0.51796821      -0.23531473 
O       0.74337065       1.51038096      -2.55751597 
O       1.00311407       1.62868716      -1.13746428 
O       2.02439271      -1.44100606       0.02533230 
H      -0.27361109       3.66209869      -0.20566867 
H       1.53783743       0.90060713      -4.25839618 
H       2.72973903       1.61174221      -3.13058884 
H       2.08799504      -0.03625931      -2.84130337 
H      -0.86178835       4.07154605       0.09888885 
H      -0.43091891       0.46339843      -0.12785380 
