12
 energy: -21.640526622303 gnorm: 0.000443152798 xtb: 6.2.3 (830e466)
C         1.65844736303295    2.30437474582882   -1.77438738290859
C         0.25134622637211    0.43465618138825   -1.46680701968194
C         1.18686825647358   -0.75037088003639   -1.47635047105111
O         0.67327174331670    1.47361835529464   -2.32688133782307
O         1.18560752989004    3.06743684949197   -0.71311359334341
O         1.10706874864544   -1.69193175778341   -0.74197908069712
H         0.45950593061961    3.62467368814132   -1.01975802583886
H         2.49903722449790    1.72415435353421   -1.37075681774322
H         2.00394126780186    2.92896915139747   -2.60955451466052
H         1.96694033877786   -0.67965500198852   -2.26026272715761
H        -0.72482876777339    0.10351083070512   -1.83658958012552
H         0.12190413834545    0.80056348402613   -0.43935944896876
12
Properties=species:S:1:pos:R:3 0.000778258871=T 6.2.3=T gnorm:=T pbc="F F F" energy:=T xtb:=T 830e466=T -21.582108785413=T
C       1.62690693       2.28739621      -2.29794339 
C       0.37694349       0.38832622      -2.75247685 
C       1.00179882      -0.34559736      -1.87713995 
O       0.45283022       1.77892886      -2.85264108 
O       1.83393834       1.84867754      -0.99537712 
O       1.53344105      -1.12522088      -1.19018376 
H       1.10992637       2.14706159      -0.42826528 
H       2.51053547       1.94893933      -2.85995448 
H       1.53138935       3.37931456      -2.36470716 
H       0.68779735       0.44186323       1.30705379 
H      -0.32880169      -0.04972173      -3.43664329 
H       0.05240432       0.64003243       1.71247857 
