6
 energy: -15.261630173375 gnorm: 0.000488325050 xtb: 6.2.3 (830e466)
C         1.76589176652778    0.85099364666495    0.15489155036783
O         1.34039206688267    1.98235750828099   -0.39457534836047
O         2.26006649077555    3.06630943965666   -0.33003184834056
O         2.79519940987290    0.61186024067471    0.68806651851903
H         1.79112623103957    3.76986850845927   -0.80152274844938
H         0.92072403490154    0.14991065626342    0.00598187626355
6
Properties=species:S:1:pos:R:3 6.2.3=T gnorm:=T pbc="F F F" 0.000838791813=T energy:=T xtb:=T 830e466=T -15.181708636509=T
C       2.50762687       0.49376248       0.49212052 
O       0.55622674       2.14805635      -0.78169069 
O       1.72388622       2.61155614      -0.12706535 
O       3.53782233       0.65638597       0.92761678 
H       2.05533065       3.28367267      -0.73893544 
H       0.49250719       1.23786640      -0.44923582 
