12
 energy: -21.567413884055 gnorm: 0.000855147182 xtb: 6.2.3 (830e466)
C         1.57302551524281    0.44710856052912   -2.73895784984214
C         1.31110864461996    1.21334087967348   -1.44282459943224
C         0.82865686574515    0.27082740180299   -0.35493270431837
O         0.35660748958266    2.20245790858262   -1.74686575190504
O         0.18649571603595    3.05843873080084   -0.61523620524970
O         1.45265176467007   -0.66584068460124    0.05076220109378
H        -0.28723294058835    3.80807847883575   -0.99886184277908
H         2.26317745849414   -0.36575774273457   -2.53450404083852
H         1.99701629772114    1.11103779558792   -3.48654995257150
H        -0.17042474263440    0.52895918858104    0.03885556084454
H         0.63800813944411    0.04222971775261   -3.11723436036017
H         2.24001979166680    1.68931976518944   -1.08944045464156
12
Properties=species:S:1:pos:R:3 0.000914355140=T -21.617861631692=T 6.2.3=T gnorm:=T pbc="F F F" energy:=T xtb:=T 830e466=T
C       1.58582335      -0.03789093      -3.06469381 
C       1.29339157       0.93572242      -1.97358967 
C       0.94064884       0.29527723      -0.62903707 
O       1.31557706       2.13862126      -2.09079928 
O       0.08440804       3.31066996       0.21841799 
O       1.18294907      -0.85014617      -0.36901878 
H       0.53010069       3.18469390      -0.63063434 
H       2.24802213      -0.81437740      -2.68658538 
H       2.01609824       0.45988897      -3.92883900 
H       0.45971764       0.98829166       0.08095262 
H       0.65291566      -0.52389020      -3.35230304 
H       0.07945770       4.25333930       0.39033977 
