12
 energy: -20.816020453128 gnorm: 0.000527970935 xtb: 6.2.3 (830e466)
C         0.15421430136962   -0.09265362738275    0.65524539581229
N         1.45548084741538   -0.64648781781779    0.51845103038763
O        -0.83017771697636   -1.13878230291377    0.56075418526564
O        -0.09644482570953    0.87511871179148   -0.28607460932351
H        -1.70589457920600   -0.74877085090144    0.65858397472996
H         0.10661659702700    0.50765597845907   -1.16302754450570
H         0.06601322478793    0.38928827020551    1.63964821992279
H         1.57083094315464   -1.05017202263934   -0.40637090715371
H         1.62149753033866   -1.36170110735769    1.21374208172965
O        -0.04693254092234   -1.39713707335681   -2.11444401502213
H        -0.51160614338431   -1.90972029576825   -2.77641797674180
H        -0.45258763789499   -1.60184786231816   -1.25559983509965
12
Properties=species:S:1:pos:R:3 energy:=T -20.734950279947=T gnorm:=T 0.000561931483=T xtb:=T 6.2.3=T (830e466)=T pbc="F F F"
C       -0.19154374      -0.05723708       0.64339570
N        0.22685224      -1.40353252       0.26479872
O       -1.57621793      -0.06952012       0.82587011
O        0.13601866       0.91602903      -0.26473121
H       -1.79937289      -0.69461724       1.52261007
H       -0.33483404       0.72301156      -1.08842174
H        0.34232631       0.18003293       1.57670616
H        2.70857470      -1.07748580      -2.15598505
H        1.23591902      -1.43044348       0.14025257
O       -0.29479815      -1.70758933      -1.03566928
H        2.02073011      -1.41061993      -2.31024772
H       -1.14264431      -2.14323802      -0.87408832
