9
 energy: -15.731965635271 gnorm: 0.000630095206 xtb: 6.2.3 (830e466)
C        -0.10137124301707   -0.23376542284233    0.43664439468605
N         1.24036251078840   -0.29031102071604   -0.06321544361012
O        -0.88648775473989   -1.28751425067735   -0.04061526043304
O        -0.70211833441054    0.96217344335113    0.04393161526244
H        -1.76727813781454   -0.93989580850777   -0.22004029343196
H        -0.01444884965260    1.62699020961509   -0.06455709218661
H        -0.05098491882371   -0.28448955814932    1.54363270901766
H         1.73155048275351   -1.08677826304038    0.32136549207162
H         1.21708624491643   -0.39871932903304   -1.07324612137603
9
Properties=species:S:1:pos:R:3 energy:=T -15.646431285421=T gnorm:=T 0.000659469509=T xtb:=T 6.2.3=T (830e466)=T pbc="F F F"
C        0.24687516       0.38606512       0.44332232
N        1.45471752      -0.23160992       0.00114717
O       -1.28780861      -1.27817408      -0.09369200
O       -0.91747866       0.08415129      -0.30917941
H       -2.25290238      -1.23928130      -0.09949057
H        0.31845024       1.47244195       0.33124105
H        0.08282643       0.12421968       1.49623445
H        1.38357655      -1.24027373       0.08559277
H        1.63805376      -0.00984901      -0.97127578
