13
 energy: -23.857993333925 gnorm: 0.000355855183 xtb: 6.2.3 (830e466)
C         9.35631641572089    1.12388744408702    2.19007647605891
C        10.66801863412387    1.80752056801478    1.74146237780138
C         8.23940095339618    1.22412564224446    1.15986291930442
C         9.84201255725097    2.87568035307864    3.56240339757152
O         9.00993110118957    1.84217195870759    3.36693834118575
O        10.81441597103614    2.89478856555275    2.63229257628183
O         9.73969301246592    3.66565507644680    4.43960016830901
H         9.51598174838300    0.07856096313209    2.47642400421134
H        10.60617668195702    2.19344713315319    0.72046072368596
H        11.54083500686445    1.15470710425876    1.83312893795535
H         7.31792698273879    0.83379990122106    1.58239567182014
H         8.50022771083073    0.64629201991682    0.27763520973362
H         8.07876322404246    2.26206327018603    0.87730919608076
13
Properties=species:S:1:pos:R:3 energy:=T -23.848070102320=T gnorm:=T 0.000355308524=T xtb:=T 6.2.3=T (830e466)=T pbc="F F F"
C        8.59026382       0.89763869       2.41177349
C       10.50415749       1.94572372       1.34238074
C        9.07419747       1.48968463       1.09723079
C        9.71129745       2.75453161       3.47769701
O        8.74380049       1.83001667       3.47601331
O       10.57172664       2.82956068       2.45589415
O        9.79980560       3.52131986       4.38668854
H        9.15562396      -0.01053917       2.65647069
H       10.91046270       2.51042442       0.49978041
H       11.15484695       1.08400962       1.53810082
H        7.52510118       0.65531913       2.39114712
H        9.03487473       0.74934323       0.30126630
H        8.45354150       2.34566691       0.82554662
