13
 energy: -23.857993987832 gnorm: 0.000488382756 xtb: 6.2.3 (830e466)
C         9.45593573916693    1.10124014031947    2.03390548761678
C        10.62623758410077    2.07160589139894    1.75588698117332
C         8.28663258454702    1.27288570601416    1.07372340141096
C         9.74252002752928    2.51674344353289    3.79517832315987
O         9.06473519292693    1.44556129369961    3.35676117666735
O        10.65369896610547    2.91595016637198    2.88896722433151
O         9.56724650251654    3.04119373985579    4.84313890108377
H         9.78462875306511    0.05613726040574    2.04857402086940
H        10.45587379020903    2.68198740082636    0.86479710496709
H        11.59046112285680    1.56196543132917    1.67047304683995
H         7.95431166227141    2.30852771059436    1.06520691535660
H         8.58884848685590    0.98258742310253    0.07131917871954
H         7.45836958784881    0.64621439254900    1.39205823780387
13
Properties=species:S:1:pos:R:3 energy:=T -23.794009157569=T gnorm:=T 0.000373172640=T xtb:=T 6.2.3=T (830e466)=T pbc="F F F"
C        8.76843322       1.54213468       1.90908313
C       10.16361781       2.17570245       1.81597071
C        8.16551764       1.19350750       0.57903812
C       10.69434511       2.13807622       4.11135812
O        8.23922557       1.35374692       2.96807843
O       10.50895953       2.85457449       2.99983917
O       10.87695479       2.63459954       5.17617441
H       10.70084886       1.04162172       3.93828219
H       10.19858120       2.91744267       1.01605652
H       10.88337981       1.37410322       1.59419498
H        7.77014185       2.10431072       0.13155749
H        8.91258819       0.78085718      -0.09340429
H        7.34690642       0.49192269       0.71376105
