13
 energy: -23.857993710350 gnorm: 0.000496072974 xtb: 6.2.3 (830e466)
C         9.43794201105911    1.10244173710603    2.09970482800168
C        10.65586290864063    2.00956028098810    1.81173779270171
C         8.34931496557521    1.19711130519147    1.03913879490928
C         9.63851914634299    2.69115562509458    3.71931092606243
O         8.96096094441892    1.59596202724768    3.34459390356299
O        10.62716125744217    2.96863029497477    2.84952155728178
O         9.40280956912589    3.32906915577409    4.68958381944271
H         9.73163380335582    0.05757266928352    2.24949235341325
H        10.57055540140761    2.52552531434423    0.85149797178531
H        11.60697481364024    1.47081983952179    1.85349536289586
H         8.05227038241847    2.23333335185436    0.89460589439773
H         8.71570045906870    0.79236885132902    0.09985847281379
H         7.47990433750425    0.62893954729035    1.35744832273147
13
Properties=species:S:1:pos:R:3 energy:=T -23.782580608584=T gnorm:=T 0.000353574252=T xtb:=T 6.2.3=T (830e466)=T pbc="F F F"
C        9.61508391       1.05216645       2.18882959
C       10.97910357       1.54426920       1.73499673
C        8.58450373       1.20914724       1.06520823
C        9.09714598       2.97653595       3.49544382
O        9.20012757       1.64868238       3.40583927
O       11.61776197       2.40141215       2.26613211
O        8.78075358       3.52483684       4.50259124
H        9.71881060      -0.01313896       2.43509435
H        9.30974159       3.51857730       2.55350039
H       11.33601846       1.01224733       0.83251959
H        8.48950193       2.24954776       0.76372116
H        8.88467515       0.62037825       0.20311804
H        7.61638195       0.85782811       1.41299549
