13
 energy: -23.857993152523 gnorm: 0.000802341566 xtb: 6.2.3 (830e466)
C         9.57376001350024    1.11480829944339    1.97074231973879
C        10.53971107314440    2.30901106940412    1.79704104331764
C         8.38140012864434    1.15909921869740    1.02488986305610
C         9.61662960606514    2.37667092474828    3.86624667036549
O         9.14209994393995    1.24881568697883    3.31821604794300
O        10.42680300810622    3.02490625525557    3.00969686920198
O         9.36125867614052    2.75240503174734    4.96053009353013
H        10.09136871453557    0.15324109207922    1.88385557886596
H        10.24606909661357    2.96329117400595    0.97221181247250
H        11.57978979931720    1.99906289275269    1.66446660420445
H         8.71985212988504    1.02746809748602    0.00112305745988
H         7.68706625942415    0.36250490744690    1.27645841206296
H         7.86388155068364    2.11140534995429    1.11461162778115
13
Properties=species:S:1:pos:R:3 energy:=T -23.848070105607=T gnorm:=T 0.000354637064=T xtb:=T 6.2.3=T (830e466)=T pbc="F F F"
C        9.70113631       1.04047190       1.27362934
C       10.53252265       2.27282028       1.59451836
C        8.30538267       1.32417564       1.80665473
C        9.40784700       2.27856275       3.73401012
O        8.34907045       1.67035084       3.18642476
O       10.47450821       2.57723098       2.98362307
O        9.40568526       2.54461888       4.89645284
H       10.12062361       0.16843761       1.77892043
H       10.16882254       3.14040022       1.02946819
H       11.59287548       2.12763543       1.37424880
H        9.67664695       0.85821627       0.20153096
H        7.65278400       0.44984761       1.74849500
H        7.84178488       2.14992159       1.25211340
