13
 energy: -23.857992657006 gnorm: 0.000651568884 xtb: 6.2.3 (830e466)
C         9.39495860211556    1.10679102026970    2.09705221257652
C        10.67974945355225    1.93204675079573    1.85524477315617
C         8.35463654450106    1.27084780808179    0.99712628067713
C         9.64012561103043    2.67983070806147    3.72608360495325
O         8.90533671045730    1.63291261711396    3.32327612809727
O        10.67650602897181    2.89016107127818    2.89389810919133
O         9.41187499781701    3.33216934650159    4.68853486429853
H         9.61391015572148    0.04542977694644    2.25709161255560
H        10.66293211586036    2.45294733204358    0.89432397647475
H        11.59117984360164    1.33220195135016    1.92976018694597
H         8.13574811089764    2.32441289077300    0.83919160055617
H         8.72574273417158    0.83689464430028    0.07300758874533
H         7.43710909130187    0.76587408248412    1.28539906177197
13
Properties=species:S:1:pos:R:3 energy:=T -23.823996140080=T gnorm:=T 0.000823330434=T xtb:=T 6.2.3=T (830e466)=T pbc="F F F"
C       10.26355002       0.50516425       3.01425409
C       11.14743001       1.37491910       2.52143197
C        8.18226531       2.04986047       0.43092036
C        9.62331260       2.51418495       3.60610488
O        9.30657959       1.19887023       3.69610497
O       10.76434933       2.63394860       2.88246935
O        9.00748008       3.40913694       4.08149214
H       10.17768751      -0.55948238       2.97309631
H        8.89356124       2.84940968       0.59149185
H       12.03564879       1.26923073       1.93619711
H        7.52760963       2.31692485      -0.38743894
H        8.70800941       1.13562535       0.18687762
H        7.59232648       1.90472723       1.32698828
