13
 energy: -23.857994066938 gnorm: 0.000457702858 xtb: 6.2.3 (830e466)
C         9.45252365829012    1.10095600780299    2.08644625550201
C        10.63232526143071    2.03919615032871    1.74565098092202
C         8.29756060530254    1.19805652894055    1.09888397926040
C         9.72362679894807    2.65601721636173    3.72840824934361
O         9.04533509464691    1.55561961555828    3.37058371972663
O        10.64961406382107    2.97416328964792    2.80536592610049
O         9.53720836383768    3.26632954974124    4.72678414300106
H         9.77469709290303    0.05905000732177    2.19221975044789
H        10.47782021139850    2.57469000079898    0.80492386597765
H        11.59446217793792    1.51951531251681    1.71611787902951
H         7.97108004895126    2.23089919663710    1.00046113334964
H         8.61201938146024    0.82486998672180    0.12818040226362
H         7.46152724107198    0.60333713762212    1.45585371507547
13
Properties=species:S:1:pos:R:3 energy:=T -23.794374337397=T gnorm:=T 0.000771231843=T xtb:=T 6.2.3=T (830e466)=T pbc="F F F"
C        8.88911287       0.71008032       2.21027276
C       10.66034828       2.84587299       1.44137549
C        7.99571466       0.25498226       1.35257376
C        9.65973691       2.46721860       3.60552925
O        8.63876342       1.82286895       2.98512000
O       10.71414171       2.80728525       2.86160134
O        9.60400048       2.74822452       4.75960471
H        9.83409885       0.21541875       2.40041230
H       11.36491375       3.62225906       1.14532222
H       10.97084169       1.89213331       1.00845610
H        9.66114785       3.10283645       1.08551962
H        8.17762043      -0.64686932       0.80079892
H        7.05935910       0.76038886       1.20329352
