13
 energy: -23.803898688529 gnorm: 0.000606482809 xtb: 6.2.3 (830e466)
C         9.91733180130046    2.80963531641214    2.06159534107668
C         8.35100021742173    0.96945518609260    1.21887423929703
C         8.65187507682259    2.43642945684699    1.28880458829793
C        10.84551025335073    1.10260185804063    3.38061157736981
O        10.83865236898119    1.73566410923302    2.21878085427427
O         7.96262369010093    3.29483914548117    0.80872654066137
O        10.14616715248462    1.32942496198136    4.32214453552980
H        11.61630161991976    0.31563546891950    3.34709908511531
H        10.43892542919473    3.61612471250814    1.54030593220591
H         9.60179651645479    3.16567684823313    3.05226686587050
H         8.27994989269243    0.56307156441088    2.22671403979230
H         9.16263528385438    0.45739788992361    0.70487614218598
H         7.41682069742159    0.80653348191689    0.68950025832304
13
Properties=species:S:1:pos:R:3 energy:=T -23.835398782080=T gnorm:=T 0.000798107351=T xtb:=T 6.2.3=T (830e466)=T pbc="F F F"
C       10.10803938       3.16051010       1.84178503
C        9.09390272       0.14274817       1.48450523
C        8.90389895       3.09092657       2.77970496
C        9.77054383       1.02107348       2.53336785
O       10.71830026       1.89978588       1.97573767
O        8.17034600       3.97064936       3.10556909
O        8.80574729       1.82150576       3.19367441
H       10.27876581       0.40197728       3.28541325
H        9.77082963       3.35206714       0.81399415
H       10.80810349       3.94193083       2.14366976
H        8.38312023      -0.51915829       1.96981596
H        9.84980992      -0.44414232       0.97124937
H        8.56818248       0.76261605       0.76181328
