13
 energy: -23.794006884079 gnorm: 0.000558412452 xtb: 6.2.3 (830e466)
C        10.15742100523646    2.17149875112989    1.79434078073221
C         8.12386087087146    1.18491713443667    0.62045655360685
C         8.76066512713799    1.54926640827376    1.93031778151399
C        10.75360092965531    2.14892404849448    4.07315442260402
O        10.53895711658975    2.85811789076777    2.96222667049659
O         8.25563065592575    1.38077002338250    3.00443473568752
O        10.97004041821882    2.65207027489667    5.12842080573131
H        10.75044096623626    1.05119235449726    3.90708456280442
H        10.86480085828069    1.36142370569480    1.56174794807150
H        10.17735118887222    2.90510370355507    0.98603018495205
H         7.31872785619283    0.47322726696978    0.78313845713592
H         8.85607149827073    0.77856782386793   -0.07155385224976
H         7.70214150851178    2.08753061403343    0.18050094891330
13
Properties=species:S:1:pos:R:3 energy:=T -23.847827270201=T gnorm:=T 0.000901553569=T xtb:=T 6.2.3=T (830e466)=T pbc="F F F"
C       10.49542615       1.01563877       1.54518562
C        8.09351786       1.41279689       0.83566660
C        9.08810673       1.35100023       1.96442700
C       10.20710713       3.36371293       4.46049232
O       10.60061117       3.74547456       3.45423109
O        8.78769480       1.57047470       3.11214884
O        9.85420267       3.02456804       5.49222046
H       11.04173778       0.57124277       2.37306110
H       10.50780569       0.35398508       0.68427896
H       10.99251599       1.94698933       1.27521235
H        7.91816880       0.40501688       0.46285732
H        8.49066392       2.01071503       0.01909715
H        7.15215133       1.83099480       1.18142117
