13
 energy: -23.792401205704 gnorm: 0.000883615235 xtb: 6.2.3 (830e466)
C         9.45754957345016    1.34076481286181    2.15708186370673
C         8.69423983369273    0.62423668255560    1.04651756585048
C         9.19382214195270    3.21369772356099    3.53081801245568
C        10.78568745870920    1.83611161816471    1.61040497312912
O         8.64849103564807    2.43295665198750    2.61354339216005
O        10.29263681851017    3.10536363626985    3.98685061740570
O        11.76911123664011    1.16463240380752    1.52701799384334
H         9.65048817841424    0.66002518954588    2.99620443133253
H         8.46650901034525    3.99158616580737    3.81514993602046
H        10.74205669706600    2.87606229727302    1.23546358262071
H         7.73632743590391    0.27894345200917    1.42508518483784
H         9.27389872650404   -0.22592432707240    0.69906811211912
H         8.51866185316340    1.30424369322899    0.21677433451826
13
Properties=species:S:1:pos:R:3 energy:=T -23.831984751882=T gnorm:=T 0.000863489056=T xtb:=T 6.2.3=T (830e466)=T pbc="F F F"
C        9.34307246       1.07716945       2.40750673
C        8.84592486       0.67970177       1.01648766
C        9.37171446       3.31425053       2.78232337
C       10.77157749       1.61875392       2.32236734
O        8.62174326       2.15340864       2.98141603
O       10.71192502       2.93658624       2.57481146
O       11.77063361       1.02509688       2.06304954
H        9.28559394       0.22474790       3.09135163
H        9.30168095       3.94677074       3.67450644
H        9.02343413       3.87968663       1.89953692
H        7.81904244       0.33118370       1.08067753
H        9.47660934      -0.11424054       0.62704917
H        8.88652803       1.52958413       0.33889618
