13
 energy: -23.782581514677 gnorm: 0.000750688700 xtb: 6.2.3 (830e466)
C         9.60459652268626    1.04738984938295    2.16353433698475
C         8.58405867519561    1.25589384891950    1.03919375809666
C         9.10407154378016    2.92843567726421    3.53802401291997
C        10.97820832733844    1.53911790997211    1.73929703442845
O         9.18653192950169    1.60361896326117    3.39829084645321
O         8.78771362755584    3.44280924234231    4.56262597042899
O        11.62734555114266    2.36009002112772    2.31295274655508
H         9.69533362078079   -0.02731901230436    2.37148798313234
H         9.33304744991905    3.50261665572404    2.61920615936374
H        11.33186441691985    1.04442314400245    0.81417782040390
H         7.61100106119214    0.89785341038672    1.36530344461777
H         8.88725554761960    0.69968131806735    0.15689509620653
H         8.49847172636797    2.30800897185379    0.77881079040853
13
Properties=species:S:1:pos:R:3 energy:=T -23.783253773752=T gnorm:=T 0.000329231039=T xtb:=T 6.2.3=T (830e466)=T pbc="F F F"
C        8.90214792       1.02861508       2.22094898
C        9.61508342       1.56357229       0.97933164
C        8.62936855       2.82026940       3.74363700
C       11.11705190       1.46219643       1.09477274
O        9.30233262       1.73197053       3.38417867
O        8.93514592       3.50738769       4.66364051
O       11.88822823       2.23701750       0.61327661
H        9.17314468      -0.01527963       2.39891293
H        7.73747052       3.01627356       3.10464353
H       11.45916421       0.57757532       1.66427894
H        7.81476861       1.10315092       2.09169951
H        9.31342451       0.96666819       0.11439492
H        9.34216892       2.60320273       0.78608401
