13
 energy: -23.784295537429 gnorm: 0.000720272302 xtb: 6.2.3 (830e466)
C         9.63556436870388    1.91495430724481    1.85851229105051
C         8.31838796103169    1.71235644430393    1.10255922049178
C         9.57216007468299    1.78409855160279    4.23251501416600
C        10.78870061400234    1.44132885983550    0.98849853919236
O         9.62838613393306    1.16273016480542    3.06153025857441
O         9.53943334103803    1.21496320956552    5.27528031430404
O        11.14380411161044    1.99073684560390   -0.01054836272259
H         9.77027226220104    2.98485226139088    2.08298204846969
H         9.56399968641881    2.89496297860399    4.14068600236841
H        11.25832718349116    0.51513910539646    1.36363768589846
H         8.16826635730845    0.65416327513289    0.90435788966600
H         8.35599767510353    2.25327668162384    0.16116687960191
H         7.48619023047460    2.07903731489000    1.69853221893890
13
Properties=species:S:1:pos:R:3 energy:=T -23.720976712501=T gnorm:=T 0.000683352640=T xtb:=T 6.2.3=T (830e466)=T pbc="F F F"
C        9.46965734       0.49976028       0.87539043
C        8.24719423       1.30186980       1.15913692
C        9.70384043       3.18091796       4.25120959
C       10.78650583       1.23045476       1.13801741
O        9.49446993      -0.63895499       0.47966939
O        8.88641510       2.30898872       4.22985358
O       10.87958636       2.40243104       1.37519173
H        9.95128673       3.73396039       5.17178577
H       10.26590256       3.48769320       3.35587484
H       11.66714148       0.56520302       1.07657973
H        7.35594719       0.79034990       0.80820979
H        8.33869776       2.28446172       0.70052802
H        8.18284507       1.45546420       2.23826279
