13
 energy: -23.782575893465 gnorm: 0.000661643922 xtb: 6.2.3 (830e466)
C         9.61402868984780    1.05622993955017    2.19395716102741
C         8.60859529064016    1.19248820671952    1.04588341518809
C         9.05959931312624    2.98413095132532    3.47732017511200
C        10.98595344442364    1.55688389681482    1.77455422957258
O         9.16207123568625    1.65625906397906    3.39614481373721
O         8.71373473214905    3.53815512000693    4.47152290322782
O        11.62243060583755    2.39051907383618    2.34461392890217
H         9.72460186633517   -0.00630882819610    2.45065919578283
H         9.30274067033914    3.52164989063117    2.53919426782861
H        11.35505755225943    1.04986188137469    0.86235779116580
H         7.63815390347795    0.82652232495703    1.37144106110948
H         8.93883692028083    0.60590691566564    0.19339917614614
H         8.50370577559691    2.23031156333566    0.73876188119995
13
Properties=species:S:1:pos:R:3 energy:=T -23.817918043017=T gnorm:=T 0.000395702419=T xtb:=T 6.2.3=T (830e466)=T pbc="F F F"
C       10.01629523       0.75386536       1.50330244
C        8.73062606       0.86669482       0.68041807
C        9.24812256       3.31584245       3.97917356
C       10.25863058       2.01277016       2.28280138
O        9.24704879       2.20830050       3.19587330
O        8.39110147       3.52613101       4.77063492
O       11.17509361       2.76795826       2.16077377
H        9.92133120      -0.07202663       2.21066045
H       10.11655882       3.97044888       3.78957952
H       10.87583267       0.58044803       0.85557918
H        7.87998022       1.05085334       1.33079902
H        8.56148267      -0.05879205       0.13720274
H        8.80740610       1.68011587      -0.03698835
