13
 energy: -23.784510901673 gnorm: 0.000795291569 xtb: 6.2.3 (830e466)
C         9.48932138696290    1.03833713650614    2.03340846470161
C         8.41319394786159    1.51358835086638    1.06023853925327
C         9.42051290536287    2.70467839152913    3.70599792045019
C        10.88585344459626    1.45162550960968    1.59489202165057
O         9.22754203245387    1.42994304487022    3.37555508764846
O         9.22033654664457    3.13581315067303    4.79542294928338
O        11.22947984902993    1.58125261230234    0.45813433516179
H         9.49265006292526   -0.06050596350070    2.07007126114632
H         9.79824870772942    3.32733296800592    2.86303404097478
H        11.58170508693904    1.59192967652525    2.44373806078987
H         8.30402039913776    2.59435741671476    1.11109652957878
H         8.70780514829965    1.24081586387481    0.05089533055787
H         7.45883048205689    1.05322184202301    1.29741545880307
13
Properties=species:S:1:pos:R:3 energy:=T -23.728492869246=T gnorm:=T 0.000390920640=T xtb:=T 6.2.3=T (830e466)=T pbc="F F F"
C        8.31016365       0.22799504       2.63654130
C        7.99447838       0.65555464       1.42804617
C        8.94770169       2.24638177       3.67641862
C       11.76035587       3.03735958       0.84353048
O        8.48849652       0.99714031       3.75983946
O        9.01934735       2.96822263       4.62341255
O       10.64737852       2.60538248       0.87882983
H        8.42080008      -0.81924534       2.88236285
H        9.28437485       2.53283408       2.66276207
H       12.64690871       2.40872965       1.02436783
H       11.98101583       4.09514845       0.63006760
H        7.87054796      -0.04785083       0.62622952
H        7.85793059       1.69473754       1.18749173
