13
 energy: -23.792401210138 gnorm: 0.000882682972 xtb: 6.2.3 (830e466)
C         9.48851444247506    1.33380457098467    2.12153748506161
C         8.57652347287174    0.67601548734418    1.08955149903542
C         9.38912678032561    3.06422656335554    3.69008408540875
C        10.68514228426150    1.94495714745240    1.41248848884244
O         8.72696020716269    2.33757095849283    2.80586502282393
O        10.55254280750435    2.97590888297404    3.94652252335215
O        11.66534132636886    1.33684246835283    1.10529877780973
H         9.84648721489507    0.59445059880046    2.84952802735579
H         8.69104244832443    3.77456416504225    4.16235401078414
H        10.53890750664348    3.00957039053150    1.14944749529074
H         7.71034797714165    0.24849246984063    1.58664441470167
H         9.12129200975146   -0.10867668301157    0.57284609163889
H         8.23726152227411    1.41476297984024    0.36784207789474
13
Properties=species:S:1:pos:R:3 energy:=T -23.720289082809=T gnorm:=T 0.000819601606=T xtb:=T 6.2.3=T (830e466)=T pbc="F F F"
C        8.53475770       0.75080433       2.02329537
C        8.13740609       0.14521431       0.72153861
C       10.72400039       3.61586174       3.65340357
C       10.99629701       2.97876454       2.31631235
O        8.55335186       1.92645396       2.27068963
O       11.38456449       4.45781755       4.18618561
O       11.52869337       1.92722564       2.11485455
H        8.84127095       0.01021723       2.78649645
H        9.77095116       3.24447124       4.08185917
H       10.60031523       3.60675478       1.49061110
H        7.37718275      -0.61548055       0.88660785
H        9.00966819      -0.34831757       0.29428902
H        7.77103081       0.90270279       0.03386673
