13
 energy: -23.782581321750 gnorm: 0.000724405994 xtb: 6.2.3 (830e466)
C         9.63658957094074    1.05384700144204    2.16208205542374
C         8.56117539049707    1.21353149942539    1.08186230353733
C         9.11942271202788    2.92458351901514    3.54482682360098
C        10.97080530449338    1.59405287031258    1.67661752444497
O         9.25056792219162    1.60360691701223    3.41038063473755
O         8.82313198368234    3.43332955139657    4.57855078743525
O        11.61229156022801    2.44203413642158    2.21859031298343
H         9.77715152625857   -0.01491635882262    2.37289996098445
H         9.28816875669810    3.50137177821280    2.61429642391662
H        11.30196790592700    1.10961632566856    0.73838707578280
H         7.61663033778055    0.82471032707734    1.45390600661551
H         8.84543043950983    0.65806380652491    0.19267623905820
H         8.42636658976478    2.25886862631355    0.81493385147917
13
Properties=species:S:1:pos:R:3 energy:=T -23.713554527119=T gnorm:=T 0.000758647140=T xtb:=T 6.2.3=T (830e466)=T pbc="F F F"
C       10.00807386       1.83586161       1.75820794
C        9.10426234       1.84432805       0.77737096
C        8.85864575       3.06874747       3.40515803
C       11.43529210       1.49807251       1.51240651
O        9.71882404       2.10127756       3.07156390
O        8.48500244       3.24944679       4.51715757
O       12.30469172       1.54312303       2.33326630
H        8.12131400      -0.53402170       2.61336756
H        8.55174655       3.69517953       2.54034067
H       11.62278935       1.19559763       0.46488287
H        7.55974030      -0.57328167       3.15038727
H        9.39562732       1.61656308      -0.23182003
H        8.06369023       2.06180611       0.94772044
