13
 energy: -23.782581425371 gnorm: 0.000718171573 xtb: 6.2.3 (830e466)
C         9.44793054396712    1.02300392899576    2.23034577212222
C         8.32522462996989    1.05711671030187    1.18759262477903
C         9.04247242265191    3.08897826046443    3.34659255675996
C        10.76924481046363    1.44667288655359    1.61204822530103
O         9.13609402321779    1.75901153296830    3.40097834673328
O         8.80861534359494    3.75109074895463    4.30686713082606
O        11.45576305123156    2.34459914258338    1.99503162126177
H         9.57361272397448   -0.00779474875358    2.58838904183007
H         9.17896690678255    3.51915732364040    2.33499936139642
H        11.04345298087816    0.82137621397886    0.74121315996303
H         7.39104699965235    0.75520041245495    1.65441391193086
H         8.55258665354939    0.37032412301407    0.37726615498107
H         8.20217891006623    2.05636346484335    0.77706209211520
13
Properties=species:S:1:pos:R:3 energy:=T -23.729914055526=T gnorm:=T 0.000427289057=T xtb:=T 6.2.3=T (830e466)=T pbc="F F F"
C        9.20004393       0.82026485       1.69633093
C        7.78160845       0.78173852       1.14178253
C        9.40954165       2.89359786       2.80012429
C       12.05496442       2.64595876       2.81239945
O        9.26569666       1.58221617       2.89619217
O        9.43420774       3.62586243       3.74218578
O       12.54768305       3.00754801       3.75923817
H        9.53216665      -0.18212972       1.97429034
H        9.50570650       3.25826078       1.75320442
H        9.89483374       1.23881558       0.95852388
H        7.09894359       0.39222338       1.89253245
H        7.74778243       0.14051734       0.26578560
H        7.45401119       1.78022604       0.86020998
