10
 energy: -13.497365952487 gnorm: 0.000493433539 xtb: 6.2.3 (830e466)
C         9.07894281863522    2.40778923035003    1.87315181354311
C         7.77741603587079    2.96245774851650    2.37148538244511
C         6.64315116243484    2.29072762018143    2.41469968182375
O        10.14401505114020    2.60016112101892    2.77853142564481
H        10.17833604806101    3.53286981599884    3.02037732812016
H         9.00752312877031    1.32873252564673    1.72310763139485
H         9.32013882189501    2.87940627206963    0.90434846320937
H         7.81993814180473    3.99191048424154    2.70871059684558
H         6.58057798875865    1.26620130745314    2.08715740975667
H         5.73035080262924    2.73664387452325    2.77103026721660
10
Properties=species:S:1:pos:R:3 energy:=T -13.508785478423=T gnorm:=T 0.000724906372=T xtb:=T 6.2.3=T (830e466)=T pbc="F F F"
C        8.37924250       2.34816243       1.35648927
C        8.36919463       3.13691135       2.63441275
C        7.23762279       2.21075340       2.32178038
O        9.22297836       2.78392182       3.67590434
H       10.13362301       2.97763457       3.42540073
H        9.07074446       1.52197232       1.28349477
H        8.21655894       2.87345900       0.42766762
H        8.18807507       4.20801960       2.56388153
H        7.18243464       1.30144429       2.89882868
H        6.27991560       2.63462122       2.06473992
