10
 energy: -13.494754749079 gnorm: 0.000645466129 xtb: 6.2.3 (830e466)
C         9.03527853204670    2.54593723763526    2.05334849060390
C         7.68117550504418    2.81470608031746    2.64062315231205
C         6.55292678212757    2.30912632810657    2.18174606101848
O        10.00052790638561    3.25235944646996    2.80261732271845
H        10.87438657234442    3.08642011374711    2.43516305154731
H         9.24397892510247    1.46443772603986    2.07778480968265
H         9.05468958142672    2.86682579851245    0.99954727284999
H         7.70287096615710    3.47499312862465    3.49489790606662
H         6.53015841546368    1.64983437464926    1.32871976142200
H         5.60451681390157    2.53235976589743    2.63815217177854
10
Properties=species:S:1:pos:R:3 energy:=T -13.445572151851=T gnorm:=T 0.000596293550=T xtb:=T 6.2.3=T (830e466)=T pbc="F F F"
C        8.63174022       3.50273160       2.06568684
C        7.37215436       3.17387226       2.73627428
C        6.46307936       2.38212901       2.17998025
O        9.49241567       4.21014885       2.52076472
H       11.25589858       1.35239108       2.21890158
H       10.94049651       0.64354907       2.27379717
H        8.74179458       3.03455860       1.06705660
H        7.22606722       3.61382562       3.71312852
H        6.62023017       1.94704337       1.20556596
H        5.53663331       2.13675052       2.67144409
