13
 energy: -23.848070105720 gnorm: 0.000354570111 xtb: 6.2.3 (830e466)
C         8.32039429884642    1.24882417609089    1.88123149995783
C        10.48525208527016    2.29149825955846    1.51887401591849
C         9.70918056369345    0.99978997582667    1.31379253560872
C         9.43927557015590    2.38740016560276    3.69581926985205
O        10.46107230351884    2.68716765015938    2.88580643623592
O         8.39516921570938    1.69057893493814    3.23207296251489
O         9.46473622015150    2.73211586144978    4.83712840408363
H         7.79422471682989    2.01022539889202    1.29156311226767
H         7.71324578986894    0.34085192856936    1.90719481113291
H        11.54321564149055    2.18506274784265    1.26721956593089
H        10.05618941451059    3.09888444981990    0.91200733679289
H         9.65593400662424    0.74342832314032    0.25802016561763
H        10.19201017333013    0.18667212810967    1.85917988408649
13
Properties=species:S:1:pos:R:3 energy:=T -23.785826807308=T gnorm:=T 0.000693888416=T xtb:=T 6.2.3=T (830e466)=T pbc="F F F"
C        8.26320339       0.64447799       1.57826669
C       10.27283116       2.17423433       1.58170208
C        9.73627052       0.77078694       1.29078770
C        9.59766194       3.04355065       3.68851132
O       10.47347880       2.34220774       2.97280805
O        7.52529400       1.55700263       1.81290053
O        9.68356149       3.16626078       4.86909824
H        8.79362503       3.50592854       3.07904248
H        7.89875411      -0.39969405       1.54427625
H       11.24841367       2.31463599       1.10909594
H        9.56808387       2.92667232       1.20581421
H        9.88887752       0.51931182       0.23845428
H       10.27984451       0.03712432       1.88915222
