6
 energy: -10.616241065699 gnorm: 0.000638877358 xtb: 6.2.3 (830e466)
C        -3.92014312722117    2.53854471534979   -0.49611399292285
O        -3.43831120900205    1.86102205488967   -1.54393624098144
N        -3.89899822351110    2.01728053485507    0.64071297524603
H        -3.50912852386079    2.36469278928104   -2.36191886812034
H        -4.27971825348778    2.58708208234756    1.38628645509117
H        -4.31200066291712    3.54496782327686   -0.73884032831255
6
Properties=species:S:1:pos:R:3 energy:=T -10.622119966721=T gnorm:=T 0.000377019604=T xtb:=T 6.2.3=T (830e466)=T pbc="F F F"
C       -3.50074610       1.44444393      -0.10119575
O       -3.04796715       0.71336040      -0.87088210
N       -3.82842165       2.10399297       0.83461595
H       -4.42489990       4.19721588      -2.18879754
H       -4.47806865       2.83391753       1.01081559
H       -4.07819654       3.62065929      -1.79836615
