[Molden Format]
[Geometries] (XYZ)
12

C        1.522667       1.476733      -2.056039
C        0.561838       0.548852      -1.310856
C        1.192304      -0.758730      -0.945855
O        0.921732       2.681688      -2.446640
O        0.615124       3.460836      -1.287247
O        2.316724      -1.088312      -1.196055
H        0.614752       4.360797      -1.637935
H        2.408349       1.668741      -1.438378
H        1.837000       1.031296      -3.002806
H        0.505690      -1.434379      -0.397254
H       -0.324394       0.352417      -1.920422
H        0.217292       1.039672      -0.396324
12

C        1.473439       1.358168      -2.180196
C        0.547379       0.449652      -1.429748
C        1.114627      -0.868746      -1.099896
O        0.965171       2.601491      -2.558929
O        0.425723       3.279357      -1.427428
O        2.221515      -1.231621      -1.378323
H        0.420694       4.196083      -1.733013
H        2.353790       1.601691      -1.320057
H        1.965796       0.940537      -3.060498
H        0.412189      -1.524797      -0.528084
H       -0.491660       0.378952      -1.799385
H        0.368188       1.206005      -0.353315
12

C        1.444456       1.292891      -2.259021
C        0.551881       0.386817      -1.509323
C        1.064582      -0.939111      -1.208151
O        0.995330       2.557528      -2.608177
O        0.282629       3.156912      -1.538634
O        2.155359      -1.344033      -1.516775
H        0.287750       4.089670      -1.800038
H        2.336791       1.602269      -1.117256
H        2.062985       0.917653      -3.060011
H        0.348254      -1.574646      -0.622204
H       -0.541979       0.429815      -1.679342
H        0.573140       1.458994      -0.243830
12

C        1.396403       1.244476      -2.295255
C        0.550502       0.354279      -1.576678
C        1.032364      -0.982701      -1.296255
O        1.016555       2.513739      -2.623702
O        0.182672       3.082539      -1.628717
O        2.106140      -1.428761      -1.646830
H        0.213379       4.025620      -1.858387
H        2.335005       1.682226      -0.866497
H        2.076593       0.878289      -3.047156
H        0.320686      -1.594772      -0.690558
H       -0.537860       0.457446      -1.643187
H        0.771931       1.726175      -0.067773
12

C        1.356343       1.213199      -2.295491
C        0.556759       0.350972      -1.613857
C        1.020816      -1.001503      -1.360206
O        1.034417       2.486837      -2.612928
O        0.126623       3.054039      -1.683340
O        2.068792      -1.471666      -1.748554
H        0.180811       3.996784      -1.897534
H        2.326529       1.828387      -0.582924
H        2.078328       0.846927      -3.013535
H        0.321253      -1.599139      -0.738016
H       -0.519747       0.489215      -1.609738
H        0.985284       2.003552       0.138501
12

C        1.346790       1.208113      -2.292222
C        0.561285       0.345678      -1.626018
C        1.006268      -1.022979      -1.407365
O        1.071937       2.490206      -2.581546
O        0.083590       3.041226      -1.723483
O        2.032594      -1.504462      -1.829254
H        0.143356       3.985843      -1.924430
H        2.327471       2.024290      -0.296937
H        2.122014       0.853145      -2.960466
H        0.310882      -1.619800      -0.785045
H       -0.498743       0.530981      -1.522585
H        1.223224       2.291711       0.322710
12

C        1.346966       1.204003      -2.285565
C        0.565716       0.335796      -1.634736
C        0.990132      -1.046760      -1.458817
O        1.112530       2.494748      -2.540435
O        0.053742       3.030339      -1.756457
O        2.001669      -1.532757      -1.907090
H        0.115862       3.976312      -1.947881
H        2.338275       2.257218      -0.026771
H        2.172381       0.863054      -2.900066
H        0.292428      -1.649932      -0.848312
H       -0.467735       0.566114      -1.429296
H        1.461031       2.585029       0.489229
12

C        1.347568       1.170109      -2.290693
C        0.561692       0.293201      -1.657507
C        0.961253      -1.100599      -1.536473
O        1.149106       2.470595      -2.500687
O        0.019447       2.986750      -1.808090
O        1.963349      -1.586203      -2.004466
H        0.083336       3.935209      -1.989145
H        2.349424       2.496900       0.213536
H        2.225090       0.848299      -2.839861
H        0.251897      -1.716888      -0.952157
H       -0.428667       0.570106      -1.333846
H        1.695645       2.855803       0.624861
12

C        1.342416       1.114273      -2.302774
C        0.549980       0.242345      -1.667574
C        0.925933      -1.158862      -1.596459
O        1.184464       2.421112      -2.481207
O       -0.010224       2.938304      -1.907332
O        1.924512      -1.641963      -2.075035
H        0.061261       3.883689      -2.099981
H        2.425358       2.767285       0.379115
H        2.268591       0.803389      -2.772892
H        0.201371      -1.787287      -1.044824
H       -0.368374       0.562435      -1.204001
H        1.883791       3.194891       0.737153
[GEOCONV]
energy
0.0
22.9263931121
80.9327436365
142.535455573
112.161692407
80.825008976
55.5477416303
37.882513147
35.1077368237
max-force
4.90230744009e-05
0.00935692166998
0.00943771299641
0.00909871565391
0.00555748592288
0.00746327625523
0.00930490433385
0.00395201556795
5.18230001632e-05
max-step
1000.0
1000.0
1000.0
1000.0
1000.0
1000.0
1000.0
1000.0
1000.0
