[Molden Format]
[Geometries] (XYZ)
12

C        1.522667       1.476733      -2.056039
C        0.561838       0.548852      -1.310856
C        1.192304      -0.758730      -0.945855
O        0.921732       2.681688      -2.446640
O        0.615124       3.460836      -1.287247
O        2.316724      -1.088312      -1.196055
H        0.614752       4.360797      -1.637935
H        2.408349       1.668741      -1.438378
H        1.837000       1.031296      -3.002806
H        0.505690      -1.434379      -0.397254
H       -0.324394       0.352417      -1.920422
H        0.217292       1.039672      -0.396324
12

C        1.502568       1.408349      -2.132798
C        0.572129       0.499327      -1.376923
C        1.131161      -0.820318      -1.051993
O        0.985188       2.649356      -2.508802
O        0.442305       3.322154      -1.376147
O        2.237376      -1.185846      -1.325707
H        0.431542       4.238851      -1.683230
H        2.366886       1.653921      -1.271229
H        2.002053       0.998115      -3.012174
H        0.424305      -1.474264      -0.477498
H       -0.478309       0.437603      -1.727403
H        0.412688       1.255734      -0.323452
12

C        1.492542       1.366857      -2.194761
C        0.589847       0.455159      -1.437698
C        1.090327      -0.868410      -1.136963
O        1.029834       2.624939      -2.535939
O        0.298096       3.210624      -1.470118
O        2.180750      -1.278370      -1.437512
H        0.307601       4.149404      -1.722671
H        2.358516       1.663998      -1.060636
H        2.126276       1.006076      -2.987071
H        0.368154      -1.499343      -0.548000
H       -0.510693       0.523694      -1.576371
H        0.658838       1.521009      -0.220293
12

C        1.470370       1.338816      -2.226890
C        0.588952       0.421111      -1.493266
C        1.034101      -0.900888      -1.225170
O        1.078596       2.587953      -2.531942
O        0.163258       3.106256      -1.586521
O        2.108025      -1.367740      -1.581765
H        0.190521       4.061444      -1.781980
H        2.353738       1.747991      -0.813081
H        2.196876       1.000164      -2.943715
H        0.317888      -1.501116      -0.616217
H       -0.486739       0.591968      -1.485867
H        0.970826       1.792219      -0.101424
12

C        1.378752       1.260990      -2.247384
C        0.579694       0.399734      -1.562071
C        1.032912      -0.951661      -1.306792
O        1.054958       2.528584      -2.563409
O        0.131605       3.091474      -1.647907
O        2.074663      -1.433512      -1.699695
H        0.196290       4.037311      -1.849629
H        2.331437       1.863449      -0.544450
H        2.106780       0.899718      -2.961885
H        0.335997      -1.538829      -0.674088
H       -0.491161       0.555678      -1.535185
H        1.095168       2.019504       0.141481
12

C        1.347080       1.219938      -2.274226
C        0.565271       0.360651      -1.602359
C        1.003899      -1.007721      -1.379407
O        1.070296       2.497164      -2.567965
O        0.082758       3.053682      -1.713470
O        2.017591      -1.502476      -1.816089
H        0.156723       3.999707      -1.904912
H        2.308211       2.034070      -0.280640
H        2.119516       0.866153      -2.946848
H        0.319566      -1.590944      -0.733573
H       -0.491367       0.552933      -1.492200
H        1.315213       2.260753       0.295972
12

C        1.332814       1.183848      -2.295261
C        0.553728       0.318196      -1.635635
C        0.971319      -1.064527      -1.457802
O        1.098370       2.471562      -2.553409
O        0.042592       3.012915      -1.769291
O        1.969493      -1.562351      -1.923526
H        0.113465       3.959268      -1.956160
H        2.316061       2.247542      -0.034434
H        2.155273       0.842434      -2.913162
H        0.284553      -1.656246      -0.825068
H       -0.474906       0.557009      -1.420152
H        1.536890       2.533085       0.441389
12

C        1.335068       1.155541      -2.299846
C        0.551366       0.282617      -1.654733
C        0.945209      -1.111575      -1.536253
O        1.140749       2.454383      -2.512370
O        0.012569       2.977987      -1.822539
O        1.934949      -1.605087      -2.022590
H        0.085347       3.926530      -1.999999
H        2.354314       2.488423       0.198587
H        2.210157       0.830998      -2.851325
H        0.245750      -1.720821      -0.933426
H       -0.430092       0.567914      -1.312758
H        1.755523       2.819528       0.591934
12

C        1.342416       1.114273      -2.302774
C        0.549980       0.242345      -1.667574
C        0.925933      -1.158862      -1.596459
O        1.184464       2.421112      -2.481207
O       -0.010224       2.938304      -1.907332
O        1.924512      -1.641963      -2.075035
H        0.061261       3.883689      -2.099981
H        2.425358       2.767285       0.379115
H        2.268591       0.803389      -2.772892
H        0.201371      -1.787287      -1.044824
H       -0.368374       0.562435      -1.204001
H        1.883791       3.194891       0.737153
[GEOCONV]
energy
0.0
21.4542809431
78.000803085
136.355319705
103.347781563
70.5156064776
46.9469722974
36.4307013299
35.1077368237
max-force
4.90230744009e-05
0.010596452821
0.0118869365041
0.00436700867944
0.00833986960968
0.00865509335841
0.00750363567978
0.000917575222747
5.18230001632e-05
max-step
1000.0
1000.0
1000.0
1000.0
1000.0
1000.0
1000.0
1000.0
1000.0
