56
 energy: -94.154627100372 gnorm: 0.000156866377 xtb: 6.4.0 (d4b70c2)
c         0.96554716999974   -2.74177403999975    0.17727162000002
c         1.16832473000018   -4.23932533000001   -0.00732709000009
c        -0.46061281000015   -2.35403843000006   -0.23247500999993
o        -0.76651547000013   -2.21196530999986   -1.41317611000005
o         0.78974222000022   -0.08232139999975   -0.23277365000020
o         1.13933489000016   -1.67997875000005   -3.47719251999990
n         1.87833775000024   -1.99667252000018   -0.67016258000001
c         1.62665881000004   -0.68879063999998   -0.88332230000005
c         2.37922721999985   -0.08253094999992   -2.04904987999982
c         1.46157352000017   -0.33046621999991   -3.28822829999975
n         2.66627241999974    1.31187143000019   -1.80260605999978
n        -1.33469471000015   -2.24546139999986    0.76859922000021
c        -2.73149367999982   -1.90189817000006    0.56162553000010
c        -3.56891233999997   -2.45022377999994    1.70579585000026
c        -2.90516107999983   -0.36998390999976    0.44567554999984
o        -3.52031218999983    0.28546418999994    1.25867307000022
n        -2.33310336000025    0.14155747000007   -0.65984389999975
o        -0.12435088000003    2.47852208999980   -1.42526253999986
o        -0.74487029000024    2.09218530999977    0.71258858999994
c        -2.31928166999980    1.56416543000019   -0.93812610999987
c        -0.92534579000004    2.10978061999980   -0.61017734999978
c        -2.68748764000025    1.83544721999977   -2.38973752999977
h         1.13595318000016   -2.44910077999997    1.21971923000010
h         0.95804688999974   -4.51991736000002   -1.03782475000005
h         0.49839099000004   -4.78977758999985    0.64786629000004
h         2.19326217999990   -4.50971496000007    0.23480977000026
h         0.44076954000011   -1.93833372999997   -2.84620459000008
h         2.40667669000014   -2.50954704999985   -1.36001871000015
h         3.32503996999977   -0.61673320999980   -2.19997117999999
h         1.99583327000015   -0.00862597000007   -4.18793456000020
h         0.56381566999979    0.29166647000004   -3.17294626000024
h         1.81710516000007    1.78003880000006   -1.49465940000000
h         2.96744853000006    1.76219508000006   -2.66061170000012
h        -0.99018959999988   -2.21185341000025    1.71986703000014
h        -3.03182981000008   -2.34691827000014   -0.39498053999977
h        -4.61736501999986   -2.22765621999982    1.53113047000019
h        -3.27527027000016   -1.97537407000008    2.63888434999983
h        -3.44003035000001   -3.52618875000004    1.79034292000024
h        -1.76995086999990   -0.46097822999995   -1.24883763999995
h        -3.03797923000001    2.01625060999982   -0.24373634000014
h        -2.70025139999993    2.90535559000015   -2.57711561000004
h        -3.66832728000007    1.42247481000020   -2.60820543000005
h        -1.95399454999982    1.38066160999975   -3.05122923999977
c         0.51722359000018    2.23847331999974    1.26055915999984
c         0.94182573999997    1.24207740000020    2.15356321000010
c         1.35182380000023    3.29404990999991    0.93955873000014
c         2.21983145999983    1.32383645000026    2.69986159999995
c         3.04958205999986    2.38213519999983    2.38473633000010
c         2.61435277999983    3.36264490999989    1.50796419000002
h         1.02288834000024    4.04841453999992    0.24236526999977
h         4.03869646000010    2.44036060000025    2.81264321000020
h         3.26398492000011    4.18573378000004    1.25238262000009
h         2.53920017000005    0.54118575999993    3.37183802000003
c         0.06254597999988    0.10514940999985    2.41603171999990
o         0.40688003000009   -0.97371238999989    2.84721420000026
h        -0.99395227999993    0.30077797999989    2.17213985000023
56
 energy: -94.086306398697 gnorm: 0.113230922894 xtb: 6.4.0 (d4b70c2)
c         0.96510306081919   -2.63078543034887    0.27196882530195
c         1.15512852445398   -4.14104558583867    0.24264516294882
c        -0.45934908063435   -2.35512588941622   -0.22513419567221
o        -0.67568988802025   -2.23758439027606   -1.42812918823917
o         0.75555026276610   -0.08272435713552   -0.27353522222439
o         1.05546181570751   -1.60509100559963   -3.46459991899654
n         1.92082896757991   -1.99602613713628   -0.61694977334678
c         1.61680933484937   -0.70716106456188   -0.87333475034880
c         2.32496115348652   -0.02194055202878   -2.02304108965087
c         1.38271442555952   -0.26138322537489   -3.24531834064486
n         2.64381817718069    1.33617976436941   -1.64710638021826
n        -1.38942473509099   -2.30158869979773    0.72883163560478
c        -2.76436677213442   -1.93078722515032    0.43906994816478
c        -3.79560675282795   -2.55156531958800    1.36763624994334
c        -2.84988540153235   -0.38753878668535    0.47697649669319
o        -3.22968057471172    0.16840464907364    1.48478134196794
n        -2.36867419184073    0.18993937188811   -0.63929078599544
o        -0.12611539091586    2.58738432576012   -1.43697998731207
o        -0.67051700818721    1.99269223529391    0.66883986819654
c        -2.29370229670469    1.60735016101602   -0.93386053593723
c        -0.84883877885867    2.03416939283002   -0.65368491253090
c        -2.69035973077176    1.88393329018298   -2.37695091436838
h         1.07842113230867   -2.25255831752142    1.29446387801105
h         1.12327739683871   -4.52242258994513   -0.77637945475900
h         0.39091372469748   -4.67470979963470    0.80145239179975
h         2.09825906853645   -4.47243052281560    0.67034410884808
h         0.42069511405549   -1.87564202451049   -2.77412182927944
h         2.47389665083286   -2.49609277231539   -1.29675364091749
h         3.27182538818760   -0.56455323549806   -2.13134920859232
h         1.92523951038524   -0.00392022544099   -4.16066817398746
h         0.55816446140200    0.43873945997539   -3.05491410714096
h         1.81915280873112    1.84332146539483   -1.33432659754411
h         2.99134357119135    1.82069360349305   -2.46816944573435
h        -1.12832889419936   -2.49499138706219    1.68755374370595
h        -2.89226566599537   -2.18850650526188   -0.61949630172707
h        -4.75113996713645   -2.49240955556970    0.85504068871203
h        -3.66733546860267   -1.92885920989364    2.24976188777336
h        -3.48188859014042   -3.57160546061535    1.57393316610165
h        -2.05921358121290   -0.41661066097108   -1.38991374183152
h        -2.92715783304493    2.15623398627991   -0.22636849227911
h        -2.57822926646645    2.92713765829403   -2.65824931398786
h        -3.73640639503238    1.62461866581081   -2.51429406455801
h        -1.95640405109897    1.34093442187342   -2.96760702378544
c         0.54892697015854    2.15554799182847    1.30207552379606
c         0.97563458589336    1.20804683561891    2.24585006735129
c         1.27659448774039    3.25036722279225    0.87113272416969
c         2.27015150746422    1.36077653735655    2.73505840986522
c         3.02581287867102    2.38104320295859    2.19116675380149
c         2.58417013657787    3.36180865877029    1.31789470597421
h         1.03046084653605    4.06328507762330    0.20635749607063
h         4.06820745543280    2.51693436613738    2.43568456657231
h         3.19568616727421    4.20997083829330    1.05052185524928
h         2.81733480189974    0.71284391592733    3.40353773040708
c         0.09936654729335    0.04835466417908    2.39382437266563
o         0.47958184553877   -1.01122421515466    2.84232857941114
h        -0.92433129701684    0.22956083756302    2.02892788867547
56
 energy: -94.059876531211 gnorm: 0.111950836933 xtb: 6.4.0 (d4b70c2)
c         0.93515286217258   -2.65990873099802    0.30667298426194
c         1.31457512088321   -4.13431362370059    0.31159780381539
c        -0.50146712596152   -2.46849463203607   -0.19497146421760
o        -0.65262825168358   -2.37978861103175   -1.41033061175347
o         0.72082410707675   -0.04589518156449   -0.21407945687570
o         1.16780882350793   -1.53358818454073   -3.63188374355136
n         1.87921779999081   -1.99080039218267   -0.56942236938593
c         1.50566074436700   -0.72678045020568   -0.85585400289333
c         2.32685930563324   -0.12902316410124   -1.97886333704015
c         1.39493071405404   -0.21179692342341   -3.22937562118631
n         2.77175214189597    1.19550333192833   -1.61118490932956
n        -1.48228353324811   -2.46055604473796    0.70829699802610
c        -2.80177855812981   -2.02835056648793    0.27928362497001
c        -3.85075143075305   -2.58898943158210    1.22606590615276
c        -2.89147241206218   -0.48645166932853    0.34906094614574
o        -3.31803678755305    0.13376491067359    1.29898846899410
n        -2.46036188101925    0.14873042277814   -0.75628302496055
o        -0.17706422586945    2.40737012917120   -1.47980645449373
o        -0.71436657635461    2.18860168138269    0.68289411341749
c        -2.38331169657274    1.59368290216418   -0.84358151663419
c        -0.93006828085477    2.02790791613125   -0.62486770075888
c        -2.87723110118580    2.10006215703695   -2.19116039013384
h         1.05570495981999   -2.23836055981486    1.31124114951318
h         0.96416631594297   -4.61777969918408   -0.59853861918682
h         0.86077304252456   -4.63119561263571    1.16497886472867
h         2.39843523169179   -4.20264445538528    0.36466140342272
h         0.57315842944179   -1.90941974039805   -2.95510596453548
h         2.34845813744269   -2.42204196772380   -1.35168064477948
h         3.16727988653937   -0.78910800467669   -2.22522141364996
h         1.98101057416561    0.35910829614405   -3.95674320988627
h         0.50037238440604    0.38473213270289   -3.00526254711190
h         1.96473609929420    1.71291122884096   -1.27043420517594
h         3.01498426768523    1.66638980398489   -2.47650345221824
h        -1.25361166677790   -2.19830283738564    1.65890530326171
h        -3.03117633692019   -2.43585884246489   -0.71301346830532
h        -4.83585094654025   -2.21884621639293    0.95797957454792
h        -3.77416322659516   -2.18469343230431    2.23256531214029
h        -3.84714803814135   -3.67351606074626    1.15362007533049
h        -1.85365372331600   -0.35203886730402   -1.39521882069221
h        -2.85085113799669    2.14324641635061   -0.01746339397018
h        -3.04190455689378    3.17248081358319   -2.13845123820585
h        -3.68322616933485    1.58538087002511   -2.70671441655050
h        -2.10246201294560    1.78941036294069   -2.88804034219017
c         0.54113860937180    2.28838448555001    1.25587133180348
c         1.00337832028064    1.27402276949009    2.10907273856374
c         1.40406901891542    3.32197611062343    0.93825512023988
c         2.34819999185135    1.30906876957322    2.46775285631761
c         3.17745793511301    2.37575527380932    2.18087773249488
c         2.69994398267130    3.42965581353762    1.41875751437307
h         0.93636450984522    3.99094795459313    0.23322152482106
h         4.20182765827671    2.28712434125453    2.50898288002120
h         3.38883403670240    4.21523965675858    1.14837328911448
h         2.54200217849386    0.35935103371973    2.94374411737359
c         0.17990259317049    0.16650415351020    2.58857037681706
o         0.64654017075815   -0.80442880038027    3.14351684328189
h        -0.88378105767894    0.35969874977552    2.37597862067635
56
 energy: -94.049285518718 gnorm: 0.120762490533 xtb: 6.4.0 (d4b70c2)
c         0.90530965394859   -2.74500699297459    0.37491703155672
c         1.25422432307746   -4.20250161605827    0.64291566311207
c        -0.44560746865144   -2.51151442639769   -0.31259125411404
o        -0.60000753408464   -2.56581470649324   -1.52956635514783
o         0.67438579699897   -0.26072107798562   -0.22778925970083
o         1.01259600906974   -1.51453782240498   -3.45821012906599
n         1.91176791357002   -2.12337227757629   -0.46598706166594
c         1.61503174542755   -0.83860405229941   -0.74998111284873
c         2.35731408654241   -0.12170609504472   -1.85808988878304
c         1.45795853417431   -0.22808063339208   -3.13047639291120
n         2.78544712302171    1.22812391575794   -1.57147421288738
n        -1.43149402680152   -2.29938315601418    0.55975373109008
c        -2.76931772067622   -2.00124640081849    0.07678022723185
c        -3.82326769141420   -2.87101804809165    0.74292094133768
c        -3.01615889581433   -0.48558470610025    0.25623810683047
o        -3.63567821267396    0.02097487386743    1.16650250766046
n        -2.32686870660794    0.23670505986390   -0.64613343984487
o        -0.20540123992390    2.26913156522567   -1.29732296571979
o        -0.70880458259573    2.35577027474311    0.86819666681921
c        -2.46226243821510    1.67800112957572   -0.57010960497205
c        -1.00465585970590    2.12408808974005   -0.41296927275536
c        -3.07150983193523    2.31797271315787   -1.80930255200373
h         0.92044830712765   -2.19261676961488    1.32150497124242
h         1.50838088552764   -4.62998955546562   -0.32534700169033
h         0.36333909676956   -4.62338048404452    1.10146965536697
h         2.08238532212007   -4.19065749561231    1.34736343543641
h         0.30513214707076   -1.94096957992293   -2.93807798060292
h         2.46190637996804   -2.68362531679534   -1.09966521270189
h         3.24512990204588   -0.75179575778955   -1.99030617415513
h         2.04029057521379    0.14383727979792   -3.97962446074696
h         0.69665685396200    0.52525679079227   -2.88714397216350
h         2.02142592902000    1.86942312194176   -1.37121485488975
h         3.21240497242881    1.54625224645025   -2.43528754764373
h        -1.14278639312388   -2.13342139332954    1.51569740647803
h        -2.75616675062162   -2.15662162046255   -1.00904915536216
h        -4.82085846715559   -2.70947366328914    0.34541195739744
h        -3.74167500216414   -2.76425209304205    1.82195093422031
h        -3.73129032079288   -3.95346961922071    0.70689107740628
h        -1.69359679796020   -0.13713193473241   -1.34349720265338
h        -3.09738601803186    1.97276023876067    0.27417675734315
h        -3.25343921175408    3.38367319691939   -1.70365426164149
h        -4.08232029355563    1.91974787840521   -1.80913616412883
h        -2.40269958346685    2.34374597826872   -2.66629843280382
c         0.63638912331691    2.31370373352474    1.18950226214014
c         1.16858865262420    1.35922377457717    2.07056972296725
c         1.44440694063420    3.28900699124295    0.63296691090870
c         2.51120990761082    1.48271361737362    2.41776368357883
c         3.33281372736212    2.52112108549959    2.02474536295766
c         2.74472502450083    3.37504379335568    1.10576715924441
h         1.13125638441852    3.99965781808093   -0.11553521415331
h         4.34046549272609    2.41088686838139    2.39532350314876
h         3.37911276841580    4.08854386074260    0.60248889147114
h         2.95897411208706    0.75505918924573    3.07815529806857
c         0.23833285234284    0.30595912065595    2.47042684034894
o         0.52408315837072   -0.77118567258795    2.94638162481883
h        -0.79681378346889    0.62150559743798    2.26343829442432
56
 energy: -94.070781102156 gnorm: 0.110467933893 xtb: 6.4.0 (d4b70c2)
c         0.78053815688675   -2.72295289742186    0.69125276448496
c         1.24706078611442   -4.14229125093101    0.98398230681257
c        -0.45647007138748   -2.57402353006447   -0.20305938546413
o        -0.39981790856894   -2.83418894158207   -1.40177570450565
o         0.60302638943594   -0.15356111221543   -0.14818858903168
o         1.36504392114824   -1.60852324481757   -3.59355599671909
n         1.84425684493729   -2.04126438907224   -0.02310778289434
c         1.54117027779539   -0.83170900600405   -0.53735353285876
c         2.41288162321590   -0.35437453455026   -1.67976412555237
c         1.54888100221576   -0.36297259214392   -2.98074543778583
n         2.89902662907608    0.98916540515902   -1.46516922795165
n        -1.63379891743750   -2.29478528049822    0.35719107738157
c        -2.82654061850044   -2.00684621443241   -0.42151267112205
c        -3.90664289553953   -3.07516484556743   -0.36555633258713
c        -3.25087295400794   -0.62279883930393    0.12136949551565
o        -3.97184418223121   -0.35965874874514    1.05942380141373
n        -2.55218623890943    0.35579280683328   -0.48302539206790
o        -0.68755813106568    2.35380662336768   -1.37828324390286
o        -0.53723601094821    2.43271715506959    0.91767389221854
c        -2.57116000660855    1.76349691697711   -0.13740332991614
c        -1.13601377704699    2.28502884808678   -0.26649001429413
c        -3.49736328447202    2.60773835950536   -1.00097096922660
h         0.62047428324419   -2.15241580690946    1.61334812988222
h         1.34667718361675   -4.65086256881523    0.02674363419985
h         0.57063235976505   -4.72640485786264    1.60232133621666
h         2.22287979722249   -4.03791266658029    1.45208481658570
h         0.83457824357564   -2.20151093438962   -3.02799576385959
h         2.59593013578408   -2.54170264794782   -0.47325511483623
h         3.22222059037622   -1.06530050480072   -1.88535050065623
h         2.06646718480169    0.36678538179947   -3.61165258288164
h         0.58213397274504    0.08566024017412   -2.71534582533595
h         2.17430338209420    1.56332201046955   -1.04064917419418
h         3.08032891538921    1.37854447763286   -2.38450895674046
h        -1.75633465469971   -2.29326339087093    1.36203256165916
h        -2.48549605483580   -2.05087721786345   -1.46318908395510
h        -4.57246246013984   -2.87978632125376   -1.20090588856189
h        -4.54121124356853   -2.89233073405407    0.49830521081751
h        -3.39726483752522   -4.02231728881047   -0.52333985333319
h        -1.96120138143849    0.11813550827000   -1.27128902012667
h        -2.79758153093340    1.95674908718597    0.91828187864678
h        -3.37951759096424    3.59776723766174   -0.56977194891793
h        -4.48105552521094    2.18179952369846   -0.82420411064725
h        -3.33757488455009    2.43826542060226   -2.06311970837997
c         0.84364672054154    2.46807152990926    0.99808501149014
c         1.32170869218333    1.48254354000643    1.87600273671446
c         1.63570087360909    3.48638078171772    0.49854788824494
c         2.68069557788611    1.48665231183934    2.17859646485804
c         3.49581019170162    2.42423339094076    1.57501035873527
c         2.99622067122868    3.42493220687234    0.75735184545905
h         1.36176708631564    4.32511201509237   -0.12180161411970
h         4.56720466156764    2.35684716216928    1.68643210727266
h         3.80007376855861    4.00756494288609    0.33405706730213
h         3.05432147888431    0.69714037894951    2.81354955215648
c         0.44956904344182    0.46427480414129    2.45663101458877
o         0.89591762066011   -0.53026556696724    2.98586582844772
h        -0.63369980100308    0.61822118495646    2.32712612586194
56
 energy: -94.082982801721 gnorm: 0.101291724715 xtb: 6.4.0 (d4b70c2)
c         0.41887569740449   -2.62156183101268    0.89497518024662
c         0.87563530047421   -3.96007172470875    1.45855056927863
c        -0.53004925700679   -2.72020430082289   -0.30584728296491
o        -0.11462104207450   -3.07103558049874   -1.40682553375603
o         0.31587361349953   -0.31483179529801   -0.32366127229005
o         1.60021115072473   -2.04087393206597   -3.19443611431818
n         1.57927071205808   -2.03284803786919    0.25200774558276
c         1.38250466393507   -0.89654385858284   -0.44758520940670
c         2.45931138380046   -0.49457520121073   -1.43335359093031
c         1.78202936599185   -0.70247027769334   -2.82518406694224
n         2.93034887302035    0.85312888105893   -1.21130654289489
n        -1.82480898570143   -2.46819665263384   -0.11079051059177
c        -2.70945630470125   -1.83246123063584   -1.07264328394250
c        -3.79759516023352   -2.78127590204970   -1.54883784172405
c        -3.24628563059771   -0.62213008171968   -0.27434581838225
o        -3.96184909125314   -0.78970495881476    0.68943613722098
n        -2.75037850019945    0.57329005817553   -0.64332369371802
o        -0.97998962220187    2.49674150733621   -1.17633861723077
o        -0.53405342518337    2.47166723437374    1.08722954457971
c        -2.52859879980915    1.56659532874016    0.38895719092956
c        -1.26326139643138    2.32718345701784   -0.02181095974204
c        -3.65497696785609    2.58668192641610    0.47286607422931
h         0.03144808696116   -2.02725646474404    1.73049528412600
h         1.28759047979255   -4.65620747176042    0.73015367422784
h         0.09504172515696   -4.50139059016211    1.98650400286195
h         1.65519197150761   -3.85026787478410    2.20853196824401
h         0.97607823088974   -2.48117746186509   -2.58658949569329
h         2.46833422401339   -2.50637283347426    0.31052389161955
h         3.26975978851926   -1.22563735649077   -1.32643043979384
h         2.50645994439156   -0.33904959882858   -3.56112681515964
h         0.88272126196605   -0.07449893720621   -2.88179784333571
h         2.25425045683161    1.58286751852665   -1.42454190561858
h         3.72029615377041    0.97943912191343   -1.83556701259414
h        -2.03249663554759   -2.24525485516508    0.85455217952559
h        -2.08185876571499   -1.44529273890184   -1.88477734961918
h        -4.36811299960696   -2.21466846704879   -2.27874382562151
h        -4.28649905793852   -2.96040209613933   -0.59424429132776
h        -3.44374283406581   -3.69988526556167   -2.00971174999667
h        -2.05313154689286    0.61137204550743   -1.37783037642188
h        -2.40950538216164    1.05361069744746    1.35111510881055
h        -3.53285551552323    3.29121667978069    1.29060350621181
h        -4.51537414435119    1.94396853122082    0.63705201325174
h        -3.63927146096081    3.14744613989778   -0.45864354881579
c         0.84138753800144    2.61733523950255    1.04855455507879
c         1.58608595213057    1.65133232876701    1.74340023644639
c         1.48534269701107    3.59246894246064    0.30809754102970
c         2.97777457138249    1.69166626991718    1.74436105337679
c         3.59417934241987    2.56240678181378    0.86706846545529
c         2.86137254963653    3.50509726633136    0.16430108138412
h         0.97982765988617    4.46962535184921   -0.06391639793522
h         4.66353512335710    2.53938622575955    0.72288100791265
h         3.41667552214559    4.21611685801197   -0.42807452401587
h         3.30951943568193    0.87755820644417    2.37146881632963
c         0.85694470563848    0.62523417970298    2.48508976858861
o         1.40600735489977   -0.16466910913882    3.22198189569499
h        -0.24222113129073    0.60932296232073    2.41076882159039
56
 energy: -94.074448664255 gnorm: 0.096973048531 xtb: 6.4.0 (d4b70c2)
c         0.01109826142425   -2.61481017303323    0.84181171242076
c         0.16487117574464   -3.90380609801878    1.63723530098514
c        -0.74405496304701   -2.82435118483949   -0.47652044048272
o        -0.16756864200275   -3.20321800428878   -1.49236479461468
o         0.21853988373153   -0.25088406656745   -0.54151945566170
o         2.30134837543278   -2.63024649792150   -2.80407107647686
n         1.23797257289185   -2.07417660483515    0.28593185998385
c         1.19223174627380   -0.98741791811876   -0.51168816281072
c         2.46064226418999   -0.73470335355162   -1.29915303256657
c         2.24574236779458   -1.23166259806135   -2.76406699305356
n         2.72421983153003    0.67616038742098   -1.13338852793277
n        -2.03937139076746   -2.51123071224449   -0.43103773775156
c        -2.70380960925405   -1.64506950292035   -1.39031234867605
c        -3.69160262853453   -2.41152841954676   -2.25510272256965
c        -3.27315106423535   -0.58224691715973   -0.42251870917674
o        -3.95159894714901   -0.91102135795194    0.52648282346143
n        -2.79268763563041    0.66532286006018   -0.57686385911729
o        -1.10851560676857    2.59828909738921   -0.81487023543912
o        -0.42336761451482    2.24990744978322    1.31137552953133
c        -2.55224803450419    1.39633198758425    0.65165553578963
c        -1.29860354974238    2.20619077156704    0.30408128158934
c        -3.70957149554348    2.22491132923498    1.19054686123945
h        -0.52053046846870   -1.84523759841503    1.41323258280667
h         0.84610419187512   -4.55791690642535    1.09600086686979
h        -0.73041788038783   -4.48558367368887    1.83991640570454
h         0.63724486437024   -3.71828164723508    2.59883883878313
h         1.47451296592672   -2.98354613885974   -2.42405899638543
h         2.02190254368393   -2.70866174232729    0.25484793533541
h         3.22787267087639   -1.32906622149391   -0.78846591142729
h         3.15041514095276   -0.97828316156801   -3.32607412462420
h         1.32531100854758   -0.82342523978862   -3.20276570762499
h         1.87162807507574    1.22007628379359   -1.24447255778624
h         3.42445289146800    0.94304564546994   -1.81758004940841
h        -2.50514757724266   -2.55041051546813    0.46687161284815
h        -1.91053132837685   -1.33064030676875   -2.07964804711358
h        -4.05193369806452   -1.75385693472083   -3.04054977668126
h        -4.52281537180010   -2.85094385880737   -1.70887794379775
h        -3.14317513706122   -3.25827161914455   -2.65971689931942
h        -2.21682060500306    0.93993553293010   -1.36430825077467
h        -2.24082548021936    0.74016058875766    1.47356760171502
h        -3.36073999577284    2.83338587058679    2.02003628203048
h        -4.62136340909474    1.75861322076528    1.55320705983584
h        -4.02056896699254    2.96729487246367    0.45941035022044
c         0.88691338882155    2.65154132385879    1.12056954345916
c         1.88788192743119    1.89250796498519    1.74705063287875
c         1.23619180856076    3.63189899591609    0.20911780379497
c         3.19930444621532    2.23719993501373    1.43116514596048
c         3.56422126759936    3.17166237378394    0.48174323198623
c         2.55290440347447    3.88060347223149   -0.14610545681943
h         0.53631908839774    4.35548002566171   -0.17811852366683
h         4.63758435214241    3.12374304623457    0.37958038004838
h         2.65666049240661    4.75551238769390   -0.76947391772016
h         4.00423326901626    1.64132028393853    1.83503129165346
c         1.53755258285329    0.91255915086747    2.77252499952573
o         2.18257453592026   -0.01451352429337    3.21174025239279
h         0.56731956181528    1.11047022477789    3.25566213295418
56
 energy: -94.076555466399 gnorm: 0.110852442502 xtb: 6.4.0 (d4b70c2)
c        -0.21429006509555   -2.82144894775621    0.50806934056231
c        -0.17763004661227   -4.12685535917452    1.29064549426306
c        -0.96888924373527   -2.82698795871152   -0.82711338032476
o        -0.33256814743186   -2.77543120754127   -1.87604315115862
o         0.25470611462854   -0.24090482017817   -0.51018650451705
o         2.60140392779362   -3.10408834705612   -1.76321800582503
n         1.07819323111215   -2.21305299878129    0.25145885144105
c         1.16960367816814   -1.04431864254544   -0.41565321133983
c         2.53048224622180   -0.78297666767980   -1.02601434334668
c         2.66276665127100   -1.78165645222906   -2.21943920181101
n         2.52438380030091    0.62519647258990   -1.34927695684687
n        -2.30225242635958   -2.82539482765561   -0.83700502995022
c        -3.01075820175121   -1.74880904929985   -1.50849873781718
c        -4.22503793053671   -2.15653488765449   -2.32724234628881
c        -3.30776025759724   -0.75367184174495   -0.36313512854824
o        -4.23971960212620   -1.04762485562086    0.35382476233815
n        -2.50679288428531    0.32414867105925   -0.27452304122868
o        -1.26618110723357    2.66605951864958   -0.65573535112622
o        -0.29273584855260    2.20465598716321    1.32447249404710
c        -2.44515558552113    1.24483899937101    0.84350004615049
c        -1.28316251416333    2.15452664093413    0.43053016801715
c        -3.60710459897715    2.18097254141343    1.14328941335152
h        -0.81039881849458   -2.10256230022003    1.08187175328792
h        -0.00530273326135   -4.95621452865399    0.60702224254120
h        -1.17567145236541   -4.24500911799879    1.70421569864160
h         0.56788344855620   -4.04744426472590    2.07813587177520
h         1.64956012241820   -3.30213296855801   -1.85072977529473
h         1.80648606632251   -2.89110710868719    0.08437812085988
h         3.33980777297404   -0.99137769472766   -0.31589304682289
h         3.63346003354554   -1.51563565823162   -2.65010528614494
h         1.94962095106838   -1.67833118381980   -3.04832718543915
h         1.62642607087104    1.06096714425497   -1.54643857893851
h         3.22338921456235    0.82700323858664   -2.05662240103205
h        -2.77582119600990   -3.09546387449187    0.01594224109088
h        -2.36174687443556   -1.22879362822081   -2.22383650230478
h        -4.58750534035372   -1.34969088797117   -2.95725621476045
h        -5.14978664975643   -2.46237431363516   -1.84385418444592
h        -3.88209426149396   -2.82602061035455   -3.11186830774336
h        -1.78271142036707    0.54585910068187   -0.94806157039117
h        -2.30224990334286    0.68887694265037    1.77814892261184
h        -3.51789757613951    2.66767718592132    2.11031479016827
h        -4.54141366714012    1.62836579219274    1.18815793296336
h        -3.78777140665560    2.87896101602677    0.32929620402815
c         0.97801918856263    2.70341696122127    1.09870236295650
c         2.13683359342015    2.14917769410795    1.66484390985647
c         1.11586505450735    3.80814383344008    0.27747284624678
c         3.39305170649524    2.69084967182212    1.40613027515469