[Molden Format]
[Geometries] (XYZ)
9

C       -2.509867      -0.042538       1.240075
C       -1.133009      -0.089665       1.829550
C       -0.023908      -0.003357       1.119211
H       -1.076067      -0.201825       2.904186
H       -3.270004      -0.131524       2.011243
H       -2.664732       0.895290       0.707799
H       -2.646094      -0.852601       0.524482
H       -0.046392       0.108722       0.047046
H        0.951373      -0.040801       1.573419
9

C       -2.478401       0.175265       1.283805
C       -1.091910      -0.008715       1.651005
C        0.097081       0.113112       1.092407
H       -1.097421      -0.406330       2.830700
H       -3.240837      -0.011335       2.029134
H       -2.692016       1.080253       0.723559
H       -2.632168      -0.970842       0.746003
H        0.203501       0.063752       0.015936
H        1.002158       0.177414       1.661305
9

C       -2.463606       0.392179       1.271547
C       -1.139298       0.117902       1.426952
C        0.101991       0.198213       1.002784
H       -1.298066      -0.702534       2.860202
H       -3.220127       0.126119       1.997361
H       -2.745948       1.306247       0.750545
H       -2.580113      -1.290188       0.954434
H        0.327606       0.028705      -0.041898
H        0.935150       0.328237       1.665685
9

C       -2.467146       0.543897       1.258958
C       -1.164852       0.270845       1.237891
C        0.104839       0.197902       0.966582
H       -1.423892      -1.082225       2.870395
H       -3.178231       0.184043       1.991254
H       -2.834330       1.459488       0.798357
H       -2.484908      -1.662433       1.223628
H        0.439822      -0.087655      -0.016898
H        0.866327       0.349906       1.706631
9

C       -2.440280       0.694252       1.199256
C       -1.198179       0.356709       1.161059
C        0.071940       0.256363       0.901969
H       -1.655639      -1.535100       2.892723
H       -3.171936       0.268364       1.876656
H       -2.807006       1.616269       0.764808
H       -2.415387      -2.010463       1.514546
H        0.409328      -0.107440      -0.056958
H        0.828781       0.453743       1.640158
9

C       -2.442290       0.844289       1.168189
C       -1.207583       0.499418       1.056330
C        0.053183       0.260356       0.872014
H       -1.796997      -1.949701       2.854344
H       -3.153006       0.321341       1.795881
H       -2.831069       1.768569       0.766721
H       -2.281853      -2.315162       1.825195
H        0.416468      -0.206591      -0.028737
H        0.791074       0.486870       1.623715
9

C       -2.443029       0.995888       1.122827
C       -1.206685       0.645277       0.976997
C        0.030194       0.296793       0.830245
H       -1.873159      -2.307341       2.905324
H       -3.144742       0.387060       1.670818
H       -2.826167       1.913470       0.705979
H       -2.102169      -2.577434       2.214202
H        0.357162      -0.298368      -0.007467
H        0.789896       0.586354       1.538084
[GEOCONV]
energy
0.0
32.1319417875
124.652873195
146.766752714
120.086237439
79.2488927843
51.4982422984
max-force
3.27880519611e-05
0.00783706189071
0.00893171636189
0.00454510976642
0.00476976823221
0.0092929846394
7.68084407891e-05
max-step
1000.0
1000.0
1000.0
1000.0
1000.0
1000.0
1000.0
