[Molden Format]
[Geometries] (XYZ)
9

C       -2.509867      -0.042538       1.240075
C       -1.133009      -0.089665       1.829550
C       -0.023908      -0.003357       1.119211
H       -1.076067      -0.201825       2.904186
H       -3.270004      -0.131524       2.011243
H       -2.664732       0.895290       0.707799
H       -2.646094      -0.852601       0.524482
H       -0.046392       0.108722       0.047046
H        0.951373      -0.040801       1.573419
9

C       -2.534616       0.149548       1.253254
C       -1.142013      -0.036183       1.644312
C        0.045673       0.091288       1.084857
H       -1.140398      -0.431901       2.784577
H       -3.296462      -0.034342       2.000382
H       -2.737465       1.046491       0.683465
H       -2.696457      -0.967629       0.747225
H        0.157001       0.039184       0.009890
H        0.948898       0.169067       1.656560
9

C       -2.512606       0.344348       1.281432
C       -1.172250       0.063807       1.441793
C        0.071639       0.149876       1.024085
H       -1.316046      -0.748119       2.810681
H       -3.256082       0.071000       2.010643
H       -2.806034       1.246392       0.748981
H       -2.640634      -1.300512       0.991441
H        0.314326      -0.018356      -0.015845
H        0.897786       0.287184       1.696566
9

C       -2.490822       0.510655       1.270781
C       -1.196611       0.243378       1.257745
C        0.071190       0.173004       0.983291
H       -1.449619      -1.104912       2.852984
H       -3.197692       0.157999       2.001135
H       -2.852853       1.420063       0.795751
H       -2.501195      -1.669933       1.251031
H        0.411157      -0.110442      -0.000757
H        0.832047       0.322862       1.726150
9

C       -2.457254       0.677478       1.215520
C       -1.210880       0.346738       1.179079
C        0.059892       0.241868       0.924219
H       -1.675278      -1.545829       2.873120
H       -3.184210       0.251178       1.895928
H       -2.826099       1.594101       0.772898
H       -2.405946      -2.003134       1.549062
H        0.403085      -0.123324      -0.032511
H        0.814267       0.436115       1.665631
9

C       -2.450681       0.838858       1.173001
C       -1.211531       0.501667       1.066168
C        0.050509       0.264493       0.886572
H       -1.812141      -1.937689       2.816305
H       -3.156234       0.317759       1.809339
H       -2.841078       1.754294       0.758428
H       -2.265557      -2.278265       1.859637
H        0.417296      -0.199923      -0.014314
H        0.786379       0.488179       1.641639
9

C       -2.443029       0.995888       1.122827
C       -1.206685       0.645277       0.976997
C        0.030194       0.296793       0.830245
H       -1.873159      -2.307341       2.905324
H       -3.144742       0.387060       1.670818
H       -2.826167       1.913470       0.705979
H       -2.102169      -2.577434       2.214202
H        0.357162      -0.298368      -0.007467
H        0.789896       0.586354       1.538084
[GEOCONV]
energy
0.0
27.0799882775
118.582431605
144.768609551
115.666885196
72.342203323
51.4982422984
max-force
3.27880519611e-05
0.00782717672897
0.00727133154097
0.00467894762389
0.00831268603918
0.00990021467859
7.68084407891e-05
max-step
1000.0
1000.0
1000.0
1000.0
1000.0
1000.0
1000.0
