[Molden Format]
[Geometries] (XYZ)
9

C       -2.505904      -0.002289       1.432757
C       -1.052489      -0.048889       1.766759
C       -0.079090      -0.084477       0.877084
H       -0.822421      -0.052314       2.825008
H       -2.659617      -0.001455       0.356399
H       -2.959772       0.894134       1.855208
H       -3.017710      -0.863523       1.862119
H       -0.279965      -0.082025      -0.182164
H        0.958267      -0.117563       1.163840
9

C       -2.494315      -0.110400       1.371358
C       -1.098420       0.035089       1.805336
C       -0.165524      -0.073823       0.880479
H       -0.844945       0.009191       2.849494
H       -2.783287       0.019503       0.339910
H       -2.803061       1.024351       1.804021
H       -2.972756      -0.955927       1.846829
H       -0.332767       0.024853      -0.172183
H        0.867614      -0.166689       1.193787
9

C       -2.474129      -0.214433       1.319716
C       -1.154741       0.122555       1.845928
C       -0.237618      -0.055322       0.879713
H       -0.875729       0.064320       2.877175
H       -2.878055       0.001750       0.348105
H       -2.595058       1.204368       1.769965
H       -2.904384      -1.072012       1.816110
H       -0.358354       0.134676      -0.161130
H        0.787662      -0.214271       1.218797
9

C       -2.365653      -0.298341       1.276056
C       -1.233155       0.232453       1.927459
C       -0.344278      -0.047210       0.848237
H       -0.975544       0.164008       2.964736
H       -2.782324      -0.054822       0.324264
H       -2.310873       1.379858       1.827181
H       -2.754865      -1.207871       1.753452
H       -0.437088       0.216381      -0.181972
H        0.648328      -0.294230       1.206697
9

C       -2.250055      -0.378446       1.226731
C       -1.285118       0.351959       1.982295
C       -0.463134      -0.053002       0.846370
H       -1.040071       0.265223       3.022610
H       -2.723732      -0.103697       0.310208
H       -2.066194       1.455204       1.864501
H       -2.572753      -1.325809       1.682382
H       -0.505356       0.294479      -0.163344
H        0.479986      -0.426898       1.206585
9

C       -2.149111      -0.460618       1.183109
C       -1.355622       0.447086       1.990294
C       -0.559606      -0.076019       0.855599
H       -1.105375       0.297425       3.024914
H       -2.750645      -0.166830       0.350104
H       -1.897211       1.500998       1.851974
H       -2.387928      -1.426526       1.631964
H       -0.499370       0.377759      -0.113295
H        0.319177      -0.597936       1.188644
9

C       -2.047095      -0.549855       1.126551
C       -1.450067       0.527013       1.977066
C       -0.642174      -0.095908       0.882358
H       -1.195990       0.290452       2.999350
H       -2.806082      -0.276018       0.410067
H       -1.800669       1.539038       1.842696
H       -2.201016      -1.523231       1.566212
H       -0.440463       0.488652      -0.002222
H        0.164855      -0.758544       1.154933
[GEOCONV]
energy
0.0
19.5086159761
72.3569379984
144.713754768
74.0636490458
18.8865156026
-3.71813851779
max-force
3.0269427788e-05
0.00708736824902
0.00694137920961
0.00723847025822
0.00716332069507
0.008194204837
6.77248989879e-05
max-step
1000.0
1000.0
1000.0
1000.0
1000.0
1000.0
1000.0
