[Molden Format]
[Geometries] (XYZ)
9

C       -2.505904      -0.002289       1.432757
C       -1.052489      -0.048889       1.766759
C       -0.079090      -0.084477       0.877084
H       -0.822421      -0.052314       2.825008
H       -2.659617      -0.001455       0.356399
H       -2.959772       0.894134       1.855208
H       -3.017710      -0.863523       1.862119
H       -0.279965      -0.082025      -0.182164
H        0.958267      -0.117563       1.163840
9

C       -2.531982      -0.124330       1.408142
C       -1.084844       0.058390       1.759600
C       -0.094404      -0.067568       0.893261
H       -0.856270      -0.031506       2.812324
H       -2.817282       0.015839       0.371862
H       -2.792019       0.929188       1.763571
H       -3.025308      -0.916176       1.937628
H       -0.252236       0.048464      -0.165799
H        0.931522      -0.203449       1.198286
9

C       -2.532425      -0.263541       1.365799
C       -1.143442       0.129618       1.773681
C       -0.127919      -0.027303       0.906378
H       -0.884751       0.036379       2.815372
H       -2.939972      -0.015912       0.399954
H       -2.388340       1.166146       1.741153
H       -3.021593      -1.040785       1.910016
H       -0.243169       0.150568      -0.145036
H        0.891796      -0.168800       1.242227
9

C       -2.516011      -0.385340       1.340673
C       -1.232257       0.229442       1.829253
C       -0.172212      -0.000154       0.867063
H       -0.971629       0.148772       2.874601
H       -2.875228      -0.136073       0.364012
H       -1.807877       1.266981       1.786377
H       -3.017374      -1.199164       1.831862
H       -0.286686       0.222466      -0.173007
H        0.825745      -0.180903       1.228582
9

C       -2.293668      -0.399611       1.234704
C       -1.247335       0.352551       1.951802
C       -0.443382      -0.099151       0.840102
H       -1.013682       0.305074       2.996623
H       -2.681961      -0.125231       0.273402
H       -1.840207       1.421949       1.900514
H       -2.699288      -1.307620       1.671157
H       -0.546550       0.187198      -0.184677
H        0.513802      -0.439933       1.204277
9

C       -2.137281      -0.464093       1.188347
C       -1.312391       0.491871       1.970966
C       -0.614541      -0.151208       0.849990
H       -1.071823       0.348933       3.011701
H       -2.657457      -0.164983       0.296532
H       -1.755321       1.492180       1.927040
H       -2.424686      -1.421709       1.593497
H       -0.583387       0.246126      -0.148256
H        0.248452      -0.694766       1.197933
9

C       -2.047095      -0.549855       1.126551
C       -1.450067       0.527013       1.977066
C       -0.642174      -0.095908       0.882358
H       -1.195990       0.290452       2.999350
H       -2.806082      -0.276018       0.410067
H       -1.800669       1.539038       1.842696
H       -2.201016      -1.523231       1.566212
H       -0.440463       0.488652      -0.002222
H        0.164855      -0.758544       1.154933
[GEOCONV]
energy
0.0
13.7593064565
72.7989911511
100.347018025
65.4213860003
10.8081109714
-3.71813851779
max-force
3.0269427788e-05
0.00167666177736
0.00508720798198
0.00478204626837
0.0076082557072
0.00154200021907
6.77248989879e-05
max-step
1000.0
1000.0
1000.0
1000.0
1000.0
1000.0
1000.0
