      -----------------------------------------------------------      
     |                   =====================                   |     
     |                           x T B                           |     
     |                   =====================                   |     
     |                         S. Grimme                         |     
     |          Mulliken Center for Theoretical Chemistry        |     
     |                    University of Bonn                     |     
      -----------------------------------------------------------      

   * xtb version 6.4.0 (d4b70c2) compiled by 'ehlert@majestix' on 2021-02-01

   xtb is free software: you can redistribute it and/or modify it under
   the terms of the GNU Lesser General Public License as published by
   the Free Software Foundation, either version 3 of the License, or
   (at your option) any later version.
   
   xtb is distributed in the hope that it will be useful,
   but WITHOUT ANY WARRANTY; without even the implied warranty of
   MERCHANTABILITY or FITNESS FOR A PARTICULAR PURPOSE.  See the
   GNU Lesser General Public License for more details.
   
   Cite this work as:
   * C. Bannwarth, E. Caldeweyher, S. Ehlert, A. Hansen, P. Pracht,
     J. Seibert, S. Spicher, S. Grimme, WIREs Comput. Mol. Sci., 2020,
     e01493. DOI: 10.1002/wcms.1493
   
   for GFN2-xTB:
   * C. Bannwarth, S. Ehlert and S. Grimme., J. Chem. Theory Comput., 2019,
     15, 1652-1671. DOI: 10.1021/acs.jctc.8b01176
   for GFN1-xTB:
   * S. Grimme, C. Bannwarth, P. Shushkov, J. Chem. Theory Comput., 2017,
     13, 1989-2009. DOI: 10.1021/acs.jctc.7b00118
   for GFN0-xTB:
   * P. Pracht, E. Caldeweyher, S. Ehlert, S. Grimme, ChemRxiv, 2019, preprint.
     DOI: 10.26434/chemrxiv.8326202.v1
   for GFN-FF:
   * S. Spicher and S. Grimme, Angew. Chem. Int. Ed., 2020, 59, 15665-15673.
     DOI: 10.1002/anie.202004239
   
   for DFT-D4:
   * E. Caldeweyher, C. Bannwarth and S. Grimme, J. Chem. Phys., 2017,
     147, 034112. DOI: 10.1063/1.4993215
   * E. Caldeweyher, S. Ehlert, A. Hansen, H. Neugebauer, S. Spicher,
     C. Bannwarth and S. Grimme, J. Chem. Phys., 2019, 150, 154122.
     DOI: 10.1063/1.5090222
   * E. Caldeweyher, J.-M. Mewes, S. Ehlert and S. Grimme, Phys. Chem. Chem. Phys.
     2020, 22, 8499-8512. DOI: 10.1039/D0CP00502A
   
   for sTDA-xTB:
   * S. Grimme and C. Bannwarth, J. Chem. Phys., 2016, 145, 054103.
     DOI: 10.1063/1.4959605
   
   in the mass-spec context:
   * V. Asgeirsson, C. Bauer and S. Grimme, Chem. Sci., 2017, 8, 4879.
     DOI: 10.1039/c7sc00601b
   * J. Koopman and S. Grimme, ACS Omega 2019, 4, 12, 15120-15133.
     DOI: 10.1021/acsomega.9b02011
   
   for metadynamics refer to:
   * S. Grimme, J. Chem. Theory Comput., 2019, 155, 2847-2862
     DOI: 10.1021/acs.jctc.9b00143
   
   with help from (in alphabetical order)
   P. Atkinson, C. Bannwarth, F. Bohle, G. Brandenburg, E. Caldeweyher
   M. Checinski, S. Dohm, S. Ehlert, S. Ehrlich, I. Gerasimov, J. Koopman
   C. Lavinge, S. Lehtola, F. März, M. Müller, F. Musil, H. Neugebauer
   J. Pisarek, P. Pracht, J. Seibert, P. Shushkov, S. Spicher, M. Stahn
   T. Strunk, J. Stückrath, T. Rose, and J. Unsleber
   
 * started run on 2021/09/05 at 21:28:14.829     

           -------------------------------------------------
          |                Calculation Setup                |
           -------------------------------------------------

          program call               : xtb -c 0 -u 0 -a 1.0 --iterations 100 --opt normal --namespace AEIQXSQWMRMDNM-AHCXZYCDSA-N /home/zhao922/bin/Github/YARP/version2.0/CONF_GEN/RCS_paper/IC/opt-folder/AEIQXSQWMRMDNM-AHCXZYCDSA-N.xyz
          hostname                   : bell-a001
          calculation namespace      : AEIQXSQWMRMDNM-AHCXZYCDSA-N
          coordinate file            : /home/zhao922/bin/Github/YARP/version2.0/CONF_GEN/RCS_paper/IC/opt-folder/AEIQXSQWMRMDNM-AHCXZYCDSA-N.xyz
          omp threads                :                     2
          number of atoms            :                    48
          number of electrons        :                   120
          charge                     :                     0
          spin                       :                   0.0
          first test random number   :      0.42743203571612

   ID    Z sym.   atoms
    1   14 Si     1
    2    6 C      2, 6, 10, 15, 16, 19, 20, 22-25, 27, 28, 31, 38, 39, 41, 42
    3    1 H      3-5, 7-9, 12-14, 17, 18, 29, 30, 32-37, 40, 43-48
    4    8 O      11, 21, 26

           -------------------------------------------------
          |                 G F N 2 - x T B                 |
           -------------------------------------------------

        Reference                      10.1021/acs.jctc.8b01176
      * Hamiltonian:
        H0-scaling (s, p, d)           1.850000    2.230000    2.230000
        zeta-weighting                 0.500000
      * Dispersion:
        s8                             2.700000
        a1                             0.520000
        a2                             5.000000
        s9                             5.000000
      * Repulsion:
        kExp                           1.500000    1.000000
        rExp                           1.000000
      * Coulomb:
        alpha                          2.000000
        third order                    shell-resolved
        anisotropic                    true
        a3                             3.000000
        a5                             4.000000
        cn-shift                       1.200000
        cn-exp                         4.000000
        max-rad                        5.000000


          ...................................................
          :                      SETUP                      :
          :.................................................:
          :  # basis functions                 120          :
          :  # atomic orbitals                 119          :
          :  # shells                           71          :
          :  # electrons                       120          :
          :  max. iterations                   100          :
          :  Hamiltonian                  GFN2-xTB          :
          :  restarted?                      false          :
          :  GBSA solvation                  false          :
          :  PC potential                    false          :
          :  electronic temp.          300.0000000     K    :
          :  accuracy                    1.0000000          :
          :  -> integral cutoff          0.2500000E+02      :
          :  -> integral neglect         0.1000000E-07      :
          :  -> SCF convergence          0.1000000E-05 Eh   :
          :  -> wf. convergence          0.1000000E-03 e    :
          :  Broyden damping             0.4000000          :
          ...................................................

 iter      E             dE          RMSdq      gap      omega  full diag
   1    -66.4835513 -0.664836E+02  0.379E+00    4.57       0.0  T
   2    -66.6374430 -0.153892E+00  0.228E+00    4.00       1.0  T
   3    -66.6450703 -0.762728E-02  0.124E+00    4.23       1.0  T
   4    -66.6599150 -0.148447E-01  0.601E-01    3.89       1.0  T
   5    -66.6672634 -0.734847E-02  0.222E-01    3.88       1.0  T
   6    -66.6677222 -0.458739E-03  0.133E-01    3.90       1.0  T
   7    -66.6679389 -0.216716E-03  0.736E-02    3.93       1.0  T
   8    -66.6679910 -0.521549E-04  0.352E-02    3.93       1.0  T
   9    -66.6679891  0.189532E-05  0.192E-02    3.93       1.0  T
  10    -66.6679992 -0.100351E-04  0.750E-03    3.93       1.9  T
  11    -66.6679994 -0.194562E-06  0.330E-03    3.93       4.4  T
  12    -66.6679994 -0.344199E-07  0.128E-03    3.93      11.3  T
  13    -66.6679994 -0.382963E-08  0.705E-04    3.93      20.5  T
  14    -66.6679994 -0.230450E-08  0.368E-04    3.93      39.2  T

   *** convergence criteria satisfied after 14 iterations ***

         #    Occupation            Energy/Eh            Energy/eV
      -------------------------------------------------------------
         1        2.0000           -0.7655177             -20.8308
       ...           ...                  ...                  ...
        54        2.0000           -0.4210226             -11.4566
        55        2.0000           -0.4125886             -11.2271
        56        2.0000           -0.4118893             -11.2081
        57        2.0000           -0.3959835             -10.7753
        58        2.0000           -0.3884392             -10.5700
        59        2.0000           -0.3846445             -10.4667
        60        2.0000           -0.3783616             -10.2957 (HOMO)
        61                         -0.2339723              -6.3667 (LUMO)
        62                         -0.2100862              -5.7167
        63                         -0.1965263              -5.3478
        64                         -0.1294463              -3.5224
        65                         -0.1123372              -3.0569
       ...                                ...                  ...
       119                          0.7608708              20.7043
      -------------------------------------------------------------
                  HL-Gap            0.1443892 Eh            3.9290 eV
             Fermi-level           -0.3061669 Eh           -8.3312 eV

 SCC (total)                   0 d,  0 h,  0 min,  0.057 sec
 SCC setup                      ...        0 min,  0.001 sec (  0.924%)
 Dispersion                     ...        0 min,  0.000 sec (  0.763%)
 classical contributions        ...        0 min,  0.000 sec (  0.163%)
 integral evaluation            ...        0 min,  0.011 sec ( 19.736%)
 iterations                     ...        0 min,  0.025 sec ( 43.294%)
 molecular gradient             ...        0 min,  0.020 sec ( 34.361%)
 printout                       ...        0 min,  0.000 sec (  0.726%)

         :::::::::::::::::::::::::::::::::::::::::::::::::::::
         ::                     SUMMARY                     ::
         :::::::::::::::::::::::::::::::::::::::::::::::::::::
         :: total energy             -65.775199449378 Eh    ::
         :: gradient norm              0.000125294936 Eh/a0 ::
         :: HOMO-LUMO gap              3.929031241407 eV    ::
         ::.................................................::
         :: SCC energy               -66.667999413422 Eh    ::
         :: -> isotropic ES            0.087079553579 Eh    ::
         :: -> anisotropic ES          0.008135994362 Eh    ::
         :: -> anisotropic XC          0.022342957153 Eh    ::
         :: -> dispersion             -0.051629152200 Eh    ::
         :: repulsion energy           0.891289573569 Eh    ::
         :: add. restraining           0.000000000000 Eh    ::
         :: total charge              -0.000000000000 e     ::
         :::::::::::::::::::::::::::::::::::::::::::::::::::::

      ----------------------------------------------------------- 
     |                   =====================                   |
     |                        A N C O P T                        |
     |                   =====================                   |
     |               Approximate Normal Coordinate               |
     |                Rational Function Optimizer                |
      ----------------------------------------------------------- 

          ...................................................
          :                      SETUP                      :
          :.................................................:
          :   optimization level            normal          :
          :   max. optcycles                   200          :
          :   ANC micro-cycles                  20          :
          :   degrees of freedom               138          :
          :.................................................:
          :   RF solver                   davidson          :
          :   write xtbopt.log                true          :
          :   linear?                        false          :
          :   energy convergence         0.5000000E-05 Eh   :
          :   grad. convergence          0.1000000E-02 Eh/α :
          :   maximium RF displ.         1.0000000          :
          :   Hlow (freq-cutoff)         0.1000000E-01      :
          :   Hmax (freq-cutoff)         5.0000000          :
          :   S6 in model hess.         20.0000000          :
          ...................................................

generating ANC from model Hessian ...
Using Lindh-Hessian (1995)
 Shifting diagonal of input Hessian by   9.809373056860842E-003
 Lowest  eigenvalues of input Hessian
    0.000000    0.000000    0.000000    0.000000    0.000000    0.000000
    0.010000    0.010171    0.010589    0.010938    0.011310    0.012132
    0.012897    0.013023    0.013545    0.013980    0.015345    0.015838
 Highest eigenvalues
    1.698416    1.769959    1.914189    1.948253    2.135314    2.398286
 

........................................................................
.............................. CYCLE    1 ..............................
........................................................................
   1    -66.6679994 -0.666680E+02  0.120E-04    3.93       0.0  T
   2    -66.6679994 -0.890878E-10  0.770E-05    3.93     187.6  T
   3    -66.6679994 -0.554223E-12  0.645E-05    3.93     223.9  T
     SCC iter.                  ...        0 min,  0.005 sec
     gradient                   ...        0 min,  0.019 sec
 * total energy  :   -65.7751995 Eh     change       -0.2450051E-08 Eh
   gradient norm :     0.0001255 Eh/α   predicted     0.0000000E+00 (-100.00%)
   displ. norm   :     0.0052573 α      lambda       -0.1858158E-07
   maximum displ.:     0.0022824 α      in ANC's #10, #4, #6, ...

   *** GEOMETRY OPTIMIZATION CONVERGED AFTER 1 ITERATIONS ***

------------------------------------------------------------------------
 total energy gain   :        -0.0000000 Eh       -0.0000 kcal/mol
 total RMSD          :         0.0000000 a0        0.0000 Å
 total power (kW/mol):        -0.0000064 (step)   -0.0001 (real)
------------------------------------------------------------------------

 ANCopt (total)                0 d,  0 h,  0 min,  0.072 sec
 optimizer setup                ...        0 min,  0.000 sec (  0.521%)
 model hessian                  ...        0 min,  0.033 sec ( 45.410%)
 ANC generation                 ...        0 min,  0.001 sec (  2.044%)
 coordinate transformation      ...        0 min,  0.000 sec (  0.017%)
 single point calculation       ...        0 min,  0.037 sec ( 51.052%)
 optimization log               ...        0 min,  0.000 sec (  0.496%)
 hessian update                 ...        0 min,  0.000 sec (  0.003%)
 rational function              ...        0 min,  0.000 sec (  0.163%)

================
 final structure:
================
48
 xtb: 6.4.0 (d4b70c2)
Si        1.98834684000000   -2.41309215000000    0.21535227000000
C         3.69543235000000   -1.78101122000000    0.75959846000000
H         4.50289725000000   -2.38068885000000    0.35256487000000
H         3.79839934000000   -1.78297668000000    1.84132827000000
H         3.83424882000000   -0.75671213000000    0.42357468000000
C         1.46200990000000   -3.94373627000000    1.23013712000000
H         2.03186170000000   -4.81927946000000    0.93642186000000
H         0.41048588000000   -4.17358381000000    1.08042700000000
H         1.61618110000000   -3.80217419000000    2.29629707000000
C         1.89132149000000   -2.79476112000000   -1.64381996000000
O         0.86680812000000   -1.20996670000000    0.34632770000000
H         2.58894130000000   -3.58184835000000   -1.90863747000000
H         2.13977650000000   -1.91997696000000   -2.23645028000000
H         0.89963333000000   -3.12393087000000   -1.93957462000000
C         0.64747820000000   -0.25467491000000    1.27451233000000
C         0.67844561000000   -0.45952529000000    2.58289876000000
H         0.89596959000000   -1.43149493000000    2.98392257000000
H         0.49986584000000    0.33880241000000    3.27740073000000
C         0.38155323000000    1.07116021000000    0.65214629000000
C         1.50576317000000    1.62974401000000   -0.17162692000000
O         1.01329721000000    2.34820914000000   -1.19207106000000
C        -0.61862206000000    2.04563047000000    1.23992887000000
C        -1.94435442000000    0.45108385000000   -0.44526209000000
C        -3.06358594000000    0.34744987000000    0.26205632000000
C        -1.62981325000000   -0.45197861000000   -1.60637436000000
O         2.67908677000000    1.44477315000000   -0.01087980000000
C        -4.12762928000000   -0.66895850000000   -0.00797586000000
C        -2.86952732000000   -1.19486664000000   -2.09297688000000
H        -0.86684630000000   -1.16527550000000   -1.28114674000000
H        -1.19356558000000    0.12975126000000   -2.42229759000000
C        -3.60973273000000   -1.79161386000000   -0.90199685000000
H        -4.97877589000000   -0.17293247000000   -0.48767170000000
H        -4.48864583000000   -1.07494726000000    0.94046650000000
H        -2.57863339000000   -1.97903469000000   -2.79411664000000
H        -3.53187950000000   -0.50209094000000   -2.61729005000000
H        -4.44038836000000   -2.41452173000000   -1.23886943000000
H        -2.92177245000000   -2.41987360000000   -0.33288599000000
C        -0.36001652000000    3.53494699000000    1.09058745000000
C        -0.89131102000000    1.42807887000000   -0.09824717000000
H        -1.14108183000000    1.70238486000000    2.12035809000000
C        -0.40191979000000    2.49570439000000   -1.08557481000000
C        -0.69881963000000    3.82252820000000   -0.38068083000000
H        -1.75805066000000    4.05459367000000   -0.49229951000000
H        -0.10824268000000    4.63432200000000   -0.80157531000000
H         0.68282465000000    3.77740411000000    1.30386513000000
H        -0.98741342000000    4.11237886000000    1.76813161000000
H        -0.81995078000000    2.43168606000000   -2.09082099000000
H        -3.25205595000000    1.02629726000000    1.08273459000000
 
 Bond Distances (Angstroems)
 ---------------------------
Si1-C2=1.9000        Si1-C6=1.9104        Si1-C10=1.9004       Si1-O11=1.6500       C2-Si1=1.9000        C2-H3=1.0850         
C2-H4=1.0866         C2-H5=1.0869         H3-C2=1.0850         H4-C2=1.0866         H5-C2=1.0869         C6-Si1=1.9104        
C6-H7=1.0852         C6-H8=1.0867         C6-H9=1.0865         H7-C6=1.0852         H8-C6=1.0867         H9-C6=1.0865         
C10-Si1=1.9004       C10-H12=1.0846       C10-H13=1.0854       C10-H14=1.0859       O11-Si1=1.6500       O11-C15=1.3499       
H12-C10=1.0846       H13-C10=1.0854       H14-C10=1.0859       C15-O11=1.3499       C15-C16=1.3247       C15-C19=1.4886       
C16-C15=1.3247       C16-H17=1.0737       C16-H18=1.0731       H17-C16=1.0737       H18-C16=1.0731       C19-C15=1.4886       
C19-C20=1.5015       C19-C22=1.5151       C19-C39=1.5201       C20-C19=1.5015       C20-O21=1.3416       C20-O26=1.1986       
O21-C20=1.3416       O21-C41=1.4269       C22-C19=1.5151       C22-C38=1.5190       C22-C39=1.4988       C22-H40=1.0798       
C23-C24=1.3281       C23-C25=1.5042       C23-C39=1.4778       C24-C23=1.3281       C24-C27=1.4961       C24-H48=1.0816       
C25-C23=1.5042       C25-C28=1.5250       C25-H29=1.0939       C25-H30=1.0929       O26-C20=1.1986       C27-C24=1.4961       
C27-C31=1.5257       C27-H32=1.0957       C27-H33=1.0930       C28-C25=1.5250       C28-C31=1.5240       C28-H34=1.0914       
C28-H35=1.0925       H29-C25=1.0939       H30-C25=1.0929       C31-C27=1.5257       C31-C28=1.5240       C31-H36=1.0916       
C31-H37=1.0917       H32-C27=1.0957       H33-C27=1.0930       H34-C28=1.0914       H35-C28=1.0925       H36-C31=1.0916       
H37-C31=1.0917       C38-C22=1.5190       C38-C42=1.5369       C38-H45=1.0917       C38-H46=1.0891       C39-C19=1.5201       
C39-C22=1.4988       C39-C23=1.4778       C39-C41=1.5343       H40-C22=1.0798       C41-O21=1.4269       C41-C39=1.5343       
C41-C42=1.5315       C41-H47=1.0906       C42-C38=1.5369       C42-C41=1.5315       C42-H43=1.0901       C42-H44=1.0886       
H43-C42=1.0901       H44-C42=1.0886       H45-C38=1.0917       H46-C38=1.0891       H47-C41=1.0906       H48-C24=1.0816       
 C  H  Rav=1.0875 sigma=0.0056  Rmin=1.0731  Rmax=1.0957    26
 C  C  Rav=1.4912 sigma=0.0623  Rmin=1.3247  Rmax=1.5369    17
 O  C  Rav=1.3293 sigma=0.0824  Rmin=1.1986  Rmax=1.4269     4
 Si C  Rav=1.9036 sigma=0.0048  Rmin=1.9000  Rmax=1.9104     3
 Si O  Rav=1.6500 sigma=0.0000  Rmin=1.6500  Rmax=1.6500     1
 
 selected bond angles (degree)
 --------------------
C6-Si1-C2=111.22               C10-Si1-C2=113.14              C10-Si1-C6=110.16              O11-Si1-C2=110.21              
O11-Si1-C6=110.78              O11-Si1-C10=100.92             H3-C2-Si1=112.17               H4-C2-Si1=111.70               
H4-C2-H3=107.57                H5-C2-Si1=109.86               H5-C2-H3=108.05                H5-C2-H4=107.30                
H7-C6-Si1=110.98               H8-C6-Si1=111.28               H8-C6-H7=107.47                H9-C6-Si1=112.19               
H9-C6-H7=107.23                H9-C6-H8=107.46                H12-C10-Si1=110.60             H13-C10-Si1=111.14             
H13-C10-H12=107.72             H14-C10-Si1=111.96             H14-C10-H12=107.51             H14-C10-H13=107.74             
 
 selected dihedral angles (degree)
 ---------------------------------
H3-C2-Si1-C6= 78.30           H3-C2-Si1-C10=313.69          H3-C2-Si1-O11=201.56          H4-C2-Si1-C6=317.44           
H4-C2-Si1-C10=192.83          H4-C2-Si1-O11= 80.70          H5-C2-Si1-C6=198.49           H5-C2-Si1-C10= 73.88          
H5-C2-Si1-O11=321.75          H7-C6-Si1-C2=287.07           H7-C6-Si1-C10= 53.33          H7-C6-Si1-O11=164.13          
H8-C6-Si1-C2=167.44           H8-C6-Si1-C10=293.71          H8-C6-Si1-O11= 44.51          H9-C6-Si1-C2= 47.00           
H9-C6-Si1-C10=173.27          H9-C6-Si1-O11=284.07          H12-C10-Si1-C2= 61.95         H12-C10-Si1-C6=296.77         
H12-C10-Si1-O11=179.66        H13-C10-Si1-C2=302.36         H13-C10-Si1-C6=177.18         H13-C10-Si1-O11= 60.07        
H14-C10-Si1-C2=181.83         H14-C10-Si1-C6= 56.65         H14-C10-Si1-O11=299.53        
           -------------------------------------------------
          |                Final Singlepoint                |
           -------------------------------------------------

          ...................................................
          :                      SETUP                      :
          :.................................................:
          :  # basis functions                 120          :
          :  # atomic orbitals                 119          :
          :  # shells                           71          :
          :  # electrons                       120          :
          :  max. iterations                   100          :
          :  Hamiltonian                  GFN2-xTB          :
          :  restarted?                      false          :
          :  GBSA solvation                  false          :
          :  PC potential                    false          :
          :  electronic temp.          300.0000000     K    :
          :  accuracy                    1.0000000          :
          :  -> integral cutoff          0.2500000E+02      :
          :  -> integral neglect         0.1000000E-07      :
          :  -> SCF convergence          0.1000000E-05 Eh   :
          :  -> wf. convergence          0.1000000E-03 e    :
          :  Broyden damping             0.4000000          :
          ...................................................

 iter      E             dE          RMSdq      gap      omega  full diag
   1    -66.6679994 -0.666680E+02  0.203E-05    3.93       0.0  T
   2    -66.6679994 -0.204636E-11  0.136E-05    3.93    1060.9  T
   3    -66.6679994 -0.923706E-12  0.103E-05    3.93    1406.3  T

   *** convergence criteria satisfied after 3 iterations ***

         #    Occupation            Energy/Eh            Energy/eV
      -------------------------------------------------------------
         1        2.0000           -0.7655206             -20.8309
       ...           ...                  ...                  ...
        54        2.0000           -0.4210232             -11.4566
        55        2.0000           -0.4125889             -11.2271
        56        2.0000           -0.4118888             -11.2081
        57        2.0000           -0.3959840             -10.7753
        58        2.0000           -0.3884399             -10.5700
        59        2.0000           -0.3846450             -10.4667
        60        2.0000           -0.3783613             -10.2957 (HOMO)
        61                         -0.2339728              -6.3667 (LUMO)
        62                         -0.2100862              -5.7167
        63                         -0.1965265              -5.3478
        64                         -0.1294525              -3.5226
        65                         -0.1123422              -3.0570
       ...                                ...                  ...
       119                          0.7608659              20.7042
      -------------------------------------------------------------
                  HL-Gap            0.1443885 Eh            3.9290 eV
             Fermi-level           -0.3061671 Eh           -8.3312 eV

 SCC (total)                   0 d,  0 h,  0 min,  0.037 sec
 SCC setup                      ...        0 min,  0.000 sec (  1.192%)
 Dispersion                     ...        0 min,  0.000 sec (  0.733%)
 classical contributions        ...        0 min,  0.000 sec (  0.201%)
 integral evaluation            ...        0 min,  0.011 sec ( 29.161%)
 iterations                     ...        0 min,  0.005 sec ( 14.598%)
 molecular gradient             ...        0 min,  0.020 sec ( 53.041%)
 printout                       ...        0 min,  0.000 sec (  1.037%)

         :::::::::::::::::::::::::::::::::::::::::::::::::::::
         ::                     SUMMARY                     ::
         :::::::::::::::::::::::::::::::::::::::::::::::::::::
         :: total energy             -65.775199451869 Eh    ::
         :: gradient norm              0.000125445428 Eh/a0 ::
         :: HOMO-LUMO gap              3.929011149968 eV    ::
         ::.................................................::
         :: SCC energy               -66.667999415912 Eh    ::
         :: -> isotropic ES            0.087063505827 Eh    ::
         :: -> anisotropic ES          0.008136069515 Eh    ::
         :: -> anisotropic XC          0.022342906134 Eh    ::
         :: -> dispersion             -0.051629103191 Eh    ::
         :: repulsion energy           0.891289573569 Eh    ::
         :: add. restraining           0.000000000000 Eh    ::
         :: total charge              -0.000000000000 e     ::
         :::::::::::::::::::::::::::::::::::::::::::::::::::::

           -------------------------------------------------
          |                Property Printout                |
           -------------------------------------------------

    * Orbital Energies and Occupations

         #    Occupation            Energy/Eh            Energy/eV
      -------------------------------------------------------------
         1        2.0000           -0.7655206             -20.8309
       ...           ...                  ...                  ...
        48        2.0000           -0.4467629             -12.1570
        49        2.0000           -0.4455679             -12.1245
        50        2.0000           -0.4412805             -12.0079
        51        2.0000           -0.4365217             -11.8784
        52        2.0000           -0.4318120             -11.7502
        53        2.0000           -0.4262323             -11.5984
        54        2.0000           -0.4210232             -11.4566
        55        2.0000           -0.4125889             -11.2271
        56        2.0000           -0.4118888             -11.2081
        57        2.0000           -0.3959840             -10.7753
        58        2.0000           -0.3884399             -10.5700
        59        2.0000           -0.3846450             -10.4667
        60        2.0000           -0.3783613             -10.2957 (HOMO)
        61                         -0.2339728              -6.3667 (LUMO)
        62                         -0.2100862              -5.7167
        63                         -0.1965265              -5.3478
        64                         -0.1294525              -3.5226
        65                         -0.1123422              -3.0570
        66                         -0.0980114              -2.6670
        67                         -0.0771448              -2.0992
        68                          0.0026889               0.0732
        69                          0.0131181               0.3570
        70                          0.0308889               0.8405
        71                          0.0408709               1.1122
       ...                                ...                  ...
       119                          0.7608659              20.7042
      -------------------------------------------------------------
                  HL-Gap            0.1443885 Eh            3.9290 eV
             Fermi-level           -0.3061671 Eh           -8.3312 eV

     #   Z          covCN         q      C6AA      α(0)
     1  14 Si       3.438     0.554   102.419    19.765
     2   6 C        3.650    -0.211    25.050     7.190
     3   1 H        0.925     0.035     2.512     2.479
     4   1 H        0.925     0.036     2.499     2.472
     5   1 H        0.925     0.060     2.196     2.317
     6   6 C        3.648    -0.207    24.991     7.183
     7   1 H        0.925     0.031     2.573     2.508
     8   1 H        0.925     0.037     2.496     2.471
     9   1 H        0.925     0.032     2.553     2.499
    10   6 C        3.650    -0.205    24.929     7.172
    11   8 O        1.625    -0.350    19.921     6.024
    12   1 H        0.925     0.023     2.689     2.565
    13   1 H        0.925     0.040     2.450     2.448
    14   1 H        0.925     0.036     2.509     2.477
    15   6 C        2.861     0.147    24.810     8.164
    16   6 C        2.839    -0.141    31.613     9.214
    17   1 H        0.926     0.048     2.342     2.393
    18   1 H        0.926     0.047     2.354     2.399
    19   6 C        3.937    -0.025    20.954     6.505
    20   6 C        2.769     0.364    20.829     7.475
    21   8 O        1.706    -0.262    18.337     5.782
    22   6 C        3.893    -0.025    20.958     6.508
    23   6 C        2.944    -0.005    28.144     8.701
    24   6 C        2.900    -0.048    29.185     8.858
    25   6 C        3.812    -0.063    21.700     6.631
    26   8 O        0.856    -0.392    21.521     6.220
    27   6 C        3.809    -0.054    21.540     6.606
    28   6 C        3.807    -0.056    21.567     6.611
    29   1 H        0.924     0.064     2.151     2.294
    30   1 H        0.924     0.034     2.529     2.487
    31   6 C        3.807    -0.057    21.597     6.616
    32   1 H        0.924     0.041     2.433     2.439
    33   1 H        0.924     0.038     2.474     2.460
    34   1 H        0.924     0.031     2.569     2.506
    35   1 H        0.924     0.033     2.546     2.495
    36   1 H        0.924     0.030     2.593     2.518
    37   1 H        0.924     0.037     2.486     2.465
    38   6 C        3.819    -0.060    21.634     6.619
    39   6 C        3.950    -0.001    20.537     6.440
    40   1 H        0.926     0.049     2.335     2.389
    41   6 C        3.843     0.108    18.787     6.166
    42   6 C        3.826    -0.069    21.793     6.643
    43   1 H        0.925     0.048     2.340     2.392
    44   1 H        0.925     0.057     2.229     2.335
    45   1 H        0.924     0.047     2.354     2.399
    46   1 H        0.925     0.046     2.373     2.409
    47   1 H        0.924     0.050     2.314     2.379
    48   1 H        0.925     0.025     2.659     2.550

 Mol. C6AA /au·bohr⁶  :      22587.684095
 Mol. C8AA /au·bohr⁸  :     561866.342169
 Mol. α(0) /au        :        230.636342


Wiberg/Mayer (AO) data.
largest (>0.10) Wiberg bond orders for each atom

 ---------------------------------------------------------------------------
     #   Z sym  total        # sym  WBO       # sym  WBO       # sym  WBO
 ---------------------------------------------------------------------------
     1  14 Si   3.792 --    11 O    1.023     2 C    0.900     6 C    0.885
                            10 C    0.882
     2   6 C    3.983 --     3 H    0.991     4 H    0.985     5 H    0.979
                             1 Si   0.900
     3   1 H    0.999 --     2 C    0.991
     4   1 H    0.999 --     2 C    0.985
     5   1 H    0.996 --     2 C    0.979
     6   6 C    3.980 --     7 H    0.993     9 H    0.987     8 H    0.986
                             1 Si   0.885
     7   1 H    0.999 --     6 C    0.993
     8   1 H    0.999 --     6 C    0.986
     9   1 H    0.999 --     6 C    0.987
    10   6 C    3.981 --    12 H    0.997    13 H    0.988    14 H    0.987
                             1 Si   0.882
    11   8 O    2.327 --    15 C    1.057     1 Si   1.023
    12   1 H    0.999 --    10 C    0.997
    13   1 H    0.998 --    10 C    0.988
    14   1 H    0.999 --    10 C    0.987
    15   6 C    3.937 --    16 C    1.844    11 O    1.057    19 C    0.988
    16   6 C    3.978 --    15 C    1.844    18 H    0.975    17 H    0.974
    17   1 H    0.997 --    16 C    0.974
    18   1 H    0.997 --    16 C    0.975
    19   6 C    3.941 --    15 C    0.988    20 C    0.962    22 C    0.911
                            39 C    0.875
    20   6 C    3.920 --    26 O    1.755    21 O    1.116    19 C    0.962
    21   8 O    2.307 --    20 C    1.116    41 C    0.940    26 O    0.158
    22   6 C    3.944 --    38 C    1.002    40 H    0.967    39 C    0.953
                            19 C    0.911
    23   6 C    3.984 --    24 C    1.860    39 C    1.014    25 C    1.006
    24   6 C    3.986 --    23 C    1.860    27 C    1.026    48 H    0.965
    25   6 C    3.996 --    28 C    1.007    23 C    1.006    30 H    0.965
                            29 H    0.951
    26   8 O    2.054 --    20 C    1.755    21 O    0.158
    27   6 C    3.998 --    24 C    1.026    31 C    1.007    33 H    0.967
                            32 H    0.957
    28   6 C    3.998 --    31 C    1.009    25 C    1.007    35 H    0.978
                            34 H    0.978
    29   1 H    0.996 --    25 C    0.951
    30   1 H    0.999 --    25 C    0.965
    31   6 C    3.998 --    28 C    1.009    27 C    1.007    36 H    0.978
                            37 H    0.978
    32   1 H    0.996 --    27 C    0.957
    33   1 H    0.997 --    27 C    0.967
    34   1 H    0.998 --    28 C    0.978
    35   1 H    0.999 --    28 C    0.978
    36   1 H    0.999 --    31 C    0.978
    37   1 H    0.999 --    31 C    0.978
    38   6 C    3.995 --    22 C    1.002    42 C    1.002    46 H    0.979
                            45 H    0.975
    39   6 C    3.937 --    23 C    1.014    41 C    0.956    22 C    0.953
                            19 C    0.875
    40   1 H    0.998 --    22 C    0.967
    41   6 C    3.930 --    42 C    0.985    47 H    0.963    39 C    0.956
                            21 O    0.940
    42   6 C    3.993 --    38 C    1.002    41 C    0.985    43 H    0.977
                            44 H    0.976
    43   1 H    0.998 --    42 C    0.977
    44   1 H    0.995 --    42 C    0.976
    45   1 H    0.997 --    38 C    0.975
    46   1 H    0.998 --    38 C    0.979
    47   1 H    0.997 --    41 C    0.963
    48   1 H    0.999 --    24 C    0.965
 ---------------------------------------------------------------------------

Topologies differ in total number of bonds
Writing topology from bond orders to xtbtopo.mol

molecular dipole:
                 x           y           z       tot (Debye)
 q only:       -1.602      -0.031       0.233
   full:       -1.699       0.005       0.282       4.377
molecular quadrupole (traceless):
                xx          xy          yy          xz          yz          zz
 q only:       -6.669     -10.255       6.651       2.648       2.172       0.018
  q+dip:       -8.943     -10.044       6.449       2.224       0.836       2.494
   full:       -9.170     -10.673       7.289       2.318       2.152       1.880

           -------------------------------------------------
          |                Geometry Summary                 |
           -------------------------------------------------

      molecular mass/u    :      318.4834192
   center of mass at/Å    :        0.0000071      -0.0000048      -0.0000006
  moments of inertia/u·Å² :        0.1566739E+04   0.2015693E+04   0.2840894E+04
rotational constants/cm⁻¹ :        0.1075969E-01   0.8363194E-02   0.5933918E-02

 * 48 selected distances

     #   Z          #   Z                                           value/Å
     1  14 Si       2   6 C                                       1.8999661
     2   6 C        3   1 H                                       1.0850296
     2   6 C        4   1 H                                       1.0866211
     2   6 C        5   1 H                                       1.0869087
     1  14 Si       6   6 C                                       1.9104163 (max)
     6   6 C        7   1 H                                       1.0851616
     6   6 C        8   1 H                                       1.0867133
     6   6 C        9   1 H                                       1.0865108
     1  14 Si      10   6 C                                       1.9004227
     1  14 Si      11   8 O                                       1.6500044
    10   6 C       12   1 H                                       1.0845773
    10   6 C       13   1 H                                       1.0854436
    10   6 C       14   1 H                                       1.0859415
    11   8 O       15   6 C                                       1.3498943
    15   6 C       16   6 C                                       1.3246878
    16   6 C       17   1 H                                       1.0737140
    16   6 C       18   1 H                                       1.0731034 (min)
    15   6 C       19   6 C                                       1.4885880
    20   6 C       21   8 O                                       1.3416487
    19   6 C       22   6 C                                       1.5150681
    23   6 C       24   6 C                                       1.3280507
    20   6 C       26   8 O                                       1.1986418
    25   6 C       28   6 C                                       1.5249772
    25   6 C       29   1 H                                       1.0939305
    25   6 C       30   1 H                                       1.0929101
    27   6 C       31   6 C                                       1.5257278
    28   6 C       31   6 C                                       1.5239569
    27   6 C       32   1 H                                       1.0957192
    27   6 C       33   1 H                                       1.0930246
    28   6 C       34   1 H                                       1.0913917
    28   6 C       35   1 H                                       1.0924985
    31   6 C       36   1 H                                       1.0915522
    31   6 C       37   1 H                                       1.0917357
    22   6 C       38   6 C                                       1.5189613
    19   6 C       39   6 C                                       1.5200871
    22   6 C       39   6 C                                       1.4988143
    23   6 C       39   6 C                                       1.4777818
    22   6 C       40   1 H                                       1.0797858
    21   8 O       41   6 C                                       1.4268621
    39   6 C       41   6 C                                       1.5343220
    38   6 C       42   6 C                                       1.5369193
    41   6 C       42   6 C                                       1.5314981
    42   6 C       43   1 H                                       1.0900842
    42   6 C       44   1 H                                       1.0885506
    38   6 C       45   1 H                                       1.0916916
    38   6 C       46   1 H                                       1.0890916
    41   6 C       47   1 H                                       1.0905816
    24   6 C       48   1 H                                       1.0816042

 * 5 distinct bonds (by element types)

   Z      Z             #   av. dist./Å        max./Å        min./Å
   1 H    6 C          26     1.0874568     1.0957192     1.0731034
   6 C    6 C          14     1.4892457     1.5369193     1.3246878
   6 C    8 O           4     1.3292617     1.4268621     1.1986418
   6 C   14 Si          3     1.9036017     1.9104163     1.8999661
   8 O   14 Si          1     1.6500044     1.6500044     1.6500044


optimized geometry written to: xtbopt.xyz


           -------------------------------------------------
          | TOTAL ENERGY              -65.775199451869 Eh   |
          | GRADIENT NORM               0.000125445428 Eh/α |
          | HOMO-LUMO GAP               3.929011149968 eV   |
           -------------------------------------------------

------------------------------------------------------------------------
 * finished run on 2021/09/05 at 21:28:15.038     
------------------------------------------------------------------------
 total:
 * wall-time:     0 d,  0 h,  0 min,  0.209 sec
 *  cpu-time:     0 d,  0 h,  0 min,  0.393 sec
 * ratio c/w:     1.882 speedup
 SCF:
 * wall-time:     0 d,  0 h,  0 min,  0.057 sec
 *  cpu-time:     0 d,  0 h,  0 min,  0.114 sec
 * ratio c/w:     1.975 speedup
 ANC optimizer:
 * wall-time:     0 d,  0 h,  0 min,  0.111 sec
 *  cpu-time:     0 d,  0 h,  0 min,  0.219 sec
 * ratio c/w:     1.973 speedup

