48
 energy: -65.775199451829 gnorm: 0.000125457681 xtb: 6.4.0 (d4b70c2)
Si        1.98834684000000   -2.41309215000000    0.21535227000000
C         3.69543235000000   -1.78101122000000    0.75959846000000
H         4.50289725000000   -2.38068885000000    0.35256487000000
H         3.79839934000000   -1.78297668000000    1.84132827000000
H         3.83424882000000   -0.75671213000000    0.42357468000000
C         1.46200990000000   -3.94373627000000    1.23013712000000
H         2.03186170000000   -4.81927946000000    0.93642186000000
H         0.41048588000000   -4.17358381000000    1.08042700000000
H         1.61618110000000   -3.80217419000000    2.29629707000000
C         1.89132149000000   -2.79476112000000   -1.64381996000000
O         0.86680812000000   -1.20996670000000    0.34632770000000
H         2.58894130000000   -3.58184835000000   -1.90863747000000
H         2.13977650000000   -1.91997696000000   -2.23645028000000
H         0.89963333000000   -3.12393087000000   -1.93957462000000
C         0.64747820000000   -0.25467491000000    1.27451233000000
C         0.67844561000000   -0.45952529000000    2.58289876000000
H         0.89596959000000   -1.43149493000000    2.98392257000000
H         0.49986584000000    0.33880241000000    3.27740073000000
C         0.38155323000000    1.07116021000000    0.65214629000000
C         1.50576317000000    1.62974401000000   -0.17162692000000
O         1.01329721000000    2.34820914000000   -1.19207106000000
C        -0.61862206000000    2.04563047000000    1.23992887000000
C        -1.94435442000000    0.45108385000000   -0.44526209000000
C        -3.06358594000000    0.34744987000000    0.26205632000000
C        -1.62981325000000   -0.45197861000000   -1.60637436000000
O         2.67908677000000    1.44477315000000   -0.01087980000000
C        -4.12762928000000   -0.66895850000000   -0.00797586000000
C        -2.86952732000000   -1.19486664000000   -2.09297688000000
H        -0.86684630000000   -1.16527550000000   -1.28114674000000
H        -1.19356558000000    0.12975126000000   -2.42229759000000
C        -3.60973273000000   -1.79161386000000   -0.90199685000000
H        -4.97877589000000   -0.17293247000000   -0.48767170000000
H        -4.48864583000000   -1.07494726000000    0.94046650000000
H        -2.57863339000000   -1.97903469000000   -2.79411664000000
H        -3.53187950000000   -0.50209094000000   -2.61729005000000
H        -4.44038836000000   -2.41452173000000   -1.23886943000000
H        -2.92177245000000   -2.41987360000000   -0.33288599000000
C        -0.36001652000000    3.53494699000000    1.09058745000000
C        -0.89131102000000    1.42807887000000   -0.09824717000000
H        -1.14108183000000    1.70238486000000    2.12035809000000
C        -0.40191979000000    2.49570439000000   -1.08557481000000
C        -0.69881963000000    3.82252820000000   -0.38068083000000
H        -1.75805066000000    4.05459367000000   -0.49229951000000
H        -0.10824268000000    4.63432200000000   -0.80157531000000
H         0.68282465000000    3.77740411000000    1.30386513000000
H        -0.98741342000000    4.11237886000000    1.76813161000000
H        -0.81995078000000    2.43168606000000   -2.09082099000000
H        -3.25205595000000    1.02629726000000    1.08273459000000
