48
 energy: -65.810050610315 gnorm: 0.000111403408 xtb: 6.4.0 (d4b70c2)
Si        3.34244924000000    0.95784894000000   -0.14561896000000
C         4.08061852000000    2.55117111000000   -0.90134674000000
H         5.16368490000000    2.49751111000000   -0.93534314000000
H         3.81470722000000    3.42586591000000   -0.31635424000000
H         3.72965158000000    2.72126834000000   -1.91473431000000
C         4.03861792000000    0.79961443000000    1.61628504000000
H         5.12200783000000    0.85926993000000    1.59938070000000
H         3.76021100000000   -0.13824608000000    2.08139221000000
H         3.67486826000000    1.60835731000000    2.24430408000000
C         3.68319478000000   -0.45297575000000   -1.38004527000000
O         2.11110183000000   -1.30397947000000    0.91881010000000
H         4.65865441000000   -0.33487740000000   -1.84126465000000
H         2.94125431000000   -0.45693506000000   -2.17457090000000
H         3.65626332000000   -1.42320451000000   -0.89802948000000
C         0.91160799000000   -1.31078804000000    0.70342539000000
C        -0.03710770000000   -2.43378107000000    1.09809830000000
H         0.05367030000000   -3.23939665000000    0.36721717000000
H         0.22301041000000   -2.84040407000000    2.07468690000000
C         0.12751100000000   -0.28895980000000    0.07457051000000
C         0.53214469000000    0.97316976000000   -0.21903679000000
O         1.74253290000000    1.44742179000000   -0.11091204000000
C        -3.21976026000000    0.74315894000000    0.82645446000000
C        -1.31208654000000   -0.74662344000000   -0.06799836000000
C        -1.42882576000000   -1.79329729000000    1.06036513000000
C        -1.51013580000000   -1.39420321000000   -1.45453114000000
O        -0.30503738000000    1.93901428000000   -0.64520062000000
C        -2.58627459000000   -2.77964175000000    0.91130235000000
C        -2.79107261000000   -2.21629586000000   -1.50998037000000
H        -0.65666747000000   -2.04245315000000   -1.66360065000000
H        -1.52376717000000   -0.61608469000000   -2.21991592000000
C        -2.71195320000000   -3.35099960000000   -0.49639742000000
H        -3.51820419000000   -2.26605386000000    1.15626292000000
H        -2.45561574000000   -3.58859116000000    1.63376832000000
H        -2.92613480000000   -2.61855121000000   -2.51600118000000
H        -3.64701222000000   -1.57731176000000   -1.28100006000000
H        -3.60627828000000   -3.97441694000000   -0.55515687000000
H        -1.85286410000000   -3.98385919000000   -0.72760216000000
C        -3.66011582000000    2.17056938000000    0.69453032000000
C        -2.15818989000000    0.47034112000000    0.08301066000000
H        -3.75167012000000    0.05110047000000    1.45447031000000
C        -1.70727325000000    1.69066522000000   -0.68509095000000
C        -2.47978814000000    2.84374522000000   -0.02297323000000
H        -2.79486504000000    3.59535579000000   -0.74263923000000
H        -1.81560009000000    3.31767315000000    0.69977594000000
H        -3.87267709000000    2.62376901000000    1.66338754000000
H        -4.57213768000000    2.22953473000000    0.09416139000000
H        -1.97679438000000    1.59412563000000   -1.74780344000000
H        -1.56676127000000   -1.24582723000000    2.00006337000000
