      -----------------------------------------------------------      
     |                   =====================                   |     
     |                           x T B                           |     
     |                   =====================                   |     
     |                         S. Grimme                         |     
     |          Mulliken Center for Theoretical Chemistry        |     
     |                    University of Bonn                     |     
      -----------------------------------------------------------      

   * xtb version 6.4.0 (d4b70c2) compiled by 'ehlert@majestix' on 2021-02-01

   xtb is free software: you can redistribute it and/or modify it under
   the terms of the GNU Lesser General Public License as published by
   the Free Software Foundation, either version 3 of the License, or
   (at your option) any later version.
   
   xtb is distributed in the hope that it will be useful,
   but WITHOUT ANY WARRANTY; without even the implied warranty of
   MERCHANTABILITY or FITNESS FOR A PARTICULAR PURPOSE.  See the
   GNU Lesser General Public License for more details.
   
   Cite this work as:
   * C. Bannwarth, E. Caldeweyher, S. Ehlert, A. Hansen, P. Pracht,
     J. Seibert, S. Spicher, S. Grimme, WIREs Comput. Mol. Sci., 2020,
     e01493. DOI: 10.1002/wcms.1493
   
   for GFN2-xTB:
   * C. Bannwarth, S. Ehlert and S. Grimme., J. Chem. Theory Comput., 2019,
     15, 1652-1671. DOI: 10.1021/acs.jctc.8b01176
   for GFN1-xTB:
   * S. Grimme, C. Bannwarth, P. Shushkov, J. Chem. Theory Comput., 2017,
     13, 1989-2009. DOI: 10.1021/acs.jctc.7b00118
   for GFN0-xTB:
   * P. Pracht, E. Caldeweyher, S. Ehlert, S. Grimme, ChemRxiv, 2019, preprint.
     DOI: 10.26434/chemrxiv.8326202.v1
   for GFN-FF:
   * S. Spicher and S. Grimme, Angew. Chem. Int. Ed., 2020, 59, 15665-15673.
     DOI: 10.1002/anie.202004239
   
   for DFT-D4:
   * E. Caldeweyher, C. Bannwarth and S. Grimme, J. Chem. Phys., 2017,
     147, 034112. DOI: 10.1063/1.4993215
   * E. Caldeweyher, S. Ehlert, A. Hansen, H. Neugebauer, S. Spicher,
     C. Bannwarth and S. Grimme, J. Chem. Phys., 2019, 150, 154122.
     DOI: 10.1063/1.5090222
   * E. Caldeweyher, J.-M. Mewes, S. Ehlert and S. Grimme, Phys. Chem. Chem. Phys.
     2020, 22, 8499-8512. DOI: 10.1039/D0CP00502A
   
   for sTDA-xTB:
   * S. Grimme and C. Bannwarth, J. Chem. Phys., 2016, 145, 054103.
     DOI: 10.1063/1.4959605
   
   in the mass-spec context:
   * V. Asgeirsson, C. Bauer and S. Grimme, Chem. Sci., 2017, 8, 4879.
     DOI: 10.1039/c7sc00601b
   * J. Koopman and S. Grimme, ACS Omega 2019, 4, 12, 15120-15133.
     DOI: 10.1021/acsomega.9b02011
   
   for metadynamics refer to:
   * S. Grimme, J. Chem. Theory Comput., 2019, 155, 2847-2862
     DOI: 10.1021/acs.jctc.9b00143
   
   with help from (in alphabetical order)
   P. Atkinson, C. Bannwarth, F. Bohle, G. Brandenburg, E. Caldeweyher
   M. Checinski, S. Dohm, S. Ehlert, S. Ehrlich, I. Gerasimov, J. Koopman
   C. Lavinge, S. Lehtola, F. März, M. Müller, F. Musil, H. Neugebauer
   J. Pisarek, P. Pracht, J. Seibert, P. Shushkov, S. Spicher, M. Stahn
   T. Strunk, J. Stückrath, T. Rose, and J. Unsleber
   
 * started run on 2021/09/05 at 21:28:20.474     

           -------------------------------------------------
          |                Calculation Setup                |
           -------------------------------------------------

          program call               : xtb -c 0 -u 0 -a 1.0 --iterations 100 --opt normal --namespace GJHOZCDQAWFERI-PNPHSEOMSA-N /home/zhao922/bin/Github/YARP/version2.0/CONF_GEN/RCS_paper/IC/opt-folder/GJHOZCDQAWFERI-PNPHSEOMSA-N.xyz
          hostname                   : bell-a001
          calculation namespace      : GJHOZCDQAWFERI-PNPHSEOMSA-N
          coordinate file            : /home/zhao922/bin/Github/YARP/version2.0/CONF_GEN/RCS_paper/IC/opt-folder/GJHOZCDQAWFERI-PNPHSEOMSA-N.xyz
          omp threads                :                     2
          number of atoms            :                    48
          number of electrons        :                   120
          charge                     :                     0
          spin                       :                   0.0
          first test random number   :      0.39464815219170

   ID    Z sym.   atoms
    1   14 Si     1
    2    6 C      2, 6, 10, 15, 16, 19, 20, 22-25, 27, 28, 31, 38, 39, 41, 42
    3    1 H      3-5, 7-9, 12-14, 17, 18, 29, 30, 32-37, 40, 43-48
    4    8 O      11, 21, 26

           -------------------------------------------------
          |                 G F N 2 - x T B                 |
           -------------------------------------------------

        Reference                      10.1021/acs.jctc.8b01176
      * Hamiltonian:
        H0-scaling (s, p, d)           1.850000    2.230000    2.230000
        zeta-weighting                 0.500000
      * Dispersion:
        s8                             2.700000
        a1                             0.520000
        a2                             5.000000
        s9                             5.000000
      * Repulsion:
        kExp                           1.500000    1.000000
        rExp                           1.000000
      * Coulomb:
        alpha                          2.000000
        third order                    shell-resolved
        anisotropic                    true
        a3                             3.000000
        a5                             4.000000
        cn-shift                       1.200000
        cn-exp                         4.000000
        max-rad                        5.000000


          ...................................................
          :                      SETUP                      :
          :.................................................:
          :  # basis functions                 120          :
          :  # atomic orbitals                 119          :
          :  # shells                           71          :
          :  # electrons                       120          :
          :  max. iterations                   100          :
          :  Hamiltonian                  GFN2-xTB          :
          :  restarted?                      false          :
          :  GBSA solvation                  false          :
          :  PC potential                    false          :
          :  electronic temp.          300.0000000     K    :
          :  accuracy                    1.0000000          :
          :  -> integral cutoff          0.2500000E+02      :
          :  -> integral neglect         0.1000000E-07      :
          :  -> SCF convergence          0.1000000E-05 Eh   :
          :  -> wf. convergence          0.1000000E-03 e    :
          :  Broyden damping             0.4000000          :
          ...................................................

 iter      E             dE          RMSdq      gap      omega  full diag
   1    -66.4804016 -0.664804E+02  0.383E+00    3.92       0.0  T
   2    -66.6465233 -0.166122E+00  0.256E+00    3.09       1.0  T
   3    -66.6679865 -0.214632E-01  0.136E+00    3.41       1.0  T
   4    -66.6701683 -0.218179E-02  0.770E-01    3.16       1.0  T
   5    -66.6797527 -0.958436E-02  0.328E-01    3.18       1.0  T
   6    -66.6799773 -0.224676E-03  0.186E-01    3.23       1.0  T
   7    -66.6803810 -0.403626E-03  0.935E-02    3.23       1.0  T
   8    -66.6804722 -0.911893E-04  0.367E-02    3.23       1.0  T
   9    -66.6804879 -0.157584E-04  0.116E-02    3.23       1.2  T
  10    -66.6804905 -0.260618E-05  0.643E-03    3.23       2.2  T
  11    -66.6804909 -0.404000E-06  0.223E-03    3.23       6.5  T
  12    -66.6804910 -0.427402E-07  0.958E-04    3.23      15.1  T
  13    -66.6804910 -0.123801E-07  0.378E-04    3.23      38.2  T

   *** convergence criteria satisfied after 13 iterations ***

         #    Occupation            Energy/Eh            Energy/eV
      -------------------------------------------------------------
         1        2.0000           -0.7639302             -20.7876
       ...           ...                  ...                  ...
        54        2.0000           -0.4208544             -11.4520
        55        2.0000           -0.4147428             -11.2857
        56        2.0000           -0.3956964             -10.7674
        57        2.0000           -0.3884411             -10.5700
        58        2.0000           -0.3804352             -10.3522
        59        2.0000           -0.3736938             -10.1687
        60        2.0000           -0.3698303             -10.0636 (HOMO)
        61                         -0.2510395              -6.8311 (LUMO)
        62                         -0.2145817              -5.8391
        63                         -0.1486737              -4.0456
        64                         -0.1269351              -3.4541
        65                         -0.1082237              -2.9449
       ...                                ...                  ...
       119                          0.7612862              20.7157
      -------------------------------------------------------------
                  HL-Gap            0.1187909 Eh            3.2325 eV
             Fermi-level           -0.3104349 Eh           -8.4474 eV

 SCC (total)                   0 d,  0 h,  0 min,  0.079 sec
 SCC setup                      ...        0 min,  0.000 sec (  0.542%)
 Dispersion                     ...        0 min,  0.001 sec (  0.942%)
 classical contributions        ...        0 min,  0.000 sec (  0.174%)
 integral evaluation            ...        0 min,  0.011 sec ( 14.173%)
 iterations                     ...        0 min,  0.046 sec ( 57.477%)
 molecular gradient             ...        0 min,  0.021 sec ( 26.485%)
 printout                       ...        0 min,  0.000 sec (  0.189%)

         :::::::::::::::::::::::::::::::::::::::::::::::::::::
         ::                     SUMMARY                     ::
         :::::::::::::::::::::::::::::::::::::::::::::::::::::
         :: total energy             -65.810050609898 Eh    ::
         :: gradient norm              0.000111386184 Eh/a0 ::
         :: HOMO-LUMO gap              3.232463697452 eV    ::
         ::.................................................::
         :: SCC energy               -66.680490976001 Eh    ::
         :: -> isotropic ES            0.083780312658 Eh    ::
         :: -> anisotropic ES          0.010064538881 Eh    ::
         :: -> anisotropic XC          0.020341469174 Eh    ::
         :: -> dispersion             -0.053176386830 Eh    ::
         :: repulsion energy           0.869414434884 Eh    ::
         :: add. restraining           0.000000000000 Eh    ::
         :: total charge              -0.000000000000 e     ::
         :::::::::::::::::::::::::::::::::::::::::::::::::::::

      ----------------------------------------------------------- 
     |                   =====================                   |
     |                        A N C O P T                        |
     |                   =====================                   |
     |               Approximate Normal Coordinate               |
     |                Rational Function Optimizer                |
      ----------------------------------------------------------- 

          ...................................................
          :                      SETUP                      :
          :.................................................:
          :   optimization level            normal          :
          :   max. optcycles                   200          :
          :   ANC micro-cycles                  20          :
          :   degrees of freedom               138          :
          :.................................................:
          :   RF solver                   davidson          :
          :   write xtbopt.log                true          :
          :   linear?                        false          :
          :   energy convergence         0.5000000E-05 Eh   :
          :   grad. convergence          0.1000000E-02 Eh/α :
          :   maximium RF displ.         1.0000000          :
          :   Hlow (freq-cutoff)         0.1000000E-01      :
          :   Hmax (freq-cutoff)         5.0000000          :
          :   S6 in model hess.         20.0000000          :
          ...................................................

generating ANC from model Hessian ...
Using Lindh-Hessian (1995)
 Shifting diagonal of input Hessian by   9.699807305839470E-003
 Lowest  eigenvalues of input Hessian
    0.000000    0.000000    0.000000    0.000000    0.000000    0.000000
    0.010000    0.010265    0.010972    0.011691    0.012448    0.012724
    0.012750    0.013278    0.013700    0.014739    0.015411    0.015689
 Highest eigenvalues
    1.532634    1.595029    1.929323    2.078071    2.262743    2.301185
 

........................................................................
.............................. CYCLE    1 ..............................
........................................................................
   1    -66.6804910 -0.666805E+02  0.203E-04    3.23       0.0  T
   2    -66.6804910 -0.108699E-09  0.144E-04    3.23     100.3  T
   3    -66.6804910  0.104876E-09  0.101E-04    3.23     143.4  T
     SCC iter.                  ...        0 min,  0.005 sec
     gradient                   ...        0 min,  0.019 sec
 * total energy  :   -65.8100506 Eh     change       -0.4165344E-09 Eh
   gradient norm :     0.0001114 Eh/α   predicted     0.0000000E+00 (-100.00%)
   displ. norm   :     0.0087860 α      lambda       -0.1695084E-07
   maximum displ.:     0.0086181 α      in ANC's #2, #1, #3, ...

   *** GEOMETRY OPTIMIZATION CONVERGED AFTER 1 ITERATIONS ***

------------------------------------------------------------------------
 total energy gain   :        -0.0000000 Eh       -0.0000 kcal/mol
 total RMSD          :         0.0000000 a0        0.0000 Å
 total power (kW/mol):        -0.0000011 (step)   -0.0000 (real)
------------------------------------------------------------------------

 ANCopt (total)                0 d,  0 h,  0 min,  0.098 sec
 optimizer setup                ...        0 min,  0.000 sec (  0.165%)
 model hessian                  ...        0 min,  0.061 sec ( 61.646%)
 ANC generation                 ...        0 min,  0.001 sec (  1.394%)
 coordinate transformation      ...        0 min,  0.000 sec (  0.012%)
 single point calculation       ...        0 min,  0.036 sec ( 36.265%)
 optimization log               ...        0 min,  0.000 sec (  0.345%)
 hessian update                 ...        0 min,  0.000 sec (  0.001%)
 rational function              ...        0 min,  0.000 sec (  0.091%)

================
 final structure:
================
48
 xtb: 6.4.0 (d4b70c2)
Si        3.34244924000000    0.95784894000000   -0.14561896000000
C         4.08061852000000    2.55117111000000   -0.90134674000000
H         5.16368490000000    2.49751111000000   -0.93534314000000
H         3.81470722000000    3.42586591000000   -0.31635424000000
H         3.72965158000000    2.72126834000000   -1.91473431000000
C         4.03861792000000    0.79961443000000    1.61628504000000
H         5.12200783000000    0.85926993000000    1.59938070000000
H         3.76021100000000   -0.13824608000000    2.08139221000000
H         3.67486826000000    1.60835731000000    2.24430408000000
C         3.68319478000000   -0.45297575000000   -1.38004527000000
O         2.11110183000000   -1.30397947000000    0.91881010000000
H         4.65865441000000   -0.33487740000000   -1.84126465000000
H         2.94125431000000   -0.45693506000000   -2.17457090000000
H         3.65626332000000   -1.42320451000000   -0.89802948000000
C         0.91160799000000   -1.31078804000000    0.70342539000000
C        -0.03710770000000   -2.43378107000000    1.09809830000000
H         0.05367030000000   -3.23939665000000    0.36721717000000
H         0.22301041000000   -2.84040407000000    2.07468690000000
C         0.12751100000000   -0.28895980000000    0.07457051000000
C         0.53214469000000    0.97316976000000   -0.21903679000000
O         1.74253290000000    1.44742179000000   -0.11091204000000
C        -3.21976026000000    0.74315894000000    0.82645446000000
C        -1.31208654000000   -0.74662344000000   -0.06799836000000
C        -1.42882576000000   -1.79329729000000    1.06036513000000
C        -1.51013580000000   -1.39420321000000   -1.45453114000000
O        -0.30503738000000    1.93901428000000   -0.64520062000000
C        -2.58627459000000   -2.77964175000000    0.91130235000000
C        -2.79107261000000   -2.21629586000000   -1.50998037000000
H        -0.65666747000000   -2.04245315000000   -1.66360065000000
H        -1.52376717000000   -0.61608469000000   -2.21991592000000
C        -2.71195320000000   -3.35099960000000   -0.49639742000000
H        -3.51820419000000   -2.26605386000000    1.15626292000000
H        -2.45561574000000   -3.58859116000000    1.63376832000000
H        -2.92613480000000   -2.61855121000000   -2.51600118000000
H        -3.64701222000000   -1.57731176000000   -1.28100006000000
H        -3.60627828000000   -3.97441694000000   -0.55515687000000
H        -1.85286410000000   -3.98385919000000   -0.72760216000000
C        -3.66011582000000    2.17056938000000    0.69453032000000
C        -2.15818989000000    0.47034112000000    0.08301066000000
H        -3.75167012000000    0.05110047000000    1.45447031000000
C        -1.70727325000000    1.69066522000000   -0.68509095000000
C        -2.47978814000000    2.84374522000000   -0.02297323000000
H        -2.79486504000000    3.59535579000000   -0.74263923000000
H        -1.81560009000000    3.31767315000000    0.69977594000000
H        -3.87267709000000    2.62376901000000    1.66338754000000
H        -4.57213768000000    2.22953473000000    0.09416139000000
H        -1.97679438000000    1.59412563000000   -1.74780344000000
H        -1.56676127000000   -1.24582723000000    2.00006337000000
 
 Bond Distances (Angstroems)
 ---------------------------
Si1-C2=1.9117        Si1-C6=1.9011        Si1-C10=1.9053       Si1-O21=1.6735       C2-Si1=1.9117        C2-H3=1.0849         
C2-H4=1.0854         C2-H5=1.0858         H3-C2=1.0849         H4-C2=1.0854         H5-C2=1.0858         C6-Si1=1.9011        
C6-H7=1.0852         C6-H8=1.0832         C6-H9=1.0866         H7-C6=1.0852         H8-C6=1.0832         H9-C6=1.0866         
C10-Si1=1.9053       C10-H12=1.0854       C10-H13=1.0871       C10-H14=1.0837       O11-C15=1.2187       H12-C10=1.0854       
H13-C10=1.0871       H14-C10=1.0837       C15-O11=1.2187       C15-C16=1.5222       C15-C19=1.4333       C16-C15=1.5222       
C16-H17=1.0915       C16-H18=1.0894       C16-C24=1.5325       H17-C16=1.0915       H18-C16=1.0894       C19-C15=1.4333       
C19-C20=1.3575       C19-C23=1.5173       C20-C19=1.3575       C20-O21=1.3045       C20-O26=1.3473       O21-Si1=1.6735       
O21-C20=1.3045       C22-C38=1.4996       C22-C39=1.3244       C22-H40=1.0753       C23-C19=1.5173       C23-C24=1.5435       
C23-C25=1.5431       C23-C39=1.4899       C24-C16=1.5325       C24-C23=1.5435       C24-C27=1.5280       C24-H48=1.0963       
C25-C23=1.5431       C25-C28=1.5231       C25-H29=1.0919       C25-H30=1.0915       O26-C20=1.3473       O26-C41=1.4246       
C27-C24=1.5280       C27-C31=1.5244       C27-H32=1.0919       C27-H33=1.0924       C28-C25=1.5231       C28-C31=1.5235       
C28-H34=1.0918       C28-H35=1.0924       H29-C25=1.0919       H30-C25=1.0915       C31-C27=1.5244       C31-C28=1.5235       
C31-H36=1.0918       C31-H37=1.0918       H32-C27=1.0919       H33-C27=1.0924       H34-C28=1.0918       H35-C28=1.0924       
H36-C31=1.0918       H37-C31=1.0918       C38-C22=1.4996       C38-C42=1.5366       C38-H45=1.0905       C38-H46=1.0935       
C39-C22=1.3244       C39-C23=1.4899       C39-C41=1.5108       H40-C22=1.0753       C41-O26=1.4246       C41-C39=1.5108       
C41-C42=1.5378       C41-H47=1.1006       C42-C38=1.5366       C42-C41=1.5378       C42-H43=1.0872       C42-H44=1.0900       
H43-C42=1.0872       H44-C42=1.0900       H45-C38=1.0905       H46-C38=1.0935       H47-C41=1.1006       H48-C24=1.0963       
 C  H  Rav=1.0891 sigma=0.0049  Rmin=1.0753  Rmax=1.1006    26
 C  C  Rav=1.4969 sigma=0.0625  Rmin=1.3244  Rmax=1.5435    17
 O  C  Rav=1.3238 sigma=0.0744  Rmin=1.2187  Rmax=1.4246     4
 Si C  Rav=1.9060 sigma=0.0044  Rmin=1.9011  Rmax=1.9117     3
 Si O  Rav=1.6735 sigma=0.0000  Rmin=1.6735  Rmax=1.6735     1
 
 selected bond angles (degree)
 --------------------
C6-Si1-C2=107.12               C10-Si1-C2=106.98              C10-Si1-C6=118.25              O21-Si1-C2= 97.67              
O21-Si1-C6=110.81              O21-Si1-C10=113.64             H3-C2-Si1=110.89               H4-C2-Si1=111.35               
H4-C2-H3=107.54                H5-C2-Si1=112.00               H5-C2-H3=107.53                H5-C2-H4=107.31                
H7-C6-Si1=110.28               H8-C6-Si1=112.08               H8-C6-H7=108.11                H9-C6-Si1=110.56               
H9-C6-H7=107.60                H9-C6-H8=108.07                H12-C10-Si1=110.82             H13-C10-Si1=110.74             
H13-C10-H12=107.65             H14-C10-Si1=111.73             H14-C10-H12=107.98             H14-C10-H13=107.75             
 
 selected dihedral angles (degree)
 ---------------------------------
H3-C2-Si1-C6= 60.06           H3-C2-Si1-C10=292.34          H3-C2-Si1-O21=174.68          H4-C2-Si1-C6=300.36           
H4-C2-Si1-C10=172.63          H4-C2-Si1-O21= 54.98          H5-C2-Si1-C6=180.19           H5-C2-Si1-C10= 52.47          
H5-C2-Si1-O21=294.81          H7-C6-Si1-C2=307.00           H7-C6-Si1-C10= 67.82          H7-C6-Si1-O21=201.54          
H8-C6-Si1-C2=186.50           H8-C6-Si1-C10=307.32          H8-C6-Si1-O21= 81.04          H9-C6-Si1-C2= 65.86           
H9-C6-Si1-C10=186.68          H9-C6-Si1-O21=320.41          H12-C10-Si1-C2= 37.48         H12-C10-Si1-C6=276.59         
H12-C10-Si1-O21=144.10        H13-C10-Si1-C2=278.08         H13-C10-Si1-C6=157.19         H13-C10-Si1-O21= 24.70        
H14-C10-Si1-C2=157.96         H14-C10-Si1-C6= 37.07         H14-C10-Si1-O21=264.58        
           -------------------------------------------------
          |                Final Singlepoint                |
           -------------------------------------------------

          ...................................................
          :                      SETUP                      :
          :.................................................:
          :  # basis functions                 120          :
          :  # atomic orbitals                 119          :
          :  # shells                           71          :
          :  # electrons                       120          :
          :  max. iterations                   100          :
          :  Hamiltonian                  GFN2-xTB          :
          :  restarted?                      false          :
          :  GBSA solvation                  false          :
          :  PC potential                    false          :
          :  electronic temp.          300.0000000     K    :
          :  accuracy                    1.0000000          :
          :  -> integral cutoff          0.2500000E+02      :
          :  -> integral neglect         0.1000000E-07      :
          :  -> SCF convergence          0.1000000E-05 Eh   :
          :  -> wf. convergence          0.1000000E-03 e    :
          :  Broyden damping             0.4000000          :
          ...................................................

 iter      E             dE          RMSdq      gap      omega  full diag
   1    -66.6804910 -0.666805E+02  0.354E-05    3.23       0.0  T
   2    -66.6804910 -0.267164E-11  0.272E-05    3.23     529.8  T
   3    -66.6804910 -0.676437E-11  0.207E-05    3.23     696.5  T

   *** convergence criteria satisfied after 3 iterations ***

         #    Occupation            Energy/Eh            Energy/eV
      -------------------------------------------------------------
         1        2.0000           -0.7639328             -20.7877
       ...           ...                  ...                  ...
        54        2.0000           -0.4208549             -11.4520
        55        2.0000           -0.4147442             -11.2858
        56        2.0000           -0.3956976             -10.7675
        57        2.0000           -0.3884437             -10.5701
        58        2.0000           -0.3804377             -10.3522
        59        2.0000           -0.3736962             -10.1688
        60        2.0000           -0.3698339             -10.0637 (HOMO)
        61                         -0.2510427              -6.8312 (LUMO)
        62                         -0.2145832              -5.8391
        63                         -0.1486773              -4.0457
        64                         -0.1269362              -3.4541
        65                         -0.1082246              -2.9449
       ...                                ...                  ...
       119                          0.7612838              20.7156
      -------------------------------------------------------------
                  HL-Gap            0.1187912 Eh            3.2325 eV
             Fermi-level           -0.3104383 Eh           -8.4475 eV

 SCC (total)                   0 d,  0 h,  0 min,  0.036 sec
 SCC setup                      ...        0 min,  0.000 sec (  0.760%)
 Dispersion                     ...        0 min,  0.000 sec (  0.695%)
 classical contributions        ...        0 min,  0.000 sec (  0.211%)
 integral evaluation            ...        0 min,  0.011 sec ( 29.766%)
 iterations                     ...        0 min,  0.005 sec ( 14.439%)
 molecular gradient             ...        0 min,  0.019 sec ( 53.736%)
 printout                       ...        0 min,  0.000 sec (  0.364%)

         :::::::::::::::::::::::::::::::::::::::::::::::::::::
         ::                     SUMMARY                     ::
         :::::::::::::::::::::::::::::::::::::::::::::::::::::
         :: total energy             -65.810050610497 Eh    ::
         :: gradient norm              0.000111764267 Eh/a0 ::
         :: HOMO-LUMO gap              3.232472434788 eV    ::
         ::.................................................::
         :: SCC energy               -66.680490976600 Eh    ::
         :: -> isotropic ES            0.083785934585 Eh    ::
         :: -> anisotropic ES          0.010064028508 Eh    ::
         :: -> anisotropic XC          0.020341402800 Eh    ::
         :: -> dispersion             -0.053176373737 Eh    ::
         :: repulsion energy           0.869414434884 Eh    ::
         :: add. restraining           0.000000000000 Eh    ::
         :: total charge              -0.000000000000 e     ::
         :::::::::::::::::::::::::::::::::::::::::::::::::::::

           -------------------------------------------------
          |                Property Printout                |
           -------------------------------------------------

    * Orbital Energies and Occupations

         #    Occupation            Energy/Eh            Energy/eV
      -------------------------------------------------------------
         1        2.0000           -0.7639328             -20.7877
       ...           ...                  ...                  ...
        48        2.0000           -0.4456593             -12.1270
        49        2.0000           -0.4428068             -12.0494
        50        2.0000           -0.4400402             -11.9741
        51        2.0000           -0.4397400             -11.9659
        52        2.0000           -0.4371154             -11.8945
        53        2.0000           -0.4288416             -11.6694
        54        2.0000           -0.4208549             -11.4520
        55        2.0000           -0.4147442             -11.2858
        56        2.0000           -0.3956976             -10.7675
        57        2.0000           -0.3884437             -10.5701
        58        2.0000           -0.3804377             -10.3522
        59        2.0000           -0.3736962             -10.1688
        60        2.0000           -0.3698339             -10.0637 (HOMO)
        61                         -0.2510427              -6.8312 (LUMO)
        62                         -0.2145832              -5.8391
        63                         -0.1486773              -4.0457
        64                         -0.1269362              -3.4541
        65                         -0.1082246              -2.9449
        66                         -0.0771822              -2.1002
        67                          0.0019303               0.0525
        68                          0.0192337               0.5234
        69                          0.0331421               0.9018
        70                          0.0398150               1.0834
        71                          0.0434077               1.1812
       ...                                ...                  ...
       119                          0.7612838              20.7156
      -------------------------------------------------------------
                  HL-Gap            0.1187912 Eh            3.2325 eV
             Fermi-level           -0.3104383 Eh           -8.4475 eV

     #   Z          covCN         q      C6AA      α(0)
     1  14 Si       3.419     0.568   103.436    19.938
     2   6 C        3.648    -0.212    25.085     7.196
     3   1 H        0.925     0.021     2.712     2.575
     4   1 H        0.925     0.037     2.484     2.465
     5   1 H        0.925     0.036     2.507     2.476
     6   6 C        3.650    -0.204    24.901     7.168
     7   1 H        0.925     0.033     2.549     2.496
     8   1 H        0.925     0.066     2.135     2.285
     9   1 H        0.925     0.042     2.428     2.437
    10   6 C        3.649    -0.202    24.856     7.162
    11   8 O        0.859    -0.410    21.873     6.271
    12   1 H        0.925     0.036     2.507     2.476
    13   1 H        0.925     0.033     2.543     2.494
    14   1 H        0.925     0.057     2.239     2.340
    15   6 C        2.841     0.223    23.316     7.913
    16   6 C        3.835    -0.086    22.119     6.691
    17   1 H        0.924     0.059     2.205     2.322
    18   1 H        0.925     0.052     2.295     2.369
    19   6 C        3.000    -0.120    31.044     9.140
    20   6 C        2.740     0.301    21.892     7.661
    21   8 O        1.625    -0.320    19.380     5.942
    22   6 C        2.941    -0.049    29.219     8.865
    23   6 C        3.935     0.019    20.190     6.385
    24   6 C        3.886    -0.022    20.915     6.502
    25   6 C        3.812    -0.056    21.579     6.612
    26   8 O        1.704    -0.262    18.347     5.783
    27   6 C        3.805    -0.059    21.628     6.621
    28   6 C        3.806    -0.056    21.581     6.613
    29   1 H        0.924     0.039     2.463     2.454
    30   1 H        0.924     0.027     2.632     2.537
    31   6 C        3.805    -0.056    21.580     6.613
    32   1 H        0.924     0.034     2.536     2.490
    33   1 H        0.924     0.035     2.512     2.478
    34   1 H        0.924     0.032     2.561     2.502
    35   1 H        0.924     0.034     2.531     2.488
    36   1 H        0.924     0.031     2.573     2.508
    37   1 H        0.924     0.034     2.529     2.487
    38   6 C        3.841    -0.061    21.645     6.618
    39   6 C        3.003    -0.020    28.490     8.756
    40   1 H        0.926     0.039     2.461     2.453
    41   6 C        3.786     0.111    18.782     6.173
    42   6 C        3.835    -0.069    21.800     6.643
    43   1 H        0.925     0.046     2.374     2.409
    44   1 H        0.925     0.058     2.221     2.331
    45   1 H        0.924     0.047     2.361     2.403
    46   1 H        0.924     0.046     2.370     2.408
    47   1 H        0.923     0.039     2.457     2.451
    48   1 H        0.924     0.032     2.565     2.504

 Mol. C6AA /au·bohr⁶  :      22616.679233
 Mol. C8AA /au·bohr⁸  :     562706.141423
 Mol. α(0) /au        :        230.906507


Wiberg/Mayer (AO) data.
largest (>0.10) Wiberg bond orders for each atom

 ---------------------------------------------------------------------------
     #   Z sym  total        # sym  WBO       # sym  WBO       # sym  WBO
 ---------------------------------------------------------------------------
     1  14 Si   3.752 --    21 O    0.905     6 C    0.894    10 C    0.891
                             2 C    0.879
     2   6 C    3.978 --     3 H    0.997     4 H    0.988     5 H    0.987
                             1 Si   0.879
     3   1 H    0.999 --     2 C    0.997
     4   1 H    0.999 --     2 C    0.988
     5   1 H    0.999 --     2 C    0.987
     6   6 C    3.986 --     7 H    0.993     9 H    0.983     8 H    0.982
                             1 Si   0.894
     7   1 H    0.999 --     6 C    0.993
     8   1 H    0.996 --     6 C    0.982
     9   1 H    0.998 --     6 C    0.983
    10   6 C    3.986 --    12 H    0.992    13 H    0.985    14 H    0.985
                             1 Si   0.891
    11   8 O    2.073 --    15 C    1.703
    12   1 H    0.999 --    10 C    0.992
    13   1 H    0.999 --    10 C    0.985
    14   1 H    0.997 --    10 C    0.985
    15   6 C    3.942 --    11 O    1.703    19 C    1.153    16 C    0.972
    16   6 C    3.996 --    24 C    0.995    15 C    0.972    18 H    0.968
                            17 H    0.949
    17   1 H    0.996 --    16 C    0.949
    18   1 H    0.996 --    16 C    0.968
    19   6 C    3.947 --    20 C    1.489    15 C    1.153    23 C    0.963
    20   6 C    3.910 --    19 C    1.489    21 O    1.168    26 O    1.092
    21   8 O    2.363 --    20 C    1.168     1 Si   0.905
    22   6 C    3.986 --    39 C    1.876    38 C    1.022    40 H    0.966
    23   6 C    3.990 --    39 C    1.002    24 C    0.963    19 C    0.963
                            25 C    0.957
    24   6 C    3.993 --    27 C    0.999    16 C    0.995    48 H    0.968
                            23 C    0.963
    25   6 C    3.995 --    28 C    1.008    30 H    0.974    29 H    0.974
                            23 C    0.957
    26   8 O    2.281 --    20 C    1.092    41 C    0.935
    27   6 C    3.997 --    31 C    1.009    24 C    0.999    33 H    0.975
                            32 H    0.974
    28   6 C    3.997 --    31 C    1.009    25 C    1.008    35 H    0.976
                            34 H    0.976
    29   1 H    0.998 --    25 C    0.974
    30   1 H    0.999 --    25 C    0.974
    31   6 C    3.998 --    28 C    1.009    27 C    1.009    36 H    0.977
                            37 H    0.975
    32   1 H    0.999 --    27 C    0.974
    33   1 H    0.998 --    27 C    0.975
    34   1 H    0.998 --    28 C    0.976
    35   1 H    0.999 --    28 C    0.976
    36   1 H    0.999 --    31 C    0.977
    37   1 H    0.999 --    31 C    0.975
    38   6 C    3.996 --    22 C    1.022    42 C    1.001    45 H    0.970
                            46 H    0.961
    39   6 C    3.983 --    22 C    1.876    23 C    1.002    41 C    0.983
    40   1 H    0.998 --    22 C    0.966
    41   6 C    3.928 --    42 C    0.984    39 C    0.983    47 H    0.946
                            26 O    0.935
    42   6 C    3.991 --    38 C    1.001    41 C    0.984    43 H    0.981
                            44 H    0.977
    43   1 H    0.998 --    42 C    0.981
    44   1 H    0.997 --    42 C    0.977
    45   1 H    0.997 --    38 C    0.970
    46   1 H    0.997 --    38 C    0.961
    47   1 H    0.997 --    41 C    0.946
    48   1 H    0.999 --    24 C    0.968
 ---------------------------------------------------------------------------

Topologies differ in total number of bonds
Writing topology from bond orders to xtbtopo.mol

molecular dipole:
                 x           y           z       tot (Debye)
 q only:       -1.295      -0.074      -0.190
   full:       -1.594      -0.124      -0.252       4.113
molecular quadrupole (traceless):
                xx          xy          yy          xz          yz          zz
 q only:        4.584       0.117      -1.564      -2.163       2.201      -3.020
  q+dip:       -1.526      -1.273       0.335      -3.088       2.150       1.191
   full:        0.212      -0.576      -1.063      -2.800       2.863       0.851

           -------------------------------------------------
          |                Geometry Summary                 |
           -------------------------------------------------

      molecular mass/u    :      318.4834192
   center of mass at/Å    :        0.0000097       0.0000030      -0.0000006
  moments of inertia/u·Å² :        0.1207604E+04   0.2447427E+04   0.3124206E+04
rotational constants/cm⁻¹ :        0.1395957E-01   0.6887900E-02   0.5395814E-02

 * 46 selected distances

     #   Z          #   Z                                           value/Å
     1  14 Si       2   6 C                                       1.9117254 (max)
     2   6 C        3   1 H                                       1.0849276
     2   6 C        4   1 H                                       1.0853645
     2   6 C        5   1 H                                       1.0858477
     1  14 Si       6   6 C                                       1.9010509
     6   6 C        7   1 H                                       1.0851628
     6   6 C        8   1 H                                       1.0832439
     6   6 C        9   1 H                                       1.0866401
     1  14 Si      10   6 C                                       1.9053457
    10   6 C       12   1 H                                       1.0854455
    10   6 C       13   1 H                                       1.0870889
    10   6 C       14   1 H                                       1.0837012
    11   8 O       15   6 C                                       1.2186970
    16   6 C       17   1 H                                       1.0915330
    16   6 C       18   1 H                                       1.0893709
    15   6 C       19   6 C                                       1.4333177
    19   6 C       20   6 C                                       1.3575363
     1  14 Si      21   8 O                                       1.6735048
    20   6 C       21   8 O                                       1.3044714
    16   6 C       24   6 C                                       1.5324890
    23   6 C       24   6 C                                       1.5434890
    20   6 C       26   8 O                                       1.3473474
    24   6 C       27   6 C                                       1.5279996
    25   6 C       28   6 C                                       1.5230594
    25   6 C       29   1 H                                       1.0919461
    25   6 C       30   1 H                                       1.0915439
    27   6 C       31   6 C                                       1.5244224
    28   6 C       31   6 C                                       1.5235363
    27   6 C       32   1 H                                       1.0919116
    27   6 C       33   1 H                                       1.0924413
    28   6 C       34   1 H                                       1.0918466
    28   6 C       35   1 H                                       1.0924126
    31   6 C       36   1 H                                       1.0917505
    31   6 C       37   1 H                                       1.0917880
    22   6 C       39   6 C                                       1.3244130
    23   6 C       39   6 C                                       1.4898649
    22   6 C       40   1 H                                       1.0753032 (min)
    26   8 O       41   6 C                                       1.4246171
    38   6 C       42   6 C                                       1.5366036
    41   6 C       42   6 C                                       1.5377817
    42   6 C       43   1 H                                       1.0872493
    42   6 C       44   1 H                                       1.0900091
    38   6 C       45   1 H                                       1.0905304
    38   6 C       46   1 H                                       1.0934823
    41   6 C       47   1 H                                       1.1005995
    24   6 C       48   1 H                                       1.0962584

 * 5 distinct bonds (by element types)

   Z      Z             #   av. dist./Å        max./Å        min./Å
   1 H    6 C          26     1.0891307     1.1005995     1.0753032
   6 C    6 C          12     1.4878761     1.5434890     1.3244130
   6 C    8 O           4     1.3237832     1.4246171     1.2186970
   6 C   14 Si          3     1.9060407     1.9117254     1.9010509
   8 O   14 Si          1     1.6735048     1.6735048     1.6735048


optimized geometry written to: xtbopt.xyz


           -------------------------------------------------
          | TOTAL ENERGY              -65.810050610497 Eh   |
          | GRADIENT NORM               0.000111764267 Eh/α |
          | HOMO-LUMO GAP               3.232472434788 eV   |
           -------------------------------------------------

------------------------------------------------------------------------
 * finished run on 2021/09/05 at 21:28:20.720     
------------------------------------------------------------------------
 total:
 * wall-time:     0 d,  0 h,  0 min,  0.246 sec
 *  cpu-time:     0 d,  0 h,  0 min,  0.417 sec
 * ratio c/w:     1.694 speedup
 SCF:
 * wall-time:     0 d,  0 h,  0 min,  0.080 sec
 *  cpu-time:     0 d,  0 h,  0 min,  0.119 sec
 * ratio c/w:     1.498 speedup
 ANC optimizer:
 * wall-time:     0 d,  0 h,  0 min,  0.136 sec
 *  cpu-time:     0 d,  0 h,  0 min,  0.247 sec
 * ratio c/w:     1.821 speedup

