      -----------------------------------------------------------      
     |                   =====================                   |     
     |                           x T B                           |     
     |                   =====================                   |     
     |                         S. Grimme                         |     
     |          Mulliken Center for Theoretical Chemistry        |     
     |                    University of Bonn                     |     
      -----------------------------------------------------------      

   * xtb version 6.4.0 (d4b70c2) compiled by 'ehlert@majestix' on 2021-02-01

   xtb is free software: you can redistribute it and/or modify it under
   the terms of the GNU Lesser General Public License as published by
   the Free Software Foundation, either version 3 of the License, or
   (at your option) any later version.
   
   xtb is distributed in the hope that it will be useful,
   but WITHOUT ANY WARRANTY; without even the implied warranty of
   MERCHANTABILITY or FITNESS FOR A PARTICULAR PURPOSE.  See the
   GNU Lesser General Public License for more details.
   
   Cite this work as:
   * C. Bannwarth, E. Caldeweyher, S. Ehlert, A. Hansen, P. Pracht,
     J. Seibert, S. Spicher, S. Grimme, WIREs Comput. Mol. Sci., 2020,
     e01493. DOI: 10.1002/wcms.1493
   
   for GFN2-xTB:
   * C. Bannwarth, S. Ehlert and S. Grimme., J. Chem. Theory Comput., 2019,
     15, 1652-1671. DOI: 10.1021/acs.jctc.8b01176
   for GFN1-xTB:
   * S. Grimme, C. Bannwarth, P. Shushkov, J. Chem. Theory Comput., 2017,
     13, 1989-2009. DOI: 10.1021/acs.jctc.7b00118
   for GFN0-xTB:
   * P. Pracht, E. Caldeweyher, S. Ehlert, S. Grimme, ChemRxiv, 2019, preprint.
     DOI: 10.26434/chemrxiv.8326202.v1
   for GFN-FF:
   * S. Spicher and S. Grimme, Angew. Chem. Int. Ed., 2020, 59, 15665-15673.
     DOI: 10.1002/anie.202004239
   
   for DFT-D4:
   * E. Caldeweyher, C. Bannwarth and S. Grimme, J. Chem. Phys., 2017,
     147, 034112. DOI: 10.1063/1.4993215
   * E. Caldeweyher, S. Ehlert, A. Hansen, H. Neugebauer, S. Spicher,
     C. Bannwarth and S. Grimme, J. Chem. Phys., 2019, 150, 154122.
     DOI: 10.1063/1.5090222
   * E. Caldeweyher, J.-M. Mewes, S. Ehlert and S. Grimme, Phys. Chem. Chem. Phys.
     2020, 22, 8499-8512. DOI: 10.1039/D0CP00502A
   
   for sTDA-xTB:
   * S. Grimme and C. Bannwarth, J. Chem. Phys., 2016, 145, 054103.
     DOI: 10.1063/1.4959605
   
   in the mass-spec context:
   * V. Asgeirsson, C. Bauer and S. Grimme, Chem. Sci., 2017, 8, 4879.
     DOI: 10.1039/c7sc00601b
   * J. Koopman and S. Grimme, ACS Omega 2019, 4, 12, 15120-15133.
     DOI: 10.1021/acsomega.9b02011
   
   for metadynamics refer to:
   * S. Grimme, J. Chem. Theory Comput., 2019, 155, 2847-2862
     DOI: 10.1021/acs.jctc.9b00143
   
   with help from (in alphabetical order)
   P. Atkinson, C. Bannwarth, F. Bohle, G. Brandenburg, E. Caldeweyher
   M. Checinski, S. Dohm, S. Ehlert, S. Ehrlich, I. Gerasimov, J. Koopman
   C. Lavinge, S. Lehtola, F. März, M. Müller, F. Musil, H. Neugebauer
   J. Pisarek, P. Pracht, J. Seibert, P. Shushkov, S. Spicher, M. Stahn
   T. Strunk, J. Stückrath, T. Rose, and J. Unsleber
   
 * started run on 2021/09/05 at 21:28:16.456     

           -------------------------------------------------
          |                Calculation Setup                |
           -------------------------------------------------

          program call               : xtb -c 0 -u 0 -a 1.0 --iterations 100 --opt normal --namespace QZGFHLHPPYCBHI-CORIIIEPSA-N /home/zhao922/bin/Github/YARP/version2.0/CONF_GEN/RCS_paper/IC/opt-folder/QZGFHLHPPYCBHI-CORIIIEPSA-N.xyz
          hostname                   : bell-a001
          calculation namespace      : QZGFHLHPPYCBHI-CORIIIEPSA-N
          coordinate file            : /home/zhao922/bin/Github/YARP/version2.0/CONF_GEN/RCS_paper/IC/opt-folder/QZGFHLHPPYCBHI-CORIIIEPSA-N.xyz
          omp threads                :                     2
          number of atoms            :                    48
          number of electrons        :                   120
          charge                     :                     0
          spin                       :                   0.0
          first test random number   :      0.40203799781074

   ID    Z sym.   atoms
    1   14 Si     1
    2    6 C      2, 6, 10, 15, 16, 19, 20, 22-25, 27, 28, 31, 38, 39, 41, 42
    3    1 H      3-5, 7-9, 12-14, 17, 18, 29, 30, 32-37, 40, 43-48
    4    8 O      11, 21, 26

           -------------------------------------------------
          |                 G F N 2 - x T B                 |
           -------------------------------------------------

        Reference                      10.1021/acs.jctc.8b01176
      * Hamiltonian:
        H0-scaling (s, p, d)           1.850000    2.230000    2.230000
        zeta-weighting                 0.500000
      * Dispersion:
        s8                             2.700000
        a1                             0.520000
        a2                             5.000000
        s9                             5.000000
      * Repulsion:
        kExp                           1.500000    1.000000
        rExp                           1.000000
      * Coulomb:
        alpha                          2.000000
        third order                    shell-resolved
        anisotropic                    true
        a3                             3.000000
        a5                             4.000000
        cn-shift                       1.200000
        cn-exp                         4.000000
        max-rad                        5.000000


          ...................................................
          :                      SETUP                      :
          :.................................................:
          :  # basis functions                 120          :
          :  # atomic orbitals                 119          :
          :  # shells                           71          :
          :  # electrons                       120          :
          :  max. iterations                   100          :
          :  Hamiltonian                  GFN2-xTB          :
          :  restarted?                      false          :
          :  GBSA solvation                  false          :
          :  PC potential                    false          :
          :  electronic temp.          300.0000000     K    :
          :  accuracy                    1.0000000          :
          :  -> integral cutoff          0.2500000E+02      :
          :  -> integral neglect         0.1000000E-07      :
          :  -> SCF convergence          0.1000000E-05 Eh   :
          :  -> wf. convergence          0.1000000E-03 e    :
          :  Broyden damping             0.4000000          :
          ...................................................

 iter      E             dE          RMSdq      gap      omega  full diag
   1    -66.2987939 -0.662988E+02  0.379E+00    3.21       0.0  T
   2    -66.4592215 -0.160428E+00  0.231E+00    2.76       1.0  T
   3    -66.4772107 -0.179892E-01  0.137E+00    3.08       1.0  T
   4    -66.4993699 -0.221592E-01  0.682E-01    2.78       1.0  T
   5    -66.5102156 -0.108457E-01  0.260E-01    2.81       1.0  T
   6    -66.5111782 -0.962558E-03  0.143E-01    2.83       1.0  T
   7    -66.5112476 -0.693982E-04  0.826E-02    2.85       1.0  T
   8    -66.5113532 -0.105620E-03  0.441E-02    2.84       1.0  T
   9    -66.5113693 -0.160759E-04  0.204E-02    2.84       1.0  T
  10    -66.5113768 -0.750429E-05  0.818E-03    2.84       1.8  T
  11    -66.5113773 -0.517341E-06  0.377E-03    2.84       3.8  T
  12    -66.5113774 -0.108030E-06  0.160E-03    2.84       9.0  T
  13    -66.5113774 -0.177831E-07  0.690E-04    2.84      20.9  T
  14    -66.5113774 -0.523670E-09  0.369E-04    2.84      39.1  T

   *** convergence criteria satisfied after 14 iterations ***

         #    Occupation            Energy/Eh            Energy/eV
      -------------------------------------------------------------
         1        2.0000           -0.7741783             -21.0665
       ...           ...                  ...                  ...
        54        2.0000           -0.4199984             -11.4287
        55        2.0000           -0.4157671             -11.3136
        56        2.0000           -0.3975839             -10.8188
        57        2.0000           -0.3940145             -10.7217
        58        2.0000           -0.3911183             -10.6429
        59        2.0000           -0.3765910             -10.2476
        60        2.0000           -0.3533564              -9.6153 (HOMO)
        61                         -0.2489173              -6.7734 (LUMO)
        62                         -0.2262729              -6.1572
        63                         -0.1902352              -5.1766
        64                         -0.1306307              -3.5546
        65                         -0.1054111              -2.8684
       ...                                ...                  ...
       119                          0.6736272              18.3303
      -------------------------------------------------------------
                  HL-Gap            0.1044391 Eh            2.8419 eV
             Fermi-level           -0.3011368 Eh           -8.1944 eV

 SCC (total)                   0 d,  0 h,  0 min,  0.085 sec
 SCC setup                      ...        0 min,  0.000 sec (  0.529%)
 Dispersion                     ...        0 min,  0.001 sec (  0.858%)
 classical contributions        ...        0 min,  0.000 sec (  0.170%)
 integral evaluation            ...        0 min,  0.011 sec ( 13.200%)
 iterations                     ...        0 min,  0.050 sec ( 59.243%)
 molecular gradient             ...        0 min,  0.022 sec ( 25.801%)
 printout                       ...        0 min,  0.000 sec (  0.180%)

         :::::::::::::::::::::::::::::::::::::::::::::::::::::
         ::                     SUMMARY                     ::
         :::::::::::::::::::::::::::::::::::::::::::::::::::::
         :: total energy             -65.737341380407 Eh    ::
         :: gradient norm              0.130970483453 Eh/a0 ::
         :: HOMO-LUMO gap              2.841931396923 eV    ::
         ::.................................................::
         :: SCC energy               -66.511377408900 Eh    ::
         :: -> isotropic ES            0.085679708333 Eh    ::
         :: -> anisotropic ES          0.010742281687 Eh    ::
         :: -> anisotropic XC          0.023542841782 Eh    ::
         :: -> dispersion             -0.052397146049 Eh    ::
         :: repulsion energy           0.772649952026 Eh    ::
         :: add. restraining           0.000000000000 Eh    ::
         :: total charge               0.000000000000 e     ::
         :::::::::::::::::::::::::::::::::::::::::::::::::::::

      ----------------------------------------------------------- 
     |                   =====================                   |
     |                        A N C O P T                        |
     |                   =====================                   |
     |               Approximate Normal Coordinate               |
     |                Rational Function Optimizer                |
      ----------------------------------------------------------- 

          ...................................................
          :                      SETUP                      :
          :.................................................:
          :   optimization level            normal          :
          :   max. optcycles                   200          :
          :   ANC micro-cycles                  20          :
          :   degrees of freedom               138          :
          :.................................................:
          :   RF solver                   davidson          :
          :   write xtbopt.log                true          :
          :   linear?                        false          :
          :   energy convergence         0.5000000E-05 Eh   :
          :   grad. convergence          0.1000000E-02 Eh/α :
          :   maximium RF displ.         1.0000000          :
          :   Hlow (freq-cutoff)         0.1000000E-01      :
          :   Hmax (freq-cutoff)         5.0000000          :
          :   S6 in model hess.         20.0000000          :
          ...................................................

generating ANC from model Hessian ...
Using Lindh-Hessian (1995)
 Shifting diagonal of input Hessian by   9.807185877860796E-003
 Lowest  eigenvalues of input Hessian
    0.000000    0.000000    0.000000    0.000000    0.000000    0.000000
    0.010000    0.010115    0.010903    0.011753    0.011888    0.013314
    0.013621    0.014089    0.014733    0.015594    0.015659    0.015768
 Highest eigenvalues
    1.408860    1.466035    1.800755    1.883432    1.985932    2.087192
 

........................................................................
.............................. CYCLE    1 ..............................
........................................................................
   1    -66.5113774 -0.665114E+02  0.136E-04    2.84       0.0  T
   2    -66.5113774 -0.873825E-10  0.888E-05    2.84     162.5  T
   3    -66.5113774  0.188010E-10  0.719E-05    2.84     200.8  T
     SCC iter.                  ...        0 min,  0.005 sec
     gradient                   ...        0 min,  0.020 sec
 * total energy  :   -65.7373414 Eh     change       -0.1446580E-08 Eh
   gradient norm :     0.1309706 Eh/α   predicted     0.0000000E+00 (-100.00%)
   displ. norm   :     0.4189393 α      lambda       -0.3497845E-01
   maximum displ.:     0.1304934 α      in ANC's #81, #79, #29, ...

........................................................................
.............................. CYCLE    2 ..............................
........................................................................
   1    -66.5926695 -0.665927E+02  0.300E-01    2.97       0.0  T
   2    -66.5928517 -0.182200E-03  0.210E-01    2.93       1.0  T
   3    -66.5930013 -0.149614E-03  0.137E-01    2.95       1.0  T
   4    -66.5933379 -0.336608E-03  0.322E-02    2.95       1.0  T
   5    -66.5933562 -0.182817E-04  0.184E-02    2.94       1.0  T
   6    -66.5933581 -0.193163E-05  0.119E-02    2.94       1.2  T
   7    -66.5933586 -0.433119E-06  0.664E-03    2.94       2.2  T
   8    -66.5933594 -0.820502E-06  0.216E-03    2.94       6.7  T
   9    -66.5933594 -0.145963E-07  0.117E-03    2.94      12.4  T
  10    -66.5933594 -0.111276E-07  0.483E-04    2.94      29.9  T
  11    -66.5933594 -0.101117E-08  0.229E-04    2.94      63.1  T
     SCC iter.                  ...        0 min,  0.018 sec
     gradient                   ...        0 min,  0.020 sec
 * total energy  :   -65.7608025 Eh     change       -0.2346114E-01 Eh
   gradient norm :     0.0518699 Eh/α   predicted    -0.2056315E-01 ( -12.35%)
   displ. norm   :     0.3609755 α      lambda       -0.9346996E-02
   maximum displ.:     0.1428869 α      in ANC's #14, #7, #21, ...

........................................................................
.............................. CYCLE    3 ..............................
........................................................................
   1    -66.6301150 -0.666301E+02  0.201E-01    3.05       0.0  T
   2    -66.6302063 -0.913176E-04  0.154E-01    3.00       1.0  T
   3    -66.6303325 -0.126179E-03  0.993E-02    3.02       1.0  T
   4    -66.6304276 -0.951311E-04  0.292E-02    3.02       1.0  T
   5    -66.6304357 -0.802065E-05  0.165E-02    3.02       1.0  T
   6    -66.6304374 -0.176036E-05  0.938E-03    3.02       1.5  T
   7    -66.6304379 -0.528436E-06  0.396E-03    3.02       3.6  T
   8    -66.6304383 -0.380821E-06  0.150E-03    3.02       9.6  T
   9    -66.6304383  0.964917E-11  0.923E-04    3.02      15.6  T
  10    -66.6304383 -0.137618E-07  0.343E-04    3.02      42.1  T
     SCC iter.                  ...        0 min,  0.017 sec
     gradient                   ...        0 min,  0.020 sec
 * total energy  :   -65.7664249 Eh     change       -0.5622347E-02 Eh
   gradient norm :     0.0165057 Eh/α   predicted    -0.5282468E-02 (  -6.05%)
   displ. norm   :     0.3077978 α      lambda       -0.2044005E-02
   maximum displ.:     0.1858780 α      in ANC's #14, #7, #17, ...

........................................................................
.............................. CYCLE    4 ..............................
........................................................................
   1    -66.6306799 -0.666307E+02  0.115E-01    3.04       0.0  T
   2    -66.6306933 -0.133880E-04  0.835E-02    3.03       1.0  T
   3    -66.6306629  0.303371E-04  0.571E-02    3.04       1.0  T
   4    -66.6307279 -0.650079E-04  0.146E-02    3.04       1.0  T
   5    -66.6307286 -0.688089E-06  0.773E-03    3.04       1.9  T
   6    -66.6307296 -0.999884E-06  0.386E-03    3.04       3.7  T
   7    -66.6307298 -0.163452E-06  0.162E-03    3.04       8.9  T
   8    -66.6307298 -0.489120E-07  0.761E-04    3.04      19.0  T
   9    -66.6307298 -0.575810E-09  0.490E-04    3.04      29.5  T
     SCC iter.                  ...        0 min,  0.015 sec
     gradient                   ...        0 min,  0.019 sec
 * total energy  :   -65.7678560 Eh     change       -0.1431101E-02 Eh
   gradient norm :     0.0100658 Eh/α   predicted    -0.1118998E-02 ( -21.81%)
   displ. norm   :     0.3630198 α      lambda       -0.1280348E-02
   maximum displ.:     0.2276092 α      in ANC's #14, #7, #17, ...

........................................................................
.............................. CYCLE    5 ..............................
........................................................................
   1    -66.6284058 -0.666284E+02  0.976E-02    3.06       0.0  T
   2    -66.6284138 -0.805967E-05  0.668E-02    3.05       1.0  T
   3    -66.6283694  0.444004E-04  0.444E-02    3.06       1.0  T
   4    -66.6284257 -0.562983E-04  0.113E-02    3.06       1.3  T
   5    -66.6284263 -0.592687E-06  0.580E-03    3.06       2.5  T
   6    -66.6284268 -0.451934E-06  0.273E-03    3.06       5.3  T
   7    -66.6284269 -0.122582E-06  0.111E-03    3.06      13.0  T
   8    -66.6284269 -0.187239E-07  0.435E-04    3.06      33.2  T
   9    -66.6284269 -0.129985E-08  0.328E-04    3.06      44.0  T
     SCC iter.                  ...        0 min,  0.015 sec
     gradient                   ...        0 min,  0.019 sec
 * total energy  :   -65.7687181 Eh     change       -0.8621585E-03 Eh
   gradient norm :     0.0066601 Eh/α   predicted    -0.7245452E-03 ( -15.96%)
   displ. norm   :     0.2939378 α      lambda       -0.5847308E-03
   maximum displ.:     0.1756165 α      in ANC's #7, #14, #17, ...

........................................................................
.............................. CYCLE    6 ..............................
........................................................................
   1    -66.6273525 -0.666274E+02  0.641E-02    3.06       0.0  T
   2    -66.6273542 -0.171450E-05  0.417E-02    3.06       1.0  T
   3    -66.6273413  0.129260E-04  0.198E-02    3.06       1.0  T
   4    -66.6273555 -0.141504E-04  0.639E-03    3.06       2.3  T
   5    -66.6273557 -0.188770E-06  0.328E-03    3.06       4.4  T
   6    -66.6273557 -0.732584E-07  0.157E-03    3.06       9.2  T
   7    -66.6273558 -0.444156E-07  0.695E-04    3.06      20.8  T
   8    -66.6273558 -0.589310E-08  0.382E-04    3.06      37.8  T
     SCC iter.                  ...        0 min,  0.013 sec
     gradient                   ...        0 min,  0.019 sec
 * total energy  :   -65.7691219 Eh     change       -0.4037504E-03 Eh
   gradient norm :     0.0074749 Eh/α   predicted    -0.3176264E-03 ( -21.33%)
   displ. norm   :     0.2309050 α      lambda       -0.3256825E-03
   maximum displ.:     0.1576642 α      in ANC's #7, #14, #1, ...

........................................................................
.............................. CYCLE    7 ..............................
........................................................................
   1    -66.6287836 -0.666288E+02  0.476E-02    3.06       0.0  T
   2    -66.6287847 -0.110317E-05  0.306E-02    3.05       1.0  T
   3    -66.6287834  0.125799E-05  0.790E-03    3.06       1.8  T
   4    -66.6287848 -0.137396E-05  0.423E-03    3.06       3.4  T
   5    -66.6287849 -0.109107E-06  0.276E-03    3.05       5.2  T
   6    -66.6287850 -0.661509E-07  0.808E-04    3.05      17.9  T
   7    -66.6287850 -0.133923E-07  0.488E-04    3.05      29.6  T
     SCC iter.                  ...        0 min,  0.012 sec
     gradient                   ...        0 min,  0.020 sec
 * total energy  :   -65.7693438 Eh     change       -0.2219371E-03 Eh
   gradient norm :     0.0055808 Eh/α   predicted    -0.1715253E-03 ( -22.71%)
   displ. norm   :     0.1515626 α      lambda       -0.1481154E-03
   maximum displ.:     0.1039716 α      in ANC's #7, #1, #4, ...

........................................................................
.............................. CYCLE    8 ..............................
........................................................................
   1    -66.6303528 -0.666304E+02  0.243E-02    3.05       0.0  T
   2    -66.6303532 -0.378091E-06  0.151E-02    3.05       1.0  T
   3    -66.6303527  0.439065E-06  0.415E-03    3.05       3.5  T
   4    -66.6303532 -0.489243E-06  0.200E-03    3.05       7.2  T
   5    -66.6303533 -0.435892E-07  0.121E-03    3.05      11.9  T
   6    -66.6303533 -0.372492E-08  0.692E-04    3.05      20.9  T
   7    -66.6303533 -0.561901E-08  0.295E-04    3.05      48.9  T
     SCC iter.                  ...        0 min,  0.012 sec
     gradient                   ...        0 min,  0.019 sec
 * total energy  :   -65.7694473 Eh     change       -0.1034523E-03 Eh
   gradient norm :     0.0027276 Eh/α   predicted    -0.7576303E-04 ( -26.77%)
   displ. norm   :     0.1318075 α      lambda       -0.8252882E-04
   maximum displ.:     0.0780904 α      in ANC's #7, #1, #4, ...

........................................................................
.............................. CYCLE    9 ..............................
........................................................................
   1    -66.6309759 -0.666310E+02  0.185E-02    3.04       0.0  T
   2    -66.6309762 -0.335117E-06  0.110E-02    3.04       1.3  T
   3    -66.6309759  0.343812E-06  0.397E-03    3.05       3.6  T
   4    -66.6309762 -0.389946E-06  0.167E-03    3.04       8.6  T
   5    -66.6309763 -0.402821E-07  0.105E-03    3.04      13.8  T
   6    -66.6309763  0.539902E-08  0.708E-04    3.04      20.4  T
   7    -66.6309763 -0.924271E-08  0.276E-04    3.04      52.2  T
     SCC iter.                  ...        0 min,  0.012 sec
     gradient                   ...        0 min,  0.020 sec
 * total energy  :   -65.7695079 Eh     change       -0.6060483E-04 Eh
   gradient norm :     0.0019315 Eh/α   predicted    -0.4198471E-04 ( -30.72%)
   displ. norm   :     0.2099377 α      lambda       -0.6369185E-04
   maximum displ.:     0.1246374 α      in ANC's #1, #7, #4, ...

........................................................................
.............................. CYCLE   10 ..............................
........................................................................
   1    -66.6306662 -0.666307E+02  0.328E-02    3.04       0.0  T
   2    -66.6306677 -0.143911E-05  0.198E-02    3.04       1.0  T
   3    -66.6306639  0.378365E-05  0.117E-02    3.05       1.2  T
   4    -66.6306687 -0.477675E-05  0.270E-03    3.04       5.3  T
   5    -66.6306688 -0.815067E-07  0.161E-03    3.04       9.0  T
   6    -66.6306687  0.135594E-07  0.120E-03    3.04      12.0  T
   7    -66.6306688 -0.204074E-07  0.423E-04    3.04      34.1  T
   8    -66.6306688 -0.743825E-09  0.195E-04    3.04      73.9  T
     SCC iter.                  ...        0 min,  0.013 sec
     gradient                   ...        0 min,  0.019 sec
 * total energy  :   -65.7695647 Eh     change       -0.5681050E-04 Eh
   gradient norm :     0.0030046 Eh/α   predicted    -0.3247143E-04 ( -42.84%)
   displ. norm   :     0.0607004 α      lambda       -0.2862479E-04
   maximum displ.:     0.0433046 α      in ANC's #1, #4, #12, ...

........................................................................
.............................. CYCLE   11 ..............................
........................................................................
   1    -66.6304745 -0.666305E+02  0.130E-02    3.05       0.0  T
   2    -66.6304747 -0.193906E-06  0.791E-03    3.05       1.8  T
   3    -66.6304741  0.620381E-06  0.518E-03    3.05       2.8  T
   4    -66.6304750 -0.870837E-06  0.778E-04    3.05      18.6  T
   5    -66.6304750 -0.130500E-07  0.411E-04    3.05      35.2  T
     SCC iter.                  ...        0 min,  0.008 sec
     gradient                   ...        0 min,  0.019 sec
 * total energy  :   -65.7695895 Eh     change       -0.2482302E-04 Eh
   gradient norm :     0.0023631 Eh/α   predicted    -0.1436928E-04 ( -42.11%)
   displ. norm   :     0.1238368 α      lambda       -0.5484261E-04
   maximum displ.:     0.0867526 α      in ANC's #1, #12, #4, ...

........................................................................
.............................. CYCLE   12 ..............................
........................................................................
   1    -66.6300427 -0.666300E+02  0.272E-02    3.05       0.0  T
   2    -66.6300441 -0.137390E-05  0.166E-02    3.05       1.0  T
   3    -66.6300420  0.208754E-05  0.110E-02    3.06       1.3  T
   4    -66.6300455 -0.343472E-05  0.190E-03    3.05       7.6  T
   5    -66.6300456 -0.101989E-06  0.859E-04    3.05      16.8  T
   6    -66.6300456 -0.167455E-08  0.563E-04    3.05      25.6  T
     SCC iter.                  ...        0 min,  0.010 sec
     gradient                   ...        0 min,  0.020 sec
 * total energy  :   -65.7696301 Eh     change       -0.4063808E-04 Eh
   gradient norm :     0.0012926 Eh/α   predicted    -0.2784658E-04 ( -31.48%)
   displ. norm   :     0.1864793 α      lambda       -0.3538785E-04
   maximum displ.:     0.1363057 α      in ANC's #1, #12, #4, ...

........................................................................
.............................. CYCLE   13 ..............................
........................................................................
   1    -66.6294247 -0.666294E+02  0.373E-02    3.06       0.0  T
   2    -66.6294276 -0.292400E-05  0.228E-02    3.06       1.0  T
   3    -66.6294237  0.395224E-05  0.145E-02    3.06       1.0  T
   4    -66.6294298 -0.611739E-05  0.279E-03    3.06       5.2  T
   5    -66.6294301 -0.256154E-06  0.947E-04    3.06      15.2  T
   6    -66.6294301 -0.403119E-08  0.615E-04    3.06      23.5  T
     SCC iter.                  ...        0 min,  0.010 sec
     gradient                   ...        0 min,  0.020 sec
 * total energy  :   -65.7696677 Eh     change       -0.3756815E-04 Eh
   gradient norm :     0.0024804 Eh/α   predicted    -0.1797100E-04 ( -52.16%)
   displ. norm   :     0.0934595 α      lambda       -0.2959366E-04
   maximum displ.:     0.0707240 α      in ANC's #1, #12, #4, ...

........................................................................
.............................. CYCLE   14 ..............................
........................................................................
   1    -66.6297683 -0.666298E+02  0.171E-02    3.06       0.0  T
   2    -66.6297690 -0.700209E-06  0.105E-02    3.06       1.4  T
   3    -66.6297682  0.788598E-06  0.679E-03    3.06       2.1  T
   4    -66.6297695 -0.128124E-05  0.136E-03    3.06      10.6  T
   5    -66.6297695 -0.608270E-07  0.462E-04    3.06      31.2  T
   6    -66.6297695 -0.157790E-08  0.301E-04    3.06      48.0  T
     SCC iter.                  ...        0 min,  0.010 sec
     gradient                   ...        0 min,  0.019 sec
 * total energy  :   -65.7696953 Eh     change       -0.2754540E-04 Eh
   gradient norm :     0.0024511 Eh/α   predicted    -0.1492788E-04 ( -45.81%)
   displ. norm   :     0.2068505 α      lambda       -0.7243240E-04
   maximum displ.:     0.1531327 α      in ANC's #1, #12, #14, ...

........................................................................
.............................. CYCLE   15 ..............................
........................................................................
   1    -66.6301844 -0.666302E+02  0.372E-02    3.05       0.0  T
   2    -66.6301880 -0.364962E-05  0.229E-02    3.06       1.0  T
   3    -66.6301841  0.389348E-05  0.149E-02    3.06       1.0  T
   4    -66.6301904 -0.622124E-05  0.302E-03    3.06       4.8  T
   5    -66.6301906 -0.279232E-06  0.128E-03    3.06      11.3  T
   6    -66.6301907 -0.118057E-07  0.843E-04    3.06      17.1  T
   7    -66.6301907 -0.616367E-09  0.549E-04    3.06      26.3  T
     SCC iter.                  ...        0 min,  0.011 sec
     gradient                   ...        0 min,  0.019 sec
 * total energy  :   -65.7697576 Eh     change       -0.6229847E-04 Eh
   gradient norm :     0.0021355 Eh/α   predicted    -0.3776838E-04 ( -39.38%)
   displ. norm   :     0.3263771 α      lambda       -0.9232108E-04
   maximum displ.:     0.2431887 α      in ANC's #1, #12, #14, ...

........................................................................
.............................. CYCLE   16 ..............................
........................................................................
   1    -66.6298518 -0.666299E+02  0.594E-02    3.04       0.0  T
   2    -66.6298628 -0.110187E-04  0.371E-02    3.05       1.0  T
   3    -66.6298543  0.856389E-05  0.245E-02    3.06       1.0  T
   4    -66.6298704 -0.161713E-04  0.492E-03    3.05       2.9  T
   5    -66.6298711 -0.687064E-06  0.213E-03    3.06       6.8  T
   6    -66.6298712 -0.446417E-07  0.142E-03    3.06      10.2  T
   7    -66.6298712 -0.602421E-08  0.902E-04    3.06      16.0  T
   8    -66.6298712 -0.833960E-08  0.251E-04    3.06      57.4  T
     SCC iter.                  ...        0 min,  0.013 sec
     gradient                   ...        0 min,  0.019 sec
 * total energy  :   -65.7698325 Eh     change       -0.7491534E-04 Eh
   gradient norm :     0.0028668 Eh/α   predicted    -0.5107889E-04 ( -31.82%)
   displ. norm   :     0.3255553 α      lambda       -0.8003502E-04
   maximum displ.:     0.2462752 α      in ANC's #1, #12, #14, ...

........................................................................
.............................. CYCLE   17 ..............................
........................................................................
   1    -66.6295301 -0.666295E+02  0.602E-02    3.04       0.0  T
   2    -66.6295420 -0.118698E-04  0.379E-02    3.05       1.0  T
   3    -66.6295350  0.696686E-05  0.255E-02    3.05       1.0  T
   4    -66.6295515 -0.164752E-04  0.522E-03    3.05       2.8  T
   5    -66.6295521 -0.646735E-06  0.258E-03    3.05       5.6  T
   6    -66.6295522 -0.528513E-07  0.177E-03    3.05       8.2  T
   7    -66.6295522 -0.632211E-08  0.105E-03    3.05      13.8  T
   8    -66.6295522 -0.150603E-07  0.284E-04    3.05      50.8  T
   9    -66.6295522 -0.115092E-08  0.184E-04    3.05      78.4  T
     SCC iter.                  ...        0 min,  0.015 sec
     gradient                   ...        0 min,  0.019 sec
 * total energy  :   -65.7698992 Eh     change       -0.6675035E-04 Eh
   gradient norm :     0.0037682 Eh/α   predicted    -0.4426011E-04 ( -33.69%)
   displ. norm   :     0.3401241 α      lambda       -0.9020386E-04
   maximum displ.:     0.2594511 α      in ANC's #1, #12, #6, ...

........................................................................
.............................. CYCLE   18 ..............................
........................................................................
   1    -66.6294504 -0.666295E+02  0.632E-02    3.04       0.0  T
   2    -66.6294630 -0.126001E-04  0.401E-02    3.05       1.0  T
   3    -66.6294572  0.575627E-05  0.274E-02    3.05       1.0  T
   4    -66.6294751 -0.178896E-04  0.570E-03    3.05       2.5  T
   5    -66.6294757 -0.626155E-06  0.312E-03    3.05       4.6  T
   6    -66.6294758 -0.566597E-07  0.215E-03    3.05       6.7  T
   7    -66.6294758 -0.100141E-07  0.117E-03    3.05      12.3  T
   8    -66.6294758 -0.244908E-07  0.301E-04    3.05      48.0  T
   9    -66.6294758 -0.117919E-08  0.197E-04    3.05      73.3  T
     SCC iter.                  ...        0 min,  0.015 sec
     gradient                   ...        0 min,  0.019 sec
 * total energy  :   -65.7699774 Eh     change       -0.7819597E-04 Eh
   gradient norm :     0.0040934 Eh/α   predicted    -0.5032108E-04 ( -35.65%)
   displ. norm   :     0.4426420 α      lambda       -0.1298164E-03
   maximum displ.:     0.3378087 α      in ANC's #1, #6, #12, ...

........................................................................
.............................. CYCLE   19 ..............................
........................................................................
   1    -66.6290521 -0.666291E+02  0.815E-02    3.04       0.0  T
   2    -66.6290730 -0.209332E-04  0.520E-02    3.05       1.0  T
   3    -66.6290660  0.702543E-05  0.355E-02    3.05       1.0  T
   4    -66.6290948 -0.287991E-04  0.761E-03    3.05       1.9  T
   5    -66.6290958 -0.101504E-05  0.420E-03    3.05       3.4  T
   6    -66.6290959 -0.911038E-07  0.290E-03    3.05       5.0  T
   7    -66.6290959 -0.233253E-07  0.151E-03    3.05       9.6  T
   8    -66.6290960 -0.453865E-07  0.387E-04    3.05      37.3  T
   9    -66.6290960 -0.171353E-08  0.253E-04    3.05      57.1  T
     SCC iter.                  ...        0 min,  0.015 sec
     gradient                   ...        0 min,  0.019 sec
 * total energy  :   -65.7700867 Eh     change       -0.1092946E-03 Eh
   gradient norm :     0.0045285 Eh/α   predicted    -0.7762839E-04 ( -28.97%)
   displ. norm   :     0.4961787 α      lambda       -0.1559423E-03
   maximum displ.:     0.3781835 α      in ANC's #1, #6, #15, ...

........................................................................
.............................. CYCLE   20 ..............................
........................................................................
   1    -66.6292037 -0.666292E+02  0.901E-02    3.04       0.0  T
   2    -66.6292267 -0.230566E-04  0.577E-02    3.04       1.0  T
   3    -66.6292181  0.860588E-05  0.395E-02    3.06       1.0  T
   4    -66.6292532 -0.350948E-04  0.882E-03    3.05       1.6  T
   5    -66.6292544 -0.116860E-05  0.498E-03    3.05       2.9  T
   6    -66.6292545 -0.761952E-07  0.338E-03    3.05       4.3  T
   7    -66.6292545 -0.506352E-07  0.164E-03    3.05       8.8  T
   8    -66.6292546 -0.645107E-07  0.419E-04    3.05      34.5  T
   9    -66.6292546 -0.873285E-09  0.272E-04    3.05      53.0  T
     SCC iter.                  ...        0 min,  0.015 sec
     gradient                   ...        0 min,  0.019 sec
 * total energy  :   -65.7702068 Eh     change       -0.1200576E-03 Eh
   gradient norm :     0.0046166 Eh/α   predicted    -0.9717155E-04 ( -19.06%)
   displ. norm   :     0.4764276 α      lambda       -0.1235198E-03
   maximum displ.:     0.3619992 α      in ANC's #1, #6, #15, ...
 * RMSD in coord.:     0.5630495 α      energy gain  -0.3286539E-01 Eh

generating ANC from model Hessian ...
Using Lindh-Hessian (1995)
 Shifting diagonal of input Hessian by   9.786274098238122E-003
 Lowest  eigenvalues of input Hessian
    0.000000    0.000000    0.000000    0.000000    0.000000    0.000000
    0.010000    0.010164    0.011011    0.011846    0.012007    0.013065
    0.013119    0.014073    0.014626    0.015449    0.015743    0.015847
 Highest eigenvalues
    1.454693    1.507316    1.916610    1.998450    2.156615    2.192871
 

........................................................................
.............................. CYCLE   21 ..............................
........................................................................
   1    -66.6273273 -0.666273E+02  0.830E-02    3.04       0.0  T
   2    -66.6273496 -0.223218E-04  0.533E-02    3.04       1.0  T
   3    -66.6273432  0.639654E-05  0.353E-02    3.05       1.0  T
   4    -66.6273715 -0.282700E-04  0.797E-03    3.04       1.8  T
   5    -66.6273727 -0.125076E-05  0.388E-03    3.05       3.7  T
   6    -66.6273728 -0.963683E-07  0.260E-03    3.05       5.6  T
   7    -66.6273729 -0.283836E-07  0.137E-03    3.04      10.6  T
   8    -66.6273729 -0.374139E-07  0.347E-04    3.05      41.6  T
   9    -66.6273729 -0.998668E-09  0.228E-04    3.05      63.2  T
     SCC iter.                  ...        0 min,  0.015 sec
     gradient                   ...        0 min,  0.019 sec
 * total energy  :   -65.7702858 Eh     change       -0.7900158E-04 Eh
   gradient norm :     0.0056729 Eh/α   predicted     0.0000000E+00 (-100.00%)
   displ. norm   :     0.0380536 α      lambda       -0.5347154E-04
   maximum displ.:     0.0140405 α      in ANC's #2, #1, #21, ...

........................................................................
.............................. CYCLE   22 ..............................
........................................................................
   1    -66.6294127 -0.666294E+02  0.119E-02    3.05       0.0  T
   2    -66.6294137 -0.100510E-05  0.710E-03    3.05       2.0  T
   3    -66.6294138 -0.905231E-07  0.460E-03    3.05       3.1  T
   4    -66.6294141 -0.282293E-06  0.190E-03    3.05       7.6  T
   5    -66.6294142 -0.556689E-07  0.960E-04    3.05      15.0  T
   6    -66.6294142 -0.917140E-09  0.706E-04    3.05      20.4  T
     SCC iter.                  ...        0 min,  0.010 sec
     gradient                   ...        0 min,  0.019 sec
 * total energy  :   -65.7703323 Eh     change       -0.4648720E-04 Eh
   gradient norm :     0.0025256 Eh/α   predicted    -0.3145144E-04 ( -32.34%)
   displ. norm   :     0.0755378 α      lambda       -0.5260118E-04
   maximum displ.:     0.0312980 α      in ANC's #2, #1, #3, ...

........................................................................
.............................. CYCLE   23 ..............................
........................................................................
   1    -66.6310723 -0.666311E+02  0.149E-02    3.05       0.0  T
   2    -66.6310733 -0.101379E-05  0.871E-03    3.05       1.7  T
   3    -66.6310732  0.370562E-07  0.526E-03    3.05       2.7  T
   4    -66.6310737 -0.421276E-06  0.176E-03    3.05       8.2  T
   5    -66.6310738 -0.856778E-07  0.679E-04    3.05      21.3  T
   6    -66.6310738 -0.834305E-08  0.491E-04    3.05      29.4  T
     SCC iter.                  ...        0 min,  0.010 sec
     gradient                   ...        0 min,  0.020 sec
 * total energy  :   -65.7703684 Eh     change       -0.3611710E-04 Eh
   gradient norm :     0.0020356 Eh/α   predicted    -0.2645095E-04 ( -26.76%)
   displ. norm   :     0.0918225 α      lambda       -0.3485620E-04
   maximum displ.:     0.0398036 α      in ANC's #2, #1, #3, ...

........................................................................
.............................. CYCLE   24 ..............................
........................................................................
   1    -66.6314778 -0.666315E+02  0.144E-02    3.05       0.0  T
   2    -66.6314783 -0.424104E-06  0.912E-03    3.05       1.6  T
   3    -66.6314781  0.177217E-06  0.418E-03    3.05       3.5  T
   4    -66.6314783 -0.212089E-06  0.182E-03    3.05       7.9  T
   5    -66.6314784 -0.101945E-06  0.971E-04    3.05      14.9  T
   6    -66.6314784 -0.996737E-08  0.605E-04    3.05      23.9  T
     SCC iter.                  ...        0 min,  0.010 sec
     gradient                   ...        0 min,  0.019 sec
 * total energy  :   -65.7703964 Eh     change       -0.2798825E-04 Eh
   gradient norm :     0.0026982 Eh/α   predicted    -0.1764563E-04 ( -36.95%)
   displ. norm   :     0.1839051 α      lambda       -0.5890335E-04
   maximum displ.:     0.0790381 α      in ANC's #2, #1, #3, ...

........................................................................
.............................. CYCLE   25 ..............................
........................................................................
   1    -66.6309523 -0.666310E+02  0.280E-02    3.05       0.0  T
   2    -66.6309533 -0.978636E-06  0.180E-02    3.05       1.0  T
   3    -66.6309528  0.444931E-06  0.564E-03    3.05       2.6  T
   4    -66.6309531 -0.327267E-06  0.362E-03    3.05       4.0  T
   5    -66.6309535 -0.310852E-06  0.189E-03    3.05       7.7  T
   6    -66.6309535 -0.173431E-07  0.107E-03    3.05      13.4  T
   7    -66.6309535  0.698648E-09  0.438E-04    3.05      33.0  T
   8    -66.6309535 -0.316277E-08  0.229E-04    3.05      63.0  T
     SCC iter.                  ...        0 min,  0.013 sec
     gradient                   ...        0 min,  0.020 sec
 * total energy  :   -65.7704411 Eh     change       -0.4470128E-04 Eh
   gradient norm :     0.0037306 Eh/α   predicted    -0.3052430E-04 ( -31.71%)
   displ. norm   :     0.2249983 α      lambda       -0.6085291E-04
   maximum displ.:     0.0979984 α      in ANC's #2, #1, #3, ...

........................................................................
.............................. CYCLE   26 ..............................
........................................................................
   1    -66.6295635 -0.666296E+02  0.345E-02    3.05       0.0  T
   2    -66.6295649 -0.138667E-05  0.218E-02    3.05       1.0  T
   3    -66.6295624  0.253218E-05  0.899E-03    3.05       1.6  T
   4    -66.6295651 -0.273820E-05  0.375E-03    3.05       3.9  T
   5    -66.6295655 -0.324945E-06  0.187E-03    3.05       7.7  T
   6    -66.6295655 -0.154902E-07  0.101E-03    3.05      14.3  T
   7    -66.6295655 -0.970786E-09  0.353E-04    3.05      40.9  T
   8    -66.6295655 -0.122186E-08  0.228E-04    3.05      63.3  T
     SCC iter.                  ...        0 min,  0.013 sec
     gradient                   ...        0 min,  0.020 sec
 * total energy  :   -65.7704862 Eh     change       -0.4510022E-04 Eh
   gradient norm :     0.0050031 Eh/α   predicted    -0.3196794E-04 ( -29.12%)
   displ. norm   :     0.2237400 α      lambda       -0.6639233E-04
   maximum displ.:     0.1008262 α      in ANC's #2, #1, #3, ...

........................................................................
.............................. CYCLE   27 ..............................
........................................................................
   1    -66.6282641 -0.666283E+02  0.346E-02    3.04       0.0  T
   2    -66.6282658 -0.170746E-05  0.216E-02    3.05       1.0  T
   3    -66.6282612  0.459695E-05  0.124E-02    3.05       1.2  T
   4    -66.6282669 -0.573127E-05  0.268E-03    3.05       5.4  T
   5    -66.6282671 -0.124311E-06  0.139E-03    3.05      10.4  T
   6    -66.6282671 -0.471910E-08  0.944E-04    3.05      15.3  T
   7    -66.6282671 -0.662213E-08  0.367E-04    3.05      39.3  T
     SCC iter.                  ...        0 min,  0.012 sec
     gradient                   ...        0 min,  0.020 sec
 * total energy  :   -65.7705376 Eh     change       -0.5141880E-04 Eh
   gradient norm :     0.0055441 Eh/α   predicted    -0.3486088E-04 ( -32.20%)
   displ. norm   :     0.2421835 α      lambda       -0.9693592E-04
   maximum displ.:     0.1148943 α      in ANC's #2, #1, #3, ...

........................................................................
.............................. CYCLE   28 ..............................
........................................................................
   1    -66.6278097 -0.666278E+02  0.386E-02    3.04       0.0  T
   2    -66.6278122 -0.254914E-05  0.242E-02    3.04       1.0  T
   3    -66.6278068  0.540045E-05  0.158E-02    3.05       1.0  T
   4    -66.6278148 -0.791914E-05  0.287E-03    3.04       5.0  T
   5    -66.6278149 -0.140335E-06  0.168E-03    3.04       8.6  T
   6    -66.6278149 -0.750802E-08  0.118E-03    3.04      12.2  T
   7    -66.6278149 -0.920089E-08  0.494E-04    3.04      29.2  T
   8    -66.6278149 -0.397162E-08  0.242E-04    3.04      59.6  T
     SCC iter.                  ...        0 min,  0.014 sec
     gradient                   ...        0 min,  0.020 sec
 * total energy  :   -65.7706080 Eh     change       -0.7043745E-04 Eh
   gradient norm :     0.0047271 Eh/α   predicted    -0.5131095E-04 ( -27.15%)
   displ. norm   :     0.2203266 α      lambda       -0.7228530E-04
   maximum displ.:     0.1088267 α      in ANC's #2, #1, #13, ...

........................................................................
.............................. CYCLE   29 ..............................
........................................................................
   1    -66.6281244 -0.666281E+02  0.349E-02    3.04       0.0  T
   2    -66.6281257 -0.129913E-05  0.218E-02    3.04       1.0  T
   3    -66.6281207  0.502445E-05  0.139E-02    3.04       1.0  T
   4    -66.6281272 -0.652111E-05  0.271E-03    3.04       5.3  T
   5    -66.6281273 -0.696376E-07  0.185E-03    3.04       7.8  T
   6    -66.6281273  0.257208E-08  0.111E-03    3.04      13.1  T
   7    -66.6281273 -0.149980E-07  0.427E-04    3.04      33.8  T
   8    -66.6281273 -0.364980E-08  0.217E-04    3.04      66.4  T
     SCC iter.                  ...        0 min,  0.013 sec
     gradient                   ...        0 min,  0.020 sec
 * total energy  :   -65.7706617 Eh     change       -0.5365159E-04 Eh
   gradient norm :     0.0034954 Eh/α   predicted    -0.3789754E-04 ( -29.36%)
   displ. norm   :     0.2254416 α      lambda       -0.6001214E-04
   maximum displ.:     0.1166893 α      in ANC's #1, #2, #13, ...

........................................................................
.............................. CYCLE   30 ..............................
........................................................................
   1    -66.6288443 -0.666288E+02  0.351E-02    3.04       0.0  T
   2    -66.6288451 -0.849806E-06  0.218E-02    3.04       1.0  T
   3    -66.6288404  0.478258E-05  0.122E-02    3.04       1.2  T
   4    -66.6288460 -0.563853E-05  0.258E-03    3.04       5.6  T
   5    -66.6288461 -0.572124E-07  0.175E-03    3.04       8.3  T
   6    -66.6288461 -0.149203E-08  0.826E-04    3.04      17.5  T
   7    -66.6288461 -0.467109E-08  0.415E-04    3.04      34.8  T
     SCC iter.                  ...        0 min,  0.012 sec
     gradient                   ...        0 min,  0.019 sec
 * total energy  :   -65.7707071 Eh     change       -0.4542064E-04 Eh
   gradient norm :     0.0028186 Eh/α   predicted    -0.3153404E-04 ( -30.57%)
   displ. norm   :     0.2655627 α      lambda       -0.5533742E-04
   maximum displ.:     0.1418224 α      in ANC's #1, #2, #13, ...

........................................................................
.............................. CYCLE   31 ..............................
........................................................................
   1    -66.6290712 -0.666291E+02  0.410E-02    3.04       0.0  T
   2    -66.6290724 -0.117443E-05  0.253E-02    3.04       1.0  T
   3    -66.6290669  0.547203E-05  0.126E-02    3.04       1.1  T
   4    -66.6290732 -0.630113E-05  0.290E-03    3.04       5.0  T
   5    -66.6290733 -0.109283E-06  0.173E-03    3.04       8.3  T
   6    -66.6290733 -0.613200E-08  0.798E-04    3.04      18.1  T
   7    -66.6290733 -0.125789E-08  0.418E-04    3.04      34.5  T
     SCC iter.                  ...        0 min,  0.012 sec
     gradient                   ...        0 min,  0.019 sec
 * total energy  :   -65.7707503 Eh     change       -0.4320099E-04 Eh
   gradient norm :     0.0033288 Eh/α   predicted    -0.2962139E-04 ( -31.43%)
   displ. norm   :     0.2718451 α      lambda       -0.7189970E-04
   maximum displ.:     0.1573554 α      in ANC's #1, #2, #7, ...

........................................................................
.............................. CYCLE   32 ..............................
........................................................................
   1    -66.6319746 -0.666320E+02  0.424E-02    3.03       0.0  T
   2    -66.6319764 -0.185755E-05  0.255E-02    3.03       1.0  T
   3    -66.6319715  0.496521E-05  0.135E-02    3.04       1.1  T
   4    -66.6319775 -0.603797E-05  0.289E-03    3.03       5.0  T
   5    -66.6319777 -0.199869E-06  0.152E-03    3.04       9.5  T
   6    -66.6319777 -0.333424E-08  0.916E-04    3.04      15.8  T
   7    -66.6319777 -0.574109E-08  0.386E-04    3.04      37.4  T
     SCC iter.                  ...        0 min,  0.012 sec
     gradient                   ...        0 min,  0.019 sec
 * total energy  :   -65.7707866 Eh     change       -0.3628968E-04 Eh
   gradient norm :     0.0045411 Eh/α   predicted    -0.3860824E-04 (   6.39%)
   displ. norm   :     0.5795131 α      lambda       -0.1112938E-03
   maximum displ.:     0.3183115 α      in ANC's #1, #2, #13, ...

........................................................................
.............................. CYCLE   33 ..............................
........................................................................
   1    -66.6261289 -0.666261E+02  0.942E-02    3.02       0.0  T
   2    -66.6261415 -0.125977E-04  0.586E-02    3.02       1.0  T
   3    -66.6261154  0.260839E-04  0.295E-02    3.03       1.0  T
   4    -66.6261459 -0.305473E-04  0.947E-03    3.02       1.5  T
   5    -66.6261475 -0.153470E-05  0.465E-03    3.02       3.1  T
   6    -66.6261474  0.450767E-08  0.250E-03    3.02       5.8  T
   7    -66.6261475 -0.601451E-07  0.101E-03    3.02      14.3  T
   8    -66.6261475 -0.339582E-07  0.366E-04    3.02      39.4  T
   9    -66.6261475 -0.119894E-08  0.235E-04    3.02      61.5  T
     SCC iter.                  ...        0 min,  0.015 sec
     gradient                   ...        0 min,  0.020 sec
 * total energy  :   -65.7707951 Eh     change       -0.8499332E-05 Eh
   gradient norm :     0.0072962 Eh/α   predicted    -0.7433869E-04 ( 774.64%)
   displ. norm   :     0.2136072 α      lambda       -0.1209706E-03
   maximum displ.:     0.1033279 α      in ANC's #2, #1, #13, ...

........................................................................
.............................. CYCLE   34 ..............................
........................................................................
   1    -66.6303412 -0.666303E+02  0.398E-02    3.03       0.0  T
   2    -66.6303440 -0.279373E-05  0.241E-02    3.03       1.0  T
   3    -66.6303416  0.238074E-05  0.105E-02    3.03       1.4  T
   4    -66.6303443 -0.274422E-05  0.488E-03    3.03       3.0  T
   5    -66.6303446 -0.276432E-06  0.284E-03    3.03       5.1  T
   6    -66.6303446  0.246657E-07  0.153E-03    3.03       9.4  T
   7    -66.6303446 -0.365308E-07  0.514E-04    3.03      28.1  T
   8    -66.6303446 -0.554118E-08  0.257E-04    3.03      56.1  T
     SCC iter.                  ...        0 min,  0.013 sec
     gradient                   ...        0 min,  0.020 sec
 * total energy  :   -65.7708495 Eh     change       -0.5442375E-04 Eh
   gradient norm :     0.0022121 Eh/α   predicted    -0.6324599E-04 (  16.21%)
   displ. norm   :     0.1132246 α      lambda       -0.2301937E-04
   maximum displ.:     0.0730195 α      in ANC's #1, #2, #9, ...

........................................................................
.............................. CYCLE   35 ..............................
........................................................................
   1    -66.6306355 -0.666306E+02  0.172E-02    3.03       0.0  T
   2    -66.6306361 -0.615672E-06  0.108E-02    3.03       1.3  T
   3    -66.6306353  0.757488E-06  0.707E-03    3.03       2.0  T
   4    -66.6306367 -0.131036E-05  0.160E-03    3.03       9.0  T
   5    -66.6306367 -0.458513E-07  0.857E-04    3.03      16.8  T
   6    -66.6306367  0.389505E-09  0.551E-04    3.03      26.2  T
     SCC iter.                  ...        0 min,  0.010 sec
     gradient                   ...        0 min,  0.020 sec
 * total energy  :   -65.7708690 Eh     change       -0.1949134E-04 Eh
   gradient norm :     0.0016607 Eh/α   predicted    -0.1166175E-04 ( -40.17%)
   displ. norm   :     0.3453456 α      lambda       -0.4113042E-04
   maximum displ.:     0.2245949 α      in ANC's #1, #2, #9, ...

........................................................................
.............................. CYCLE   36 ..............................
........................................................................
   1    -66.6297503 -0.666298E+02  0.510E-02    3.02       0.0  T
   2    -66.6297554 -0.503522E-05  0.322E-02    3.02       1.0  T
   3    -66.6297484  0.695911E-05  0.211E-02    3.03       1.0  T
   4    -66.6297606 -0.121624E-04  0.413E-03    3.02       3.5  T
   5    -66.6297609 -0.315443E-06  0.231E-03    3.02       6.2  T
   6    -66.6297609 -0.230357E-07  0.155E-03    3.02       9.3  T
   7    -66.6297609 -0.923306E-08  0.746E-04    3.02      19.3  T
   8    -66.6297609 -0.108061E-07  0.307E-04    3.02      46.9  T
     SCC iter.                  ...        0 min,  0.013 sec
     gradient                   ...        0 min,  0.020 sec
 * total energy  :   -65.7709047 Eh     change       -0.3574958E-04 Eh
   gradient norm :     0.0026515 Eh/α   predicted    -0.2165583E-04 ( -39.42%)
   displ. norm   :     0.1007123 α      lambda       -0.1698174E-04
   maximum displ.:     0.0674028 α      in ANC's #1, #2, #7, ...

........................................................................
.............................. CYCLE   37 ..............................
........................................................................
   1    -66.6299675 -0.666300E+02  0.144E-02    3.02       0.0  T
   2    -66.6299676 -0.133260E-06  0.869E-03    3.02       1.7  T
   3    -66.6299668  0.807847E-06  0.547E-03    3.02       2.6  T
   4    -66.6299678 -0.967202E-06  0.143E-03    3.02      10.1  T
   5    -66.6299678 -0.481941E-08  0.989E-04    3.02      14.6  T
   6    -66.6299678  0.675300E-08  0.482E-04    3.02      29.9  T
     SCC iter.                  ...        0 min,  0.010 sec
     gradient                   ...        0 min,  0.020 sec
 * total energy  :   -65.7709190 Eh     change       -0.1422439E-04 Eh
   gradient norm :     0.0026759 Eh/α   predicted    -0.8578430E-05 ( -39.69%)
   displ. norm   :     0.1737056 α      lambda       -0.3573202E-04
   maximum displ.:     0.1192310 α      in ANC's #1, #2, #3, ...

........................................................................
.............................. CYCLE   38 ..............................
........................................................................
   1    -66.6306994 -0.666307E+02  0.230E-02    3.02       0.0  T
   2    -66.6306996 -0.182828E-06  0.144E-02    3.02       1.0  T
   3    -66.6306983  0.130569E-05  0.666E-03    3.02       2.2  T
   4    -66.6306997 -0.146073E-05  0.206E-03    3.02       7.0  T
   5    -66.6306997  0.386700E-08  0.126E-03    3.02      11.4  T
   6    -66.6306997 -0.121659E-07  0.498E-04    3.02      29.0  T
   7    -66.6306998 -0.511028E-08  0.215E-04    3.02      67.1  T
     SCC iter.                  ...        0 min,  0.011 sec
     gradient                   ...        0 min,  0.020 sec
 * total energy  :   -65.7709484 Eh     change       -0.2943997E-04 Eh
   gradient norm :     0.0021954 Eh/α   predicted    -0.1840681E-04 ( -37.48%)
   displ. norm   :     0.3181361 α      lambda       -0.5144139E-04
   maximum displ.:     0.2214123 α      in ANC's #1, #2, #3, ...

........................................................................
.............................. CYCLE   39 ..............................
........................................................................
   1    -66.6304450 -0.666304E+02  0.392E-02    3.02       0.0  T
   2    -66.6304454 -0.442984E-06  0.244E-02    3.02       1.0  T
   3    -66.6304432  0.221548E-05  0.841E-03    3.02       1.7  T
   4    -66.6304456 -0.243729E-05  0.305E-03    3.02       4.7  T
   5    -66.6304457 -0.374375E-07  0.182E-03    3.02       7.9  T
   6    -66.6304457 -0.408075E-08  0.754E-04    3.02      19.1  T
   7    -66.6304457 -0.141640E-07  0.308E-04    3.02      46.8  T
     SCC iter.                  ...        0 min,  0.012 sec
     gradient                   ...        0 min,  0.019 sec
 * total energy  :   -65.7709885 Eh     change       -0.4010913E-04 Eh
   gradient norm :     0.0025609 Eh/α   predicted    -0.2832904E-04 ( -29.37%)
   displ. norm   :     0.2638708 α      lambda       -0.4130323E-04
   maximum displ.:     0.1842793 α      in ANC's #1, #2, #3, ...

........................................................................
.............................. CYCLE   40 ..............................
........................................................................
   1    -66.6303698 -0.666304E+02  0.310E-02    3.02       0.0  T
   2    -66.6303701 -0.262720E-06  0.197E-02    3.02       1.0  T
   3    -66.6303691  0.948283E-06  0.540E-03    3.02       2.7  T
   4    -66.6303702 -0.101798E-05  0.241E-03    3.02       6.0  T
   5    -66.6303702 -0.508284E-07  0.141E-03    3.02      10.2  T
   6    -66.6303702 -0.160462E-07  0.332E-04    3.02      43.5  T
   7    -66.6303702 -0.160894E-08  0.185E-04    3.02      78.1  T
     SCC iter.                  ...        0 min,  0.011 sec
     gradient                   ...        0 min,  0.020 sec
 * total energy  :   -65.7710225 Eh     change       -0.3395357E-04 Eh
   gradient norm :     0.0026337 Eh/α   predicted    -0.2209047E-04 ( -34.94%)
   displ. norm   :     0.2999936 α      lambda       -0.4631732E-04
   maximum displ.:     0.2066830 α      in ANC's #1, #2, #3, ...

........................................................................
.............................. CYCLE   41 ..............................
........................................................................
   1    -66.6299855 -0.666300E+02  0.342E-02    3.02       0.0  T
   2    -66.6299857 -0.238291E-06  0.216E-02    3.02       1.0  T
   3    -66.6299846  0.111597E-05  0.558E-03    3.02       2.6  T
   4    -66.6299858 -0.121482E-05  0.245E-03    3.02       5.9  T
   5    -66.6299859 -0.369263E-07  0.144E-03    3.02      10.0  T
   6    -66.6299859 -0.203152E-07  0.437E-04    3.02      33.0  T
   7    -66.6299859 -0.532810E-08  0.216E-04    3.02      66.9  T
     SCC iter.                  ...        0 min,  0.011 sec
     gradient                   ...        0 min,  0.020 sec
 * total energy  :   -65.7710601 Eh     change       -0.3766995E-04 Eh
   gradient norm :     0.0027390 Eh/α   predicted    -0.2524428E-04 ( -32.99%)
   displ. norm   :     0.3390920 α      lambda       -0.5393676E-04
   maximum displ.:     0.2265530 α      in ANC's #1, #3, #2, ...

........................................................................
.............................. CYCLE   42 ..............................
........................................................................
   1    -66.6295510 -0.666296E+02  0.388E-02    3.02       0.0  T
   2    -66.6295514 -0.361251E-06  0.243E-02    3.02       1.0  T
   3    -66.6295496  0.176430E-05  0.710E-03    3.02       2.0  T
   4    -66.6295516 -0.198691E-05  0.285E-03    3.02       5.1  T
   5    -66.6295516 -0.189508E-07  0.172E-03    3.02       8.4  T
   6    -66.6295517 -0.187833E-07  0.487E-04    3.02      29.6  T
   7    -66.6295517 -0.663263E-08  0.339E-04    3.02      42.5  T
     SCC iter.                  ...        0 min,  0.012 sec
     gradient                   ...        0 min,  0.020 sec
 * total energy  :   -65.7710967 Eh     change       -0.3657086E-04 Eh
   gradient norm :     0.0028221 Eh/α   predicted    -0.3007039E-04 ( -17.78%)
   displ. norm   :     0.2315337 α      lambda       -0.3786354E-04
   maximum displ.:     0.1549903 α      in ANC's #1, #3, #2, ...
 * RMSD in coord.:     0.5738600 α      energy gain  -0.8899467E-03 Eh

generating ANC from model Hessian ...
Using Lindh-Hessian (1995)
 Shifting diagonal of input Hessian by   9.771628253897359E-003
 Lowest  eigenvalues of input Hessian
    0.000000    0.000000    0.000000    0.000000    0.000000    0.000000
    0.010000    0.010236    0.010974    0.011892    0.012105    0.013129
    0.013176    0.014178    0.014796    0.015798    0.015824    0.015967
 Highest eigenvalues
    1.463228    1.507549    1.911375    2.002086    2.159198    2.202173
 

........................................................................
.............................. CYCLE   43 ..............................
........................................................................
   1    -66.6288561 -0.666289E+02  0.287E-02    3.02       0.0  T
   2    -66.6288564 -0.358967E-06  0.180E-02    3.02       1.0  T
   3    -66.6288559  0.503479E-06  0.458E-03    3.02       3.2  T
   4    -66.6288565 -0.599892E-06  0.215E-03    3.02       6.7  T
   5    -66.6288565 -0.206079E-07  0.136E-03    3.02      10.6  T
   6    -66.6288565  0.114626E-08  0.600E-04    3.02      24.1  T
   7    -66.6288565 -0.122513E-07  0.219E-04    3.02      65.9  T
     SCC iter.                  ...        0 min,  0.011 sec
     gradient                   ...        0 min,  0.020 sec
 * total energy  :   -65.7711212 Eh     change       -0.2453225E-04 Eh
   gradient norm :     0.0027493 Eh/α   predicted     0.0000000E+00 (-100.00%)
   displ. norm   :     0.0242408 α      lambda       -0.2291752E-04
   maximum displ.:     0.0113917 α      in ANC's #13, #5, #15, ...

........................................................................
.............................. CYCLE   44 ..............................
........................................................................
   1    -66.6300641 -0.666301E+02  0.989E-03    3.02       0.0  T
   2    -66.6300643 -0.172348E-06  0.581E-03    3.02       2.5  T
   3    -66.6300640  0.268912E-06  0.423E-03    3.02       3.4  T
   4    -66.6300644 -0.373104E-06  0.113E-03    3.02      12.8  T
   5    -66.6300644 -0.349149E-08  0.755E-04    3.02      19.1  T
   6    -66.6300644 -0.189904E-08  0.418E-04    3.02      34.6  T
     SCC iter.                  ...        0 min,  0.010 sec
     gradient                   ...        0 min,  0.020 sec
 * total energy  :   -65.7711379 Eh     change       -0.1668247E-04 Eh
   gradient norm :     0.0009358 Eh/α   predicted    -0.1154876E-04 ( -30.77%)
   displ. norm   :     0.0735687 α      lambda       -0.1867847E-04
   maximum displ.:     0.0368266 α      in ANC's #13, #5, #15, ...

........................................................................
.............................. CYCLE   45 ..............................
........................................................................
   1    -66.6314319 -0.666314E+02  0.153E-02    3.03       0.0  T
   2    -66.6314323 -0.389004E-06  0.894E-03    3.02       1.6  T
   3    -66.6314317  0.605964E-06  0.665E-03    3.03       2.2  T
   4    -66.6314328 -0.112089E-05  0.114E-03    3.03      12.7  T
   5    -66.6314328 -0.783380E-08  0.697E-04    3.03      20.7  T
   6    -66.6314328 -0.739504E-09  0.490E-04    3.03      29.5  T
     SCC iter.                  ...        0 min,  0.010 sec
     gradient                   ...        0 min,  0.020 sec
 * total energy  :   -65.7711551 Eh     change       -0.1719341E-04 Eh
   gradient norm :     0.0018698 Eh/α   predicted    -0.9362387E-05 ( -45.55%)
   displ. norm   :     0.0878099 α      lambda       -0.1491227E-04
   maximum displ.:     0.0465086 α      in ANC's #13, #5, #15, ...

........................................................................
.............................. CYCLE   46 ..............................
........................................................................
   1    -66.6312886 -0.666313E+02  0.139E-02    3.03       0.0  T
   2    -66.6312888 -0.223166E-06  0.870E-03    3.03       1.7  T
   3    -66.6312881  0.729744E-06  0.544E-03    3.03       2.7  T
   4    -66.6312891 -0.101992E-05  0.867E-04    3.03      16.6  T
   5    -66.6312891 -0.987956E-08  0.476E-04    3.03      30.3  T
   6    -66.6312891  0.655504E-09  0.300E-04    3.03      48.2  T
     SCC iter.                  ...        0 min,  0.010 sec
     gradient                   ...        0 min,  0.019 sec
 * total energy  :   -65.7711741 Eh     change       -0.1899715E-04 Eh
   gradient norm :     0.0018253 Eh/α   predicted    -0.7525756E-05 ( -60.38%)
   displ. norm   :     0.2309394 α      lambda       -0.3295386E-04
   maximum displ.:     0.1272949 α      in ANC's #13, #5, #1, ...

........................................................................
.............................. CYCLE   47 ..............................
........................................................................
   1    -66.6298349 -0.666298E+02  0.362E-02    3.03       0.0  T
   2    -66.6298360 -0.106056E-05  0.224E-02    3.03       1.0  T
   3    -66.6298318  0.418388E-05  0.109E-02    3.03       1.3  T
   4    -66.6298366 -0.483174E-05  0.303E-03    3.03       4.8  T
   5    -66.6298367 -0.772143E-07  0.175E-03    3.03       8.3  T
   6    -66.6298367  0.101542E-07  0.904E-04    3.03      16.0  T
   7    -66.6298367 -0.155288E-07  0.271E-04    3.03      53.3  T
     SCC iter.                  ...        0 min,  0.012 sec
     gradient                   ...        0 min,  0.020 sec
 * total energy  :   -65.7712002 Eh     change       -0.2612361E-04 Eh
   gradient norm :     0.0018275 Eh/α   predicted    -0.1686924E-04 ( -35.43%)
   displ. norm   :     0.0328366 α      lambda       -0.6559781E-05
   maximum displ.:     0.0159174 α      in ANC's #1, #5, #13, ...

........................................................................
.............................. CYCLE   48 ..............................
........................................................................
   1    -66.6301327 -0.666301E+02  0.647E-03    3.03       0.0  T
   2    -66.6301327 -0.564703E-07  0.410E-03    3.03       3.5  T
   3    -66.6301326  0.128791E-06  0.247E-03    3.03       5.8  T
   4    -66.6301328 -0.165743E-06  0.551E-04    3.03      26.2  T
   5    -66.6301328 -0.746658E-08  0.261E-04    3.03      55.2  T
     SCC iter.                  ...        0 min,  0.008 sec
     gradient                   ...        0 min,  0.020 sec
 * total energy  :   -65.7712083 Eh     change       -0.8008489E-05 Eh
   gradient norm :     0.0010748 Eh/α   predicted    -0.3283012E-05 ( -59.01%)
   displ. norm   :     0.1214460 α      lambda       -0.1506463E-04
   maximum displ.:     0.0584248 α      in ANC's #13, #1, #5, ...

........................................................................
.............................. CYCLE   49 ..............................
........................................................................
   1    -66.6303645 -0.666304E+02  0.200E-02    3.03       0.0  T
   2    -66.6303648 -0.348256E-06  0.126E-02    3.03       1.1  T
   3    -66.6303632  0.165214E-05  0.812E-03    3.03       1.8  T
   4    -66.6303653 -0.215563E-05  0.127E-03    3.03      11.4  T
   5    -66.6303654 -0.156543E-07  0.828E-04    3.03      17.4  T
   6    -66.6303654 -0.165865E-08  0.497E-04    3.03      29.0  T
     SCC iter.                  ...        0 min,  0.010 sec
     gradient                   ...        0 min,  0.020 sec
 * total energy  :   -65.7712234 Eh     change       -0.1510315E-04 Eh
   gradient norm :     0.0009451 Eh/α   predicted    -0.7588156E-05 ( -49.76%)
   displ. norm   :     0.1028280 α      lambda       -0.7399814E-05
   maximum displ.:     0.0524660 α      in ANC's #1, #13, #5, ...

........................................................................
.............................. CYCLE   50 ..............................
........................................................................
   1    -66.6301867 -0.666302E+02  0.167E-02    3.03       0.0  T
   2    -66.6301869 -0.142888E-06  0.105E-02    3.03       1.4  T
   3    -66.6301857  0.118486E-05  0.594E-03    3.03       2.4  T
   4    -66.6301871 -0.137538E-05  0.120E-03    3.03      12.1  T
   5    -66.6301871 -0.739892E-08  0.791E-04    3.03      18.2  T
   6    -66.6301871 -0.730168E-09  0.458E-04    3.03      31.5  T
     SCC iter.                  ...        0 min,  0.010 sec
     gradient                   ...        0 min,  0.020 sec
 * total energy  :   -65.7712309 Eh     change       -0.7550731E-05 Eh
   gradient norm :     0.0012921 Eh/α   predicted    -0.3719291E-05 ( -50.74%)
   displ. norm   :     0.0925460 α      lambda       -0.7142472E-05
   maximum displ.:     0.0518884 α      in ANC's #1, #13, #4, ...

........................................................................
.............................. CYCLE   51 ..............................
........................................................................
   1    -66.6303698 -0.666304E+02  0.153E-02    3.03       0.0  T
   2    -66.6303701 -0.251533E-06  0.978E-03    3.03       1.5  T
   3    -66.6303692  0.920500E-06  0.564E-03    3.03       2.6  T
   4    -66.6303703 -0.113794E-05  0.125E-03    3.03      11.5  T
   5    -66.6303703 -0.202324E-07  0.645E-04    3.03      22.4  T
   6    -66.6303703 -0.307651E-09  0.351E-04    3.03      41.1  T
     SCC iter.                  ...        0 min,  0.010 sec
     gradient                   ...        0 min,  0.020 sec
 * total energy  :   -65.7712382 Eh     change       -0.7301112E-05 Eh
   gradient norm :     0.0011456 Eh/α   predicted    -0.3585097E-05 ( -50.90%)
   displ. norm   :     0.1000388 α      lambda       -0.6581366E-05
   maximum displ.:     0.0580252 α      in ANC's #1, #13, #4, ...

........................................................................
.............................. CYCLE   52 ..............................
........................................................................
   1    -66.6302850 -0.666303E+02  0.153E-02    3.03       0.0  T
   2    -66.6302851 -0.125723E-06  0.947E-03    3.03       1.5  T
   3    -66.6302848  0.329473E-06  0.295E-03    3.03       4.9  T
   4    -66.6302852 -0.356643E-06  0.116E-03    3.03      12.5  T
   5    -66.6302852 -0.247792E-07  0.569E-04    3.03      25.4  T
   6    -66.6302852 -0.121732E-08  0.296E-04    3.03      48.8  T
     SCC iter.                  ...        0 min,  0.010 sec
     gradient                   ...        0 min,  0.020 sec
 * total energy  :   -65.7712454 Eh     change       -0.7240177E-05 Eh
   gradient norm :     0.0008680 Eh/α   predicted    -0.3306644E-05 ( -54.33%)
   displ. norm   :     0.0813146 α      lambda       -0.6594107E-05
   maximum displ.:     0.0506195 α      in ANC's #1, #3, #4, ...

........................................................................
.............................. CYCLE   53 ..............................
........................................................................
   1    -66.6307212 -0.666307E+02  0.122E-02    3.03       0.0  T
   2    -66.6307213 -0.142155E-06  0.742E-03    3.03       1.9  T
   3    -66.6307211  0.221921E-06  0.292E-03    3.03       4.9  T
   4    -66.6307213 -0.256211E-06  0.132E-03    3.03      10.9  T
   5    -66.6307214 -0.110996E-07  0.806E-04    3.03      17.9  T
   6    -66.6307214  0.138016E-09  0.505E-04    3.03      28.6  T
     SCC iter.                  ...        0 min,  0.010 sec
     gradient                   ...        0 min,  0.020 sec
 * total energy  :   -65.7712513 Eh     change       -0.5885746E-05 Eh
   gradient norm :     0.0007481 Eh/α   predicted    -0.3307269E-05 ( -43.81%)
   displ. norm   :     0.0854545 α      lambda       -0.4234288E-05
   maximum displ.:     0.0527229 α      in ANC's #1, #13, #3, ...

........................................................................
.............................. CYCLE   54 ..............................
........................................................................
   1    -66.6303277 -0.666303E+02  0.117E-02    3.03       0.0  T
   2    -66.6303278 -0.625309E-07  0.713E-03    3.03       2.0  T
   3    -66.6303277  0.779464E-07  0.186E-03    3.03       7.8  T
   4    -66.6303278 -0.790887E-07  0.952E-04    3.03      15.2  T
   5    -66.6303278 -0.158730E-07  0.550E-04    3.03      26.2  T
     SCC iter.                  ...        0 min,  0.008 sec
     gradient                   ...        0 min,  0.020 sec
 * total energy  :   -65.7712547 Eh     change       -0.3339793E-05 Eh
   gradient norm :     0.0011799 Eh/α   predicted    -0.2124771E-05 ( -36.38%)
   displ. norm   :     0.0299324 α      lambda       -0.2750515E-05
   maximum displ.:     0.0190605 α      in ANC's #1, #3, #8, ...

........................................................................
.............................. CYCLE   55 ..............................
........................................................................
   1    -66.6305359 -0.666305E+02  0.414E-03    3.03       0.0  T
   2    -66.6305359 -0.321133E-07  0.251E-03    3.03       5.7  T
   3    -66.6305359  0.520556E-07  0.149E-03    3.03       9.7  T
   4    -66.6305360 -0.673941E-07  0.455E-04    3.03      31.7  T
   5    -66.6305360 -0.273673E-08  0.257E-04    3.03      56.1  T
     SCC iter.                  ...        0 min,  0.008 sec
     gradient                   ...        0 min,  0.020 sec
 * total energy  :   -65.7712581 Eh     change       -0.3376988E-05 Eh
   gradient norm :     0.0007745 Eh/α   predicted    -0.1376340E-05 ( -59.24%)
   displ. norm   :     0.0687181 α      lambda       -0.4568406E-05
   maximum displ.:     0.0465451 α      in ANC's #1, #3, #8, ...

   *** GEOMETRY OPTIMIZATION CONVERGED AFTER 55 ITERATIONS ***

------------------------------------------------------------------------
 total energy gain   :        -0.0339167 Eh      -21.2830 kcal/mol
 total RMSD          :         1.0515216 a0        0.5564 Å
 total power (kW/mol):        -1.6190583 (step)  -35.7250 (real)
------------------------------------------------------------------------

 ANCopt (total)                0 d,  0 h,  0 min,  2.493 sec
 optimizer setup                ...        0 min,  0.000 sec (  0.007%)
 model hessian                  ...        0 min,  0.123 sec (  4.925%)
 ANC generation                 ...        0 min,  0.004 sec (  0.168%)
 coordinate transformation      ...        0 min,  0.001 sec (  0.027%)
 single point calculation       ...        0 min,  2.350 sec ( 94.260%)
 optimization log               ...        0 min,  0.005 sec (  0.220%)
 hessian update                 ...        0 min,  0.001 sec (  0.028%)
 rational function              ...        0 min,  0.005 sec (  0.185%)

================
 final structure:
================
48
 xtb: 6.4.0 (d4b70c2)
Si       -3.13868775657088    0.82625261942046    0.21343786508459
C        -3.65712209009346    2.55706713092185   -0.39198361839686
H        -2.81073691857423    3.23740564409322   -0.41962838851876
H        -4.41272296197740    2.99291019250449    0.25359125267095
H        -4.07168203389169    2.50917666131219   -1.39542273893731
C        -4.55925696986072   -0.42633703862972    0.17022060312723
H        -5.08641907580226   -0.39385992267730   -0.77805860371142
H        -5.28011672446269   -0.22858724990004    0.95666459243069
H        -4.18375757971113   -1.43681522945168    0.29833815206373
C        -2.30461375034447    0.93222357056127    1.92517502286393
O        -1.06047594198108   -2.36806892573589   -0.92098844161668
H        -1.47058903294137    1.62894578694702    1.91820302460444
H        -1.92318984069921   -0.04110539499763    2.22362371089644
H        -2.99990746773348    1.26048340702050    2.69105436199321
C        -0.02039348335007   -1.76468088550912   -1.09789840268894
C         1.28290563893190   -2.38413654025557   -0.56502846645581
H         0.94406817094197   -3.07076157034101    0.21467214440826
H         1.68354055295022   -3.00180148516409   -1.37373465273153
C         0.06456808740026   -0.42362829599342   -1.65048039350557
C        -0.85273662647560    0.45890265942121   -1.14155069317049
O        -2.08630189049102    0.12577437071177   -0.87591593722756
C         1.42072816727686    0.17861159862495   -1.97121386138892
C         1.99333572384100   -0.12911487250680    0.42200349564775
C         2.44593570221681   -1.51154432239628   -0.00003488071896
C         1.76800777381900    0.20864782426848    1.86746717188185
O        -0.52336311898102    1.71462012067620   -0.76593277708730
C         3.18774820228521   -2.27536635389310    1.10583799537027
C         2.63890327927635   -0.58845916158060    2.83197047891870
H         0.71697741210688   -0.01587830245338    2.08691023677913
H         1.90993171155427    1.28011898445731    2.02504576193725
C         2.56722914617532   -2.06843670615458    2.48046080781443
H         4.22164859637706   -1.92207261952333    1.14195382804494
H         3.21427226311805   -3.33708998516480    0.85288361381625
H         2.29598389057273   -0.41777317370512    3.85434239162025
H         3.67544647643746   -0.25002708764887    2.76478990138288
H         3.10800950333866   -2.66078160126389    3.22102012916163
H         1.52577426981313   -2.39607790288350    2.47981243729853
C         1.35038761880404    1.40952907523045   -2.88695515186047
C         1.65152869383775    0.68860484779632   -0.57437203891178
H         2.10431919238836   -0.57367660817966   -2.35094932364610
C         0.89398598082496    1.98462960157444   -0.61993615855804
C         1.37344180012847    2.61028317268912   -1.92846857619882
H         2.38519020040915    2.99524955514347   -1.79990943525708
H         0.72161064191197    3.42109037705699   -2.24818906636371
H         0.43124008992692    1.39532957045983   -3.47319120538350
H         2.19279293449829    1.43477852583998   -3.57693658222836
H         0.97999774371008    2.63078450216842    0.25448356194666
H         3.16782379906564   -1.37144856288904   -0.81218314720503
 
 Bond Distances (Angstroems)
 ---------------------------
Si1-C2=1.9055        Si1-C6=1.8944        Si1-C10=1.9071       Si1-O21=1.6688       C2-Si1=1.9055        C2-H3=1.0863         
C2-H4=1.0852         C2-H5=1.0868         H3-C2=1.0863         H4-C2=1.0852         H5-C2=1.0868         C6-Si1=1.8944        
C6-H7=1.0854         C6-H8=1.0850         C6-H9=1.0856         H7-C6=1.0854         H8-C6=1.0850         H9-C6=1.0856         
C10-Si1=1.9071       C10-H12=1.0868       C10-H13=1.0872       C10-H14=1.0852       O11-C15=1.2154       H12-C10=1.0868       
H13-C10=1.0872       H14-C10=1.0852       C15-O11=1.2154       C15-C16=1.5383       C15-C19=1.4529       C16-C15=1.5383       
C16-H17=1.0928       C16-H18=1.0936       C16-C24=1.5599       H17-C16=1.0928       H18-C16=1.0936       C19-C15=1.4529       
C19-C20=1.3709       C19-C22=1.5181       C20-C19=1.3709       C20-O21=1.3051       C20-O26=1.3514       O21-Si1=1.6688       
O21-C20=1.3051       C22-C19=1.5181       C22-C38=1.5358       C22-C39=1.5048       C22-H40=1.0851       C23-C24=1.5146       
C23-C25=1.5014       C23-C39=1.3335       C24-C16=1.5599       C24-C23=1.5146       C24-C27=1.5351       C24-H48=1.0956       
C25-C23=1.5014       C25-C28=1.5245       C25-H29=1.0969       C25-H30=1.0923       O26-C20=1.3514       O26-C41=1.4502       
[...]
H9-C6-Si1-C10=293.31          H9-C6-Si1-O21= 49.66          H12-C10-Si1-C2=305.44         H12-C10-Si1-C6=177.93         
H12-C10-Si1-O21= 67.14        H13-C10-Si1-C2=185.55         H13-C10-Si1-C6= 58.05         H13-C10-Si1-O21=307.25        
H14-C10-Si1-C2= 65.84         H14-C10-Si1-C6=298.33         H14-C10-Si1-O21=187.54        
           -------------------------------------------------
          |                Final Singlepoint                |
           -------------------------------------------------

          ...................................................
          :                      SETUP                      :
          :.................................................:
          :  # basis functions                 120          :
          :  # atomic orbitals                 119          :
          :  # shells                           71          :
          :  # electrons                       120          :
          :  max. iterations                   100          :
          :  Hamiltonian                  GFN2-xTB          :
          :  restarted?                      false          :
          :  GBSA solvation                  false          :
          :  PC potential                    false          :
          :  electronic temp.          300.0000000     K    :
          :  accuracy                    1.0000000          :
          :  -> integral cutoff          0.2500000E+02      :
          :  -> integral neglect         0.1000000E-07      :
          :  -> SCF convergence          0.1000000E-05 Eh   :
          :  -> wf. convergence          0.1000000E-03 e    :
          :  Broyden damping             0.4000000          :
          ...................................................

 iter      E             dE          RMSdq      gap      omega  full diag
   1    -66.6305360 -0.666305E+02  0.171E-04    3.03       0.0  T
   2    -66.6305360 -0.549818E-10  0.137E-04    3.03     105.6  T
   3    -66.6305360 -0.312923E-09  0.925E-05    3.03     156.1  T

   *** convergence criteria satisfied after 3 iterations ***

         #    Occupation            Energy/Eh            Energy/eV
      -------------------------------------------------------------
         1        2.0000           -0.7774400             -21.1552
       ...           ...                  ...                  ...
        54        2.0000           -0.4210256             -11.4567
        55        2.0000           -0.4132282             -11.2445
        56        2.0000           -0.3991113             -10.8604
        57        2.0000           -0.3950833             -10.7508
        58        2.0000           -0.3910986             -10.6423
        59        2.0000           -0.3697616             -10.0617
        60        2.0000           -0.3514907              -9.5645 (HOMO)
        61                         -0.2400374              -6.5317 (LUMO)
        62                         -0.2139681              -5.8224
        63                         -0.1789852              -4.8704
        64                         -0.1358363              -3.6963
        65                         -0.1149009              -3.1266
       ...                                ...                  ...
       119                          0.7248678              19.7247
      -------------------------------------------------------------
                  HL-Gap            0.1114533 Eh            3.0328 eV
             Fermi-level           -0.2957640 Eh           -8.0481 eV

 SCC (total)                   0 d,  0 h,  0 min,  0.036 sec
 SCC setup                      ...        0 min,  0.000 sec (  1.191%)
 Dispersion                     ...        0 min,  0.000 sec (  0.725%)
 classical contributions        ...        0 min,  0.000 sec (  0.200%)
 integral evaluation            ...        0 min,  0.011 sec ( 28.981%)
 iterations                     ...        0 min,  0.005 sec ( 14.276%)
 molecular gradient             ...        0 min,  0.020 sec ( 53.648%)
 printout                       ...        0 min,  0.000 sec (  0.943%)

         :::::::::::::::::::::::::::::::::::::::::::::::::::::
         ::                     SUMMARY                     ::
         :::::::::::::::::::::::::::::::::::::::::::::::::::::
         :: total energy             -65.771258051239 Eh    ::
         :: gradient norm              0.000775301638 Eh/a0 ::
         :: HOMO-LUMO gap              3.032799733166 eV    ::
         ::.................................................::
         :: SCC energy               -66.630535957308 Eh    ::
         :: -> isotropic ES            0.087241404107 Eh    ::
         :: -> anisotropic ES          0.008008896607 Eh    ::
         :: -> anisotropic XC          0.019773607547 Eh    ::
         :: -> dispersion             -0.053920692842 Eh    ::
         :: repulsion energy           0.857736656018 Eh    ::
         :: add. restraining           0.000000000000 Eh    ::
         :: total charge              -0.000000000000 e     ::
         :::::::::::::::::::::::::::::::::::::::::::::::::::::

           -------------------------------------------------
          |                Property Printout                |
           -------------------------------------------------

    * Orbital Energies and Occupations

         #    Occupation            Energy/Eh            Energy/eV
      -------------------------------------------------------------
         1        2.0000           -0.7774400             -21.1552
       ...           ...                  ...                  ...
        48        2.0000           -0.4498246             -12.2403
        49        2.0000           -0.4456377             -12.1264
        50        2.0000           -0.4452099             -12.1148
        51        2.0000           -0.4374839             -11.9045
        52        2.0000           -0.4342084             -11.8154
        53        2.0000           -0.4307420             -11.7211
        54        2.0000           -0.4210256             -11.4567
        55        2.0000           -0.4132282             -11.2445
        56        2.0000           -0.3991113             -10.8604
        57        2.0000           -0.3950833             -10.7508
        58        2.0000           -0.3910986             -10.6423
        59        2.0000           -0.3697616             -10.0617
        60        2.0000           -0.3514907              -9.5645 (HOMO)
        61                         -0.2400374              -6.5317 (LUMO)
        62                         -0.2139681              -5.8224
        63                         -0.1789852              -4.8704
        64                         -0.1358363              -3.6963
        65                         -0.1149009              -3.1266
        66                         -0.1033431              -2.8121
        67                         -0.0026358              -0.0717
        68                          0.0157627               0.4289
        69                          0.0230200               0.6264
        70                          0.0256442               0.6978
        71                          0.0453039               1.2328
       ...                                ...                  ...
       119                          0.7248678              19.7247
      -------------------------------------------------------------
                  HL-Gap            0.1114533 Eh            3.0328 eV
             Fermi-level           -0.2957640 Eh           -8.0481 eV

     #   Z          covCN         q      C6AA      α(0)
     1  14 Si       3.475     0.566    99.977    19.408
     2   6 C        3.649    -0.208    24.989     7.182
     3   1 H        0.925     0.049     2.332     2.388
     4   1 H        0.925     0.036     2.506     2.476
     5   1 H        0.925     0.044     2.396     2.421
     6   6 C        3.651    -0.209    25.011     7.183
     7   1 H        0.925     0.047     2.359     2.402
     8   1 H        0.925     0.029     2.599     2.521
     9   1 H        0.925     0.061     2.193     2.316
    10   6 C        3.648    -0.204    24.903     7.169
    11   8 O        0.858    -0.404    21.756     6.254
    12   1 H        0.925     0.040     2.451     2.448
    13   1 H        0.925     0.040     2.449     2.447
    14   1 H        0.925     0.037     2.495     2.470
    15   6 C        2.833     0.224    23.289     7.908
    16   6 C        3.800    -0.089    22.193     6.708
    17   1 H        0.924     0.065     2.145     2.290
    18   1 H        0.924     0.052     2.290     2.366
    19   6 C        3.064    -0.103    30.534     9.061
    20   6 C        2.829     0.296    21.990     7.684
    21   8 O        1.625    -0.313    19.249     5.922
    22   6 C        3.925    -0.018    20.835     6.487
    23   6 C        2.945    -0.012    28.325     8.729
    24   6 C        3.862    -0.019    20.866     6.496
    25   6 C        3.809    -0.054    21.540     6.606
    26   8 O        1.701    -0.292    18.859     5.863
    27   6 C        3.808    -0.059    21.626     6.620
    28   6 C        3.807    -0.054    21.539     6.607
    29   1 H        0.924     0.044     2.398     2.421
    30   1 H        0.924     0.031     2.570     2.507
    31   6 C        3.806    -0.055    21.557     6.610
    32   1 H        0.924     0.033     2.540     2.492
    33   1 H        0.924     0.034     2.534     2.490
    34   1 H        0.924     0.029     2.599     2.521
    35   1 H        0.924     0.033     2.544     2.494
    36   1 H        0.924     0.029     2.597     2.520
    37   1 H        0.924     0.038     2.479     2.462
    38   6 C        3.829    -0.060    21.636     6.618
    39   6 C        3.113    -0.042    28.889     8.805
    40   1 H        0.925     0.043     2.413     2.429
    41   6 C        3.811     0.113    18.728     6.160
    42   6 C        3.835    -0.065    21.714     6.630
    43   1 H        0.925     0.042     2.423     2.434
    44   1 H        0.925     0.047     2.357     2.401
    45   1 H        0.924     0.043     2.412     2.429
    46   1 H        0.925     0.038     2.481     2.463
    47   1 H        0.924     0.041     2.431     2.438
    48   1 H        0.924     0.037     2.487     2.466

 Mol. C6AA /au·bohr⁶  :      22546.464428
 Mol. C8AA /au·bohr⁸  :     560293.805208
 Mol. α(0) /au        :        230.224209


Wiberg/Mayer (AO) data.
largest (>0.10) Wiberg bond orders for each atom

 ---------------------------------------------------------------------------
     #   Z sym  total        # sym  WBO       # sym  WBO       # sym  WBO
 ---------------------------------------------------------------------------
     1  14 Si   3.741 --    21 O    0.913     6 C    0.900     2 C    0.899
                            10 C    0.895
     2   6 C    3.983 --     4 H    0.992     3 H    0.983     5 H    0.982
                             1 Si   0.899
     3   1 H    0.998 --     2 C    0.983
     4   1 H    0.998 --     2 C    0.992
     5   1 H    0.998 --     2 C    0.982
     6   6 C    3.984 --     8 H    0.996     7 H    0.984     9 H    0.981
                             1 Si   0.900
     7   1 H    0.998 --     6 C    0.984
     8   1 H    0.999 --     6 C    0.996
     9   1 H    0.996 --     6 C    0.981
    10   6 C    3.983 --    14 H    0.991    12 H    0.985    13 H    0.983
                             1 Si   0.895
    11   8 O    2.043 --    15 C    1.753
    12   1 H    0.998 --    10 C    0.985
    13   1 H    0.998 --    10 C    0.983
    14   1 H    0.998 --    10 C    0.991
    15   6 C    3.942 --    11 O    1.753    19 C    1.102    16 C    0.958
    16   6 C    3.989 --    17 H    0.967    24 C    0.966    15 C    0.958
                            18 H    0.954
    17   1 H    0.996 --    16 C    0.967
    18   1 H    0.997 --    16 C    0.954
    19   6 C    3.914 --    20 C    1.467    15 C    1.102    22 C    0.959
    20   6 C    3.911 --    19 C    1.467    21 O    1.174    26 O    1.082
    21   8 O    2.372 --    20 C    1.174     1 Si   0.913
    22   6 C    3.991 --    38 C    0.993    39 C    0.975    40 H    0.962
                            19 C    0.959
    23   6 C    3.982 --    39 C    1.807    25 C    1.012    24 C    0.998
    24   6 C    3.994 --    23 C    0.998    27 C    0.994    16 C    0.966
                            48 H    0.958
    25   6 C    3.998 --    23 C    1.012    28 C    1.005    30 H    0.970
                            29 H    0.952
    26   8 O    2.247 --    20 C    1.082    41 C    0.910
    27   6 C    3.996 --    31 C    1.010    24 C    0.994    32 H    0.977
                            33 H    0.976
    28   6 C    3.997 --    31 C    1.009    25 C    1.005    34 H    0.978
                            35 H    0.977
    29   1 H    0.998 --    25 C    0.952
    30   1 H    0.999 --    25 C    0.970
    31   6 C    3.998 --    27 C    1.010    28 C    1.009    36 H    0.977
                            37 H    0.975
    32   1 H    0.998 --    27 C    0.977
    33   1 H    0.998 --    27 C    0.976
    34   1 H    0.999 --    28 C    0.978
    35   1 H    0.999 --    28 C    0.977
    36   1 H    0.999 --    31 C    0.977
    37   1 H    0.999 --    31 C    0.975
    38   6 C    3.996 --    42 C    1.002    22 C    0.993    46 H    0.982
                            45 H    0.979
    39   6 C    3.965 --    23 C    1.807    41 C    0.990    22 C    0.975
    40   1 H    0.998 --    22 C    0.962
    41   6 C    3.928 --    39 C    0.990    42 C    0.989    47 H    0.960
                            26 O    0.910
    42   6 C    3.994 --    38 C    1.002    41 C    0.989    44 H    0.978
                            43 H    0.977
    43   1 H    0.998 --    42 C    0.977
    44   1 H    0.997 --    42 C    0.978
    45   1 H    0.998 --    38 C    0.979
    46   1 H    0.998 --    38 C    0.982
    47   1 H    0.998 --    41 C    0.960
    48   1 H    0.998 --    24 C    0.958
 ---------------------------------------------------------------------------

Topologies differ in total number of bonds
Writing topology from bond orders to xtbtopo.mol

molecular dipole:
                 x           y           z       tot (Debye)
 q only:        0.762       1.148       0.529
   full:        1.035       1.269       0.520       4.368
molecular quadrupole (traceless):
                xx          xy          yy          xz          yz          zz
 q only:        6.206      -7.724      -5.794      -5.044      -4.026      -0.412
  q+dip:        3.155      -9.572      -4.438      -4.833      -4.934       1.283
   full:        3.981      -9.041      -5.527      -5.290      -4.388       1.546

           -------------------------------------------------
          |                Geometry Summary                 |
           -------------------------------------------------

      molecular mass/u    :      318.4834192
   center of mass at/Å    :       -0.0274813       0.0374795      -0.1577721
  moments of inertia/u·Å² :        0.1289715E+04   0.2316368E+04   0.2611923E+04
rotational constants/cm⁻¹ :        0.1307082E-01   0.7277615E-02   0.6454107E-02

 * 43 selected distances

     #   Z          #   Z                                           value/Å
     1  14 Si       2   6 C                                       1.9055257
     2   6 C        3   1 H                                       1.0862746
     2   6 C        4   1 H                                       1.0851999
     2   6 C        5   1 H                                       1.0867583
     1  14 Si       6   6 C                                       1.8944301
     6   6 C        7   1 H                                       1.0854437
     6   6 C        8   1 H                                       1.0850060 (min)
     6   6 C        9   1 H                                       1.0855782
     1  14 Si      10   6 C                                       1.9070798 (max)
    10   6 C       12   1 H                                       1.0867694
    10   6 C       13   1 H                                       1.0871638
    10   6 C       14   1 H                                       1.0852461
    11   8 O       15   6 C                                       1.2153789
    16   6 C       17   1 H                                       1.0927936
    16   6 C       18   1 H                                       1.0936288
    19   6 C       20   6 C                                       1.3708823
     1  14 Si      21   8 O                                       1.6687952
    20   6 C       21   8 O                                       1.3050745
    20   6 C       26   8 O                                       1.3514444
    24   6 C       27   6 C                                       1.5351432
    25   6 C       28   6 C                                       1.5245016
    25   6 C       29   1 H                                       1.0969194
    25   6 C       30   1 H                                       1.0922563
    27   6 C       31   6 C                                       1.5223179
    28   6 C       31   6 C                                       1.5228361
    27   6 C       32   1 H                                       1.0931930
    27   6 C       33   1 H                                       1.0917630
    28   6 C       34   1 H                                       1.0917746
    28   6 C       35   1 H                                       1.0924611
    31   6 C       36   1 H                                       1.0916703
    31   6 C       37   1 H                                       1.0917772
    22   6 C       38   6 C                                       1.5358020
    23   6 C       39   6 C                                       1.3335148
    22   6 C       40   1 H                                       1.0850960
    26   8 O       41   6 C                                       1.4502064
    38   6 C       42   6 C                                       1.5365671
    41   6 C       42   6 C                                       1.5276051
    42   6 C       43   1 H                                       1.0901199
    42   6 C       44   1 H                                       1.0883535
    38   6 C       45   1 H                                       1.0902782
    38   6 C       46   1 H                                       1.0892009
    41   6 C       47   1 H                                       1.0906530
    24   6 C       48   1 H                                       1.0955976

 * 5 distinct bonds (by element types)

   Z      Z             #   av. dist./Å        max./Å        min./Å
   1 H    6 C          26     1.0896529     1.0969194     1.0850060
   6 C    6 C           9     1.4899078     1.5365671     1.3335148
   6 C    8 O           4     1.3305261     1.4502064     1.2153789
   6 C   14 Si          3     1.9023452     1.9070798     1.8944301
   8 O   14 Si          1     1.6687952     1.6687952     1.6687952


optimized geometry written to: xtbopt.xyz


           -------------------------------------------------
          | TOTAL ENERGY              -65.771258051239 Eh   |
          | GRADIENT NORM               0.000775301638 Eh/α |
          | HOMO-LUMO GAP               3.032799733166 eV   |
           -------------------------------------------------

------------------------------------------------------------------------
 * finished run on 2021/09/05 at 21:28:19.107     
------------------------------------------------------------------------
 total:
 * wall-time:     0 d,  0 h,  0 min,  2.651 sec
 *  cpu-time:     0 d,  0 h,  0 min,  5.217 sec
 * ratio c/w:     1.968 speedup
 SCF:
 * wall-time:     0 d,  0 h,  0 min,  0.085 sec
 *  cpu-time:     0 d,  0 h,  0 min,  0.127 sec
 * ratio c/w:     1.498 speedup
 ANC optimizer:
 * wall-time:     0 d,  0 h,  0 min,  2.533 sec
 *  cpu-time:     0 d,  0 h,  0 min,  5.035 sec
 * ratio c/w:     1.988 speedup

