48
 energy: -65.737341381853 gnorm: 0.130970622973 xtb: 6.4.0 (d4b70c2)
Si       -3.28380000000000    0.80295000000000    0.16989000000000
C        -3.88548000000000    2.09822000000000   -1.03472000000000
H        -3.05408000000000    2.78934000000000   -1.28373000000000
H        -4.71962000000000    2.67022000000000   -0.57862000000000
H        -4.24124000000000    1.60031000000000   -1.96052000000000
C        -4.69222000000000   -0.35152000000000    0.57785000000000
H        -5.04787000000000   -0.84340000000000   -0.35076000000000
H        -5.52294000000000    0.22643000000000    1.03280000000000
H        -4.34123000000000   -1.12215000000000    1.29467000000000
C        -2.70448000000000    1.62838000000000    1.74495000000000
O        -0.96383000000000   -2.41052000000000   -1.60379000000000
H        -1.88165000000000    2.33782000000000    1.52463000000000
H        -2.34819000000000    0.85705000000000    2.45788000000000
H        -3.55107000000000    2.18630000000000    2.19605000000000
C         0.06495000000000   -1.79024000000000   -1.37993000000000
C         1.15922000000000   -2.44925000000000   -0.51328000000000
H         0.64046000000000   -2.73709000000000    0.42478000000000
H         1.48363000000000   -3.38775000000000   -1.01249000000000
C         0.11237000000000   -0.32744000000000   -1.57099000000000
C        -0.84616000000000    0.43521000000000   -0.95425000000000
O        -2.02778000000000   -0.09230000000000   -0.55030000000000
C         1.44801000000000    0.33247000000000   -1.87497000000000
C         2.17916000000000   -0.19883000000000    0.41264000000000
C         2.46083000000000   -1.63363000000000   -0.11322000000000
C         1.99467000000000    0.04047000000000    1.89554000000000
O        -0.46050000000000    1.69754000000000   -0.55647000000000
C         3.34262000000000   -2.42307000000000    0.87650000000000
C         2.92231000000000   -0.83182000000000    2.74638000000000
H         0.93961000000000   -0.21280000000000    2.13815000000000
H         2.16647000000000    1.10463000000000    2.16231000000000
C         2.85254000000000   -2.30492000000000    2.32405000000000
H         4.37396000000000   -2.00327000000000    0.84702000000000
H         3.41843000000000   -3.48630000000000    0.56024000000000
H         2.64611000000000   -0.72366000000000    3.81730000000000
H         3.96988000000000   -0.47492000000000    2.62846000000000
H         3.52863000000000   -2.89579000000000    2.97922000000000
H         1.82224000000000   -2.70324000000000    2.43867000000000
C         1.33443000000000    1.69200000000000   -2.61882000000000
C         1.71721000000000    0.70808000000000   -0.48974000000000
H         2.13163000000000   -0.34328000000000   -2.42563000000000
C         0.90526000000000    1.99056000000000   -0.31005000000000
C         1.40992000000000    2.75382000000000   -1.50868000000000
H         2.48054000000000    2.99353000000000   -1.30656000000000
H         0.88209000000000    3.70019000000000   -1.75116000000000
H         0.36977000000000    1.71912000000000   -3.17235000000000
H         2.16208000000000    1.87966000000000   -3.33621000000000
H         1.03640000000000    2.50254000000000    0.66551000000000
H         3.09197000000000   -1.57576000000000   -1.02325000000000
48
 energy: -65.760802520331 gnorm: 0.051869902225 xtb: 6.4.0 (d4b70c2)
Si       -3.26167656755281    0.81201966366093    0.16119775469085
C        -3.88202199622056    2.11179780253774   -1.05180292740087
H        -3.08328953319065    2.80766795310582   -1.31057787616466
H        -4.70556080330613    2.68106382546805   -0.61891518134653
H        -4.24084166731794    1.64263914628990   -1.96964760140862
C        -4.67353088137960   -0.36940091067609    0.56779146506791
H        -5.05623332600153   -0.86511409829012   -0.32446494632866
H        -5.49781249451812    0.18904031223155    1.01573787566411
H        -4.37098389135921   -1.13835251090630    1.27943424006380
C        -2.69039397883445    1.63473779666272    1.75882751624833
O        -0.93407037965323   -2.44074324057279   -1.60931836238126
H        -1.88192059519691    2.33983141530563    1.56613720916539
H        -2.33799993532078    0.89341319180423    2.47812285298631
H        -3.51477553881577    2.18322138083068    2.21702279353727
C         0.05074125220513   -1.78124001906226   -1.33615400532484
C         1.18111369168545   -2.41760397330583   -0.50629448763351
H         0.65954028132346   -2.72777427110162    0.41017607391257
H         1.48853952641643   -3.34644107669714   -1.00758858492644
C         0.11163581069252   -0.33107396936471   -1.57743238289036
C        -0.82408612949904    0.42860546428463   -0.94034684653742
O        -2.00381207032779   -0.06496602161904   -0.55436053633218
C         1.43918447811527    0.34376204109516   -1.88682741344030
C         2.13005204814120   -0.22631039471811    0.42029069530523
C         2.47114766829775   -1.62313704409116   -0.11280662837158
C         1.99511815897596    0.01605052909448    1.89993485346344
O        -0.48445986897753    1.69296437934449   -0.53740438810010
C         3.33471388146114   -2.41712008166361    0.88178684502830
C         2.92499487248039   -0.84005562496736    2.75353417867668
H         0.94981762545866   -0.21602716179639    2.15424121670866
H         2.15965690474865    1.07564989405452    2.13861083441330
C         2.86021220550841   -2.30349078567079    2.32719099203225
H         4.35602808627306   -2.01057590541797    0.84048585537560
H         3.39827366607784   -3.46775138444341    0.56797377957675
H         2.65381866917535   -0.72976336946964    3.81108047230845
H         3.95707786928281   -0.48268257174415    2.63464436865319
H         3.51517120182610   -2.89957127954467    2.97551861246468
H         1.83966035118997   -2.68950099435819    2.43572327743324
C         1.32978627641255    1.69639817210400   -2.63162702273015
C         1.70819844693652    0.68121000540450   -0.46891845815734
H         2.11595075176616   -0.33858745359768   -2.40692630879471
C         0.90678497852473    1.96411597484583   -0.32214869679592
C         1.42109627289902    2.74982957830395   -1.51711413937930
H         2.47308311088211    3.00851036209453   -1.32537208815759
H         0.87470212493286    3.67241413236567   -1.74058826236713
H         0.37802331062742    1.74486889657878   -3.17285361688094
H         2.14475690107646    1.84415823645807   -3.34853986889553
H         1.01416076194342    2.47236316891105    0.64514724827587
H         3.07568847213529   -1.53515917975788   -1.02758038030628
48
 energy: -65.766424867379 gnorm: 0.016505684040 xtb: 6.4.0 (d4b70c2)
Si       -3.24657031690894    0.83076723843405    0.15968128898423
C        -3.87736282619299    2.13243790181911   -1.06878950726801
H        -3.09462331805373    2.83234949311562   -1.33574601723653
H        -4.69892502506669    2.69791192725089   -0.64672618257375
H        -4.23387413119724    1.66878120581556   -1.98155344797483
C        -4.64683953604519   -0.38933751141612    0.55385302991201
H        -5.03036887191677   -0.88334938949853   -0.32886331065367
H        -5.46686284936953    0.16514200459575    0.99757177650555
H        -4.35518047087089   -1.15516048423429    1.26089126121943
C        -2.67571866707236    1.64693183735529    1.77815388443850
O        -0.90808236783197   -2.47085425093634   -1.59913122342191
H        -1.87228395483130    2.35116722521933    1.60165406215340
H        -2.32429189983334    0.91213567222243    2.49372095900659
H        -3.49338387710213    2.18650482417007    2.24013866183390
C         0.05324362798212   -1.78462779229877   -1.33900941576072
C         1.19128764205763   -2.39454692127427   -0.50005552823117
H         0.67606724652023   -2.71096792016758    0.41245677481136
H         1.49321215517976   -3.31531828700691   -1.00554087653433
C         0.10287121154690   -0.33737559502824   -1.59065833890810
C        -0.81018199968173    0.42208180449071   -0.92680037498349
O        -1.99317241543156   -0.03312026101645   -0.55122272740030
C         1.43008399927474    0.33844350982507   -1.89387415322729
C         2.10626092112325   -0.23275919893323    0.43046543858978
C         2.46382309183657   -1.60518719397626   -0.10424090053329
C         1.98532276245591    0.00071053524129    1.90902419032016
O        -0.50089340925619    1.68285806968929   -0.51226183634210
C         3.32901823267016   -2.40890189617492    0.87766649567129
C         2.92802800394512   -0.84460561807204    2.75510555853949
H         0.94984190090890   -0.23087459610366    2.18436564182940
H         2.14705032898755    1.05816043229564    2.12687787093716
C         2.85989720942940   -2.30198766608964    2.32210917867096
H         4.34858974240368   -2.01752912189615    0.82848625039034
H         3.36699645692528   -3.45394713857867    0.56494463540697
H         2.65801261014009   -0.74049796915062    3.80618857088954
H         3.95140129749899   -0.48418208575798    2.63607625146132
H         3.50472662805431   -2.90765966801181    2.96026442812001
H         1.84149820495052   -2.67637624051449    2.42754959703060
C         1.32402643808150    1.68388202723820   -2.63694082139057
C         1.70092340967859    0.66888252996314   -0.45634139260839
H         2.10717427302073   -0.34675572418146   -2.39291058042280
C         0.90883400963365    1.94723911250430   -0.32167182358944
C         1.41677750135530    2.73821609757219   -1.52436784668683
H         2.45565908214996    3.01846164865960   -1.34316727999928
H         0.84041724454890    3.63800675547554   -1.72939904992581
H         0.37588803660581    1.75389026452659   -3.16561493900099
H         2.13010967526033    1.80083602993252   -3.35892440686323
H         0.99624826798584    2.46223036320864    0.63635776108323
H         3.06058472445086   -1.48821598030236   -1.01479158626839
48
 energy: -65.767855968642 gnorm: 0.010065894916 xtb: 6.4.0 (d4b70c2)
Si       -3.23976074152601    0.85427154297963    0.16205146819018
C        -3.87162923641329    2.15510661716084   -1.07687243146851
H        -3.09148518984934    2.85796763807992   -1.34898763360135
H        -4.69803463574238    2.72163331742088   -0.66273118529504
H        -4.22302981807161    1.68397224806238   -1.98923377844662
C        -4.61886321937279   -0.40030041783051    0.53995174326820
H        -4.98748507398182   -0.89455359973187   -0.34951146333843
H        -5.45088790835282    0.13701698129457    0.98475601556392
H        -4.31466043907979   -1.16695417233126    1.24117139554976
C        -2.66578977505941    1.66067839631637    1.79235041635302
O        -0.89480188594893   -2.49862615285528   -1.60009741215513
H        -1.86131895273438    2.36816661014905    1.62543667328237
H        -2.31143858190066    0.91805406302624    2.50006339455149
H        -3.48255426844328    2.19509785136509    2.26454357658139
C         0.04645072451229   -1.78753509428575   -1.32648412006770
C         1.19887947297254   -2.38953979864016   -0.49754103766073
H         0.68928882891410   -2.71351523086378    0.41548337379769
H         1.50726550890998   -3.30214731543763   -1.01349451549722
C         0.08967870222550   -0.34243124178116   -1.59412729889974
C        -0.81287618759279    0.42313759724125   -0.92699003521881
O        -1.99961814336323   -0.01069587992874   -0.55104546446756
C         1.42037066286573    0.32843114921549   -1.88801889926070
C         2.08871352693107   -0.23348385294655    0.44426248910743
C         2.46300723974059   -1.59332571467907   -0.10218559321191
C         1.97303609333289   -0.00398304026610    1.92388570065389
O        -0.50549319489195    1.67747817846235   -0.50220647678208
C         3.32608718052340   -2.40798249663847    0.87194561081197
C         2.92907589701579   -0.84785674051006    2.75842155285894
H         0.94369911278889   -0.24676051203697    2.21208759310239
H         2.12865833487185    1.05450322618976    2.13778224269398
C         2.85961739974621   -2.30329433052790    2.31795273078630
H         4.34909948079726   -2.02807731310051    0.81967967659278
H         3.34512232322601   -3.45191908516285    0.55413838491527
H         2.66458373770958   -0.75150469023449    3.81195958745795
H         3.95003905845356   -0.48286337244446    2.63383543353799
H         3.50025358677830   -2.91819924586735    2.95188381218996
H         1.83794134218622   -2.67051835868157    2.41958673499812
C         1.31486634600975    1.66744024676194   -2.63802390280477
C         1.69077272821493    0.66848713478179   -0.44727345423273
H         2.10170715855672   -0.35986632518710   -2.37656223223056
C         0.90975719448933    1.94705398868795   -0.31990839773300
C         1.40331572772572    2.73173340221343   -1.53411340666688
H         2.43711233531570    3.03388037381586   -1.36125442982832
H         0.80100073197828    3.61526860392390   -1.73632263484356
H         0.36536884784575    1.74004531728875   -3.16433338281000
H         2.11817532313889    1.77351856458636   -3.36472443569811
H         0.99038298217266    2.47100717278431    0.63262149437566
H         3.06165966237489   -1.45412623983854   -1.00880747900124
48
 energy: -65.768718127124 gnorm: 0.006660201812 xtb: 6.4.0 (d4b70c2)
Si       -3.23409736556427    0.88282112041103    0.16625645775749
C        -3.86236556911166    2.18360516553515   -1.08014542882768
H        -3.08132996944049    2.88714546191141   -1.35385543484280
H        -4.69482078053295    2.75302831372463   -0.67782569594990
H        -4.20545601660165    1.70302742524824   -1.99317529381886
C        -4.58454185823908   -0.40951025532982    0.52217437742490
H        -4.92610592585283   -0.90513879905147   -0.37962351838975
H        -5.44053020566535    0.09207277972459    0.96901904831616
H        -4.25641865875595   -1.17755420688222    1.21367962601837
C        -2.65709111076004    1.67755619943886    1.80563426105898
O        -0.88834675467474   -2.51878087055936   -1.59886084328166
H        -1.85243280051856    2.38914515871699    1.64664571850775
H        -2.29737078402694    0.92349148043918    2.50162615211317
H        -3.47259779924626    2.20511972191970    2.29155326494975
C         0.04271511473083   -1.79573836203270   -1.33200504593678
C         1.20195203064978   -2.38669133988067   -0.50196913526097
H         0.69799169493345   -2.71824713520534    0.41185103321904
H         1.51831266741278   -3.29310859377151   -1.02451241203235
C         0.07742317295335   -0.35015395517865   -1.58987586643714
C        -0.81682761554476    0.42109237699080   -0.91835554230824
O        -2.01211457619307    0.00819551018317   -0.54851641402180
C         1.41003141240929    0.31834600592422   -1.87634877258139
C         2.07660894196081   -0.23004719744972    0.45866321228876
C         2.45861200099842   -1.58431084956625   -0.09541818232615
C         1.96208182498290   -0.00785392948290    1.93957527279213
O        -0.50864171036848    1.67167423252557   -0.49017190702268
C         3.32263932263025   -2.40918964054816    0.86931012018485
C         2.93099296993432   -0.85137058562387    2.76254688100854
H         0.93792056614432   -0.26538628519449    2.23492998019401
H         2.10622564937358    1.05137890407511    2.15858918073309
C         2.85894436145820   -2.30557845341893    2.31650153505149
H         4.35098851289085   -2.04309916326479    0.81379883250908
H         3.32489257296352   -3.45232193897310    0.54647488107307
H         2.67639660701075   -0.76299764552440    3.82063233603247
H         3.94999161090633   -0.48134665191204    2.62972355835427
H         3.49639909431316   -2.92748921933452    2.94794362008459
H         1.83411252251613   -2.66811538394746    2.41498081704813
C         1.29997635353469    1.64890051864295   -2.63849434357557
C         1.68337878450339    0.67296642190930   -0.43739684070625
H         2.09472760161223   -0.37072524427170   -2.35990143906474
C         0.90959981509245    1.95120263573565   -0.31835627293792
C         1.38094882400684    2.72723462478777   -1.54720168632007
H         2.40960170928238    3.05761593756763   -1.38844344391031
H         0.75219545081238    3.59246899924094   -1.75249247862553
H         0.34939842933723    1.71169066479818   -3.16671345610332
H         2.10168282884467    1.75024382153081   -3.36837685765097
H         0.98827027532879    2.48744154652251    0.62728294616320
H         3.06133677756892   -1.42881932110032   -0.99635680095055
48
 energy: -65.769121877504 gnorm: 0.007475032097 xtb: 6.4.0 (d4b70c2)
Si       -3.23185955953817    0.90343228537685    0.17047823605939
C        -3.85258299967808    2.20756422797025   -1.07569994462255
H        -3.06787977217096    2.90944882964337   -1.34453039316511
H        -4.68796623188826    2.77821138255828   -0.68092829926833
H        -4.18821409987789    1.72411666779241   -1.99096926746495
C        -4.55746356935045   -0.41569579022657    0.50715123168921
H        -4.87259877054330   -0.91101110350671   -0.40618588444100
H        -5.43369429159637    0.05098529256258    0.95442403914051
H        -4.20579826544796   -1.18351538499007    1.18955117321730
C        -2.65255189616376    1.69048376589950    1.81219863938211
O        -0.88593497978963   -2.53060441802565   -1.60399215398884
H        -1.85068633331894    2.40609163191858    1.65531639624216
H        -2.28626648638827    0.92945882713805    2.49849447622781
H        -3.46766563191581    2.21052442670323    2.30752729173487
C         0.03735776354145   -1.80031807267614   -1.32839999194124
C         1.20332276343998   -2.38952365057875   -0.50531335742603
H         0.70177165155118   -2.73337621246057    0.40588667346883
H         1.52897660645946   -3.28898729950418   -1.03555311461185
C         0.06964101204626   -0.35447048464599   -1.57919331119826
C        -0.82379454995811    0.42197379995603   -0.91381439115664
O        -2.02376940575365    0.01860064766523   -0.54859869016788
C         1.40315518359221    0.31253022617552   -1.86508113072313
C         2.07185805383563   -0.22582010879442    0.46647499340225
C         2.45516046441890   -1.58036409249399   -0.09083099276790
C         1.95592878383366   -0.01117241516956    1.94837076254658
O        -0.51207608945237    1.66966673743801   -0.48175088163892
C         3.31739633950895   -2.41142429344067    0.87044848199016
C         2.93224819322537   -0.85363693110153    2.76459113475355
H         0.93427541893701   -0.28094172607756    2.24280914122242
H         2.08938938745872    1.04807698967447    2.17698836525784
C         2.85752790956269   -2.30785051984748    2.31867328790610
H         4.34860561153217   -2.05317140438205    0.81245175986427
H         3.31289956686241   -3.45401515688548    0.54570588457217
H         2.68682154481597   -0.76713604605860    3.82561173283347
H         3.95003014704878   -0.48169255169607    2.62390719859292
H         3.49470007081893   -2.93074055594722    2.94966287779418
H         1.83183895609234   -2.66930912656648    2.41802406524549
C         1.28686026582103    1.63588914524947   -2.63915749347398
C         1.68080576777207    0.67885315933219   -0.43066479352760
H         2.08863029374319   -0.37729851664486   -2.34731165622265
C         0.90644595802539    1.95626050310575   -0.31809216125015
C         1.35823967412899    2.72535299513303   -1.55816110150162
H         2.38214368844201    3.07638227582286   -1.41275192023087
H         0.71342535387649    3.57743842232362   -1.76798435506004
H         0.33648156831052    1.68380920040081   -3.17145628038583
H         2.08957212223598    1.73770611117018   -3.36826957251937
H         0.98821853184119    2.50229476432509    0.62202623503928
H         3.06233428005287   -1.41918645361477   -0.98708293942827
48
 energy: -65.769343814653 gnorm: 0.005580783938 xtb: 6.4.0 (d4b70c2)
Si       -3.23066382062604    0.91468275210816    0.17422748322607
C        -3.84179524704071    2.22654878045268   -1.06617400389147
H        -3.05296410757905    2.92729923213223   -1.32534191545085
H        -4.67784789415552    2.79716171814646   -0.67474394295927
H        -4.17184516584336    1.74889583934352   -1.98626207489030
C        -4.53757234172836   -0.42251791277162    0.49421170038844
H        -4.83262601812452   -0.91622451693322   -0.42680169369157
H        -5.42665601584832    0.01641609737071    0.93945777951929
H        -4.17046998134273   -1.18914458725684    1.17018883230957
C        -2.65085941556483    1.69853203503499    1.81484318566038
O        -0.88761247944560   -2.53230388904042   -1.60767955506866
H        -1.85454742871529    2.41962638828420    1.65704348515937
H        -2.27658418831206    0.93714750904932    2.49592630725576
H        -3.46687628640398    2.21081379461682    2.31547572480950
C         0.03498409360656   -1.80363689787436   -1.32935709536455
C         1.20237227406724   -2.39215935723603   -0.50858221767615
H         0.70253681422081   -2.74722916054702    0.39928774471950
H         1.53479371846832   -3.28577228281868   -1.04457539582905
C         0.06699404961273   -0.35692446768275   -1.56846698399828
C        -0.82795183205594    0.42197131731003   -0.90808554666865
O        -2.03020177487503    0.02115320439218   -0.54864658887943
C         1.39989279840003    0.30967346157932   -1.85864822022286
C         2.06878608908662   -0.22424667406653    0.46923056648933
C         2.45212277526018   -1.58115782717930   -0.08721940639900
C         1.95182453085159   -0.01430481903995    1.95161832206803
O        -0.51469052294057    1.66869214557486   -0.47350585175618
C         3.31254178897671   -2.41361426891010    0.87488569290861
C         2.93213264243805   -0.85355671574043    2.76567208057814
H         0.93128107180262   -0.29331438977512    2.24203846048932
H         2.07665769167168    1.04496837521278    2.18733912671897
C         2.85595505650517   -2.30872761804015    2.32365563117427
H         4.34465933898333   -2.05830712741935    0.81553094352866
H         3.30610855244225   -3.45610338872725    0.55018814850438
H         2.69345096598463   -0.76355902354080    3.82775949832008
H         3.94907366031340   -0.48205014808179    2.61759538775793
H         3.49496036301157   -2.92977985769580    2.95443767294818
H         1.83080578297036   -2.67081095077095    2.42644797101031
C         1.27653088722264    1.62772662263822   -2.64108366988526
C         1.68030128433101    0.68238900616462   -0.42783587827096
H         2.08395885468441   -0.38125633446231   -2.34132825680923
C         0.90279036725223    1.96001440006851   -0.31936535279263
C         1.33920597484484    2.72441164961452   -1.56711535896765
H         2.35859329345696    3.09024703044861   -1.43244996525607
H         0.68269044074009    3.56654556125202   -1.77944295869009
H         0.32744006274299    1.66247014788850   -3.17760765124035
H         2.08164582895333    1.73140109201916   -3.36725892020352
H         0.98983442440271    2.51258534489959    0.61669832620185
H         3.06209904329664   -1.42078128999121   -0.98118156688418
48
 energy: -65.769447266984 gnorm: 0.002727644807 xtb: 6.4.0 (d4b70c2)
Si       -3.23010791496850    0.91695828943644    0.17708168321924
C        -3.83278202811879    2.23870412948412   -1.05527550352777
H        -3.04035898544435    2.93936912377012   -1.30295180599362
H        -4.66842120455169    2.80830195027495   -0.66293614515205
H        -4.15922864504851    1.77163761182345   -1.98151498199321
C        -4.52839100735728   -0.42873405300915    0.48569114762534
H        -4.81141927716705   -0.92065890276679   -0.43922519789889
H        -5.42415263032091   -0.00576025768939    0.92781820822219
H        -4.15527763348655   -1.19448119625144    1.15848514723204
C        -2.65150296116548    1.70078697034846    1.81628979872849
O        -0.89025518969697   -2.53067966823423   -1.60944684644662
H        -1.86193173246638    2.42833852558148    1.65599111905493
H        -2.26887609631830    0.94301941083834    2.49578895291756
H        -3.46972180149920    2.20626046367035    2.31924582362008
C         0.03356048903505   -1.80445684640636   -1.32728888527437
C         1.20164278402517   -2.39550064483062   -0.51032802984570
H         0.70309491432978   -2.75841970381884    0.39477462852444
H         1.53680890564459   -3.28498466919456   -1.05135484571249
C         0.06735548714777   -0.35741808769353   -1.56263142583489
C        -0.82923760967803    0.42189966393998   -0.90522979896173
O        -2.03090092623037    0.01916483592884   -0.54854102721373
C         1.39978450893617    0.30844091480952   -1.85796861478858
C         2.06830598735048   -0.22385190947143    0.46821664086550
C         2.44962548265300   -1.58301973808111   -0.08549300328457
C         1.94860771480407   -0.01570691312749    1.95038127069738
O        -0.51568935534780    1.66808041207060   -0.46776952065641
C         3.30848365274352   -2.41452149324996    0.87930872777142
C         2.93065297503477   -0.85091046646084    2.76545298143416
H         0.92845529994578   -0.29989733474634    2.23732340132627
H         2.06794341925015    1.04366232729233    2.18797582763278
C         2.85400493919299   -2.30743610030237    2.32838258313094
H         4.34049534255254   -2.05926667121221    0.81957095498942
H         3.30242828479475   -3.45751181347821    0.55628031233617
H         2.69489194745020   -0.75600097856446    3.82731145530254
H         3.94703277171912   -0.48033101542470    2.61281738949684
H         3.49548257526644   -2.92593744857798    2.95904780226736
H         1.82989995751719   -2.67070183050122    2.43517086913766
C         1.27274750669724    1.62374270633611   -2.64411133089437
C         1.68186404881359    0.68324971548787   -0.42886843758832
H         2.08190385992588   -0.38395431553637   -2.34092256344568
C         0.90051287413450    1.96074424899199   -0.32174627822153
C         1.32891723203193    2.72325294191246   -1.57293901645152
H         2.34477556988238    3.09816207642395   -1.44354026538690
H         0.66479615702042    3.55906489107547   -1.78558295246120
H         0.32552008305132    1.65174217820101   -3.18360022608340
H         2.08004757112788    1.72903731752557   -3.36744313413563
H         0.99261992010921    2.51603890611217    0.61225751647724
H         3.06125273667795   -1.42562755270596   -0.97895440475719
48
 energy: -65.769507871816 gnorm: 0.001931585709 xtb: 6.4.0 (d4b70c2)
Si       -3.22960009355936    0.91578464198388    0.18005770348802
C        -3.82426702577013    2.24860359649713   -1.04395988146510
H        -3.02875736850496    2.95017837588651   -1.27913742987822
H        -4.65987990755333    2.81635613345783   -0.64906096862665
H        -4.14730513023183    1.79386286299931   -1.97716664618627
C        -4.52409775920226   -0.43568008502618    0.47842371607549
H        -4.79757024161078   -0.92630983126629   -0.44968010731727
H        -5.42517966745383   -0.02232970670467    0.91662242491609
H        -4.14921422166252   -1.20126612565438    1.14990880821165
C        -2.65300978360272    1.70014390415061    1.81919715450437
O        -0.89441655124021   -2.52766278533609   -1.60630634633123
H        -1.87125721503034    2.43565429163744    1.65640637547313
H        -2.26086964508300    0.94691823319702    2.49778277127853
H        -3.47453360543668    2.19803959575122    2.32424882514027
C         0.03247303748313   -1.80465679938300   -1.32605176826169
C         1.20078199975940   -2.39743482175152   -0.51136222324297
H         0.70360700477306   -2.76575133619309    0.39192808324766
H         1.53696439412166   -3.28378769569866   -1.05647618598270
C         0.06811785508247   -0.35760566310962   -1.56145464140340
C        -0.82824247024117    0.42116627821103   -0.90286914434453
O        -2.02888003730690    0.01649327594103   -0.54700544964220
C         1.40052271648367    0.30689695965387   -1.86076812713002
C         2.06669677377662   -0.22523036670786    0.46603370926352
C         2.44827007152663   -1.58530454301168   -0.08511951175869
C         1.94433505625462   -0.01597902040664    1.94767012321534
O        -0.51478138788063    1.66689070905915   -0.46300067505135
C         3.30554800358679   -2.41494330104593    0.88310596061470
C         2.92796816439683   -0.84666117096129    2.76484370172664
H         0.92475586920083   -0.30386562248387    2.23284400299340
H         2.05929447547829    1.04391265944213    2.18381092309514
C         2.85202370508339   -2.30454685871523    2.33229443815970
H         4.33745093096994   -2.05957047596739    0.82320323400008
H         3.29960536386678   -3.45871388339591    0.56253952845884
H         2.69332431701417   -0.74750914676176    3.82629442032570
H         3.94371916759273   -0.47618004115397    2.60925482481036
H         3.49542096606416   -2.92059822565093    2.96342558588747
H         1.82874076963517   -2.66868236399772    2.44223584415239
C         1.27250018719484    1.62087272355119   -2.64808641985944
C         1.68316135106289    0.68188397948635   -0.43193904388429
H         2.08090848257778   -0.38722078926688   -2.34337039207323
C         0.90040450904419    1.95984177603533   -0.32482345687143
C         1.32352873428947    2.72181267732244   -1.57813761182503
H         2.33638154125077    3.10424951172185   -1.45111565087774
H         0.65291230906398    3.55242378891057   -1.79054751146338
H         0.32726317228651    1.64620801671826   -3.19028310169156
H         2.08186203460493    1.72692916559690   -3.36890326752225
H         0.99723254061685    2.51647419182896    0.60794789615718
H         3.06134660722768   -1.43021668938938   -0.97845449250542
48
 energy: -65.769564682321 gnorm: 0.003004673941 xtb: 6.4.0 (d4b70c2)
Si       -3.22852675314953    0.91119842374471    0.18518945987882
C        -3.81084859456609    2.26302199401998   -1.02485023659880
H        -3.01099936832448    2.96697745745861   -1.23882651693586
H        -4.64758059887133    2.82657616056187   -0.62533956505167
H        -4.12746454324303    1.82860719486722   -1.96966291699849