      -----------------------------------------------------------      
     |                   =====================                   |     
     |                           x T B                           |     
     |                   =====================                   |     
     |                         S. Grimme                         |     
     |          Mulliken Center for Theoretical Chemistry        |     
     |                    University of Bonn                     |     
      -----------------------------------------------------------      

   * xtb version 6.4.0 (d4b70c2) compiled by 'ehlert@majestix' on 2021-02-01

   xtb is free software: you can redistribute it and/or modify it under
   the terms of the GNU Lesser General Public License as published by
   the Free Software Foundation, either version 3 of the License, or
   (at your option) any later version.
   
   xtb is distributed in the hope that it will be useful,
   but WITHOUT ANY WARRANTY; without even the implied warranty of
   MERCHANTABILITY or FITNESS FOR A PARTICULAR PURPOSE.  See the
   GNU Lesser General Public License for more details.
   
   Cite this work as:
   * C. Bannwarth, E. Caldeweyher, S. Ehlert, A. Hansen, P. Pracht,
     J. Seibert, S. Spicher, S. Grimme, WIREs Comput. Mol. Sci., 2020,
     e01493. DOI: 10.1002/wcms.1493
   
   for GFN2-xTB:
   * C. Bannwarth, S. Ehlert and S. Grimme., J. Chem. Theory Comput., 2019,
     15, 1652-1671. DOI: 10.1021/acs.jctc.8b01176
   for GFN1-xTB:
   * S. Grimme, C. Bannwarth, P. Shushkov, J. Chem. Theory Comput., 2017,
     13, 1989-2009. DOI: 10.1021/acs.jctc.7b00118
   for GFN0-xTB:
   * P. Pracht, E. Caldeweyher, S. Ehlert, S. Grimme, ChemRxiv, 2019, preprint.
     DOI: 10.26434/chemrxiv.8326202.v1
   for GFN-FF:
   * S. Spicher and S. Grimme, Angew. Chem. Int. Ed., 2020, 59, 15665-15673.
     DOI: 10.1002/anie.202004239
   
   for DFT-D4:
   * E. Caldeweyher, C. Bannwarth and S. Grimme, J. Chem. Phys., 2017,
     147, 034112. DOI: 10.1063/1.4993215
   * E. Caldeweyher, S. Ehlert, A. Hansen, H. Neugebauer, S. Spicher,
     C. Bannwarth and S. Grimme, J. Chem. Phys., 2019, 150, 154122.
     DOI: 10.1063/1.5090222
   * E. Caldeweyher, J.-M. Mewes, S. Ehlert and S. Grimme, Phys. Chem. Chem. Phys.
     2020, 22, 8499-8512. DOI: 10.1039/D0CP00502A
   
   for sTDA-xTB:
   * S. Grimme and C. Bannwarth, J. Chem. Phys., 2016, 145, 054103.
     DOI: 10.1063/1.4959605
   
   in the mass-spec context:
   * V. Asgeirsson, C. Bauer and S. Grimme, Chem. Sci., 2017, 8, 4879.
     DOI: 10.1039/c7sc00601b
   * J. Koopman and S. Grimme, ACS Omega 2019, 4, 12, 15120-15133.
     DOI: 10.1021/acsomega.9b02011
   
   for metadynamics refer to:
   * S. Grimme, J. Chem. Theory Comput., 2019, 155, 2847-2862
     DOI: 10.1021/acs.jctc.9b00143
   
   with help from (in alphabetical order)
   P. Atkinson, C. Bannwarth, F. Bohle, G. Brandenburg, E. Caldeweyher
   M. Checinski, S. Dohm, S. Ehlert, S. Ehrlich, I. Gerasimov, J. Koopman
   C. Lavinge, S. Lehtola, F. März, M. Müller, F. Musil, H. Neugebauer
   J. Pisarek, P. Pracht, J. Seibert, P. Shushkov, S. Spicher, M. Stahn
   T. Strunk, J. Stückrath, T. Rose, and J. Unsleber
   
 * started run on 2021/09/05 at 21:28:15.658     

           -------------------------------------------------
          |                Calculation Setup                |
           -------------------------------------------------

          program call               : xtb -c 0 -u 0 -a 1.0 --iterations 100 --opt normal --namespace YZQIKWUVHPSPML-FPMFFAJLSA-N /home/zhao922/bin/Github/YARP/version2.0/CONF_GEN/RCS_paper/IC/opt-folder/YZQIKWUVHPSPML-FPMFFAJLSA-N.xyz
          hostname                   : bell-a001
          calculation namespace      : YZQIKWUVHPSPML-FPMFFAJLSA-N
          coordinate file            : /home/zhao922/bin/Github/YARP/version2.0/CONF_GEN/RCS_paper/IC/opt-folder/YZQIKWUVHPSPML-FPMFFAJLSA-N.xyz
          omp threads                :                     2
          number of atoms            :                    48
          number of electrons        :                   120
          charge                     :                     0
          spin                       :                   0.0
          first test random number   :      0.34559773345283

   ID    Z sym.   atoms
    1   14 Si     1
    2    6 C      2, 6, 10, 15, 16, 19, 20, 22-25, 27, 28, 31, 38, 39, 41, 42
    3    1 H      3-5, 7-9, 12-14, 17, 18, 29, 30, 32-37, 40, 43-48
    4    8 O      11, 21, 26

           -------------------------------------------------
          |                 G F N 2 - x T B                 |
           -------------------------------------------------

        Reference                      10.1021/acs.jctc.8b01176
      * Hamiltonian:
        H0-scaling (s, p, d)           1.850000    2.230000    2.230000
        zeta-weighting                 0.500000
      * Dispersion:
        s8                             2.700000
        a1                             0.520000
        a2                             5.000000
        s9                             5.000000
      * Repulsion:
        kExp                           1.500000    1.000000
        rExp                           1.000000
      * Coulomb:
        alpha                          2.000000
        third order                    shell-resolved
        anisotropic                    true
        a3                             3.000000
        a5                             4.000000
        cn-shift                       1.200000
        cn-exp                         4.000000
        max-rad                        5.000000


          ...................................................
          :                      SETUP                      :
          :.................................................:
          :  # basis functions                 120          :
          :  # atomic orbitals                 119          :
          :  # shells                           71          :
          :  # electrons                       120          :
          :  max. iterations                   100          :
          :  Hamiltonian                  GFN2-xTB          :
          :  restarted?                      false          :
          :  GBSA solvation                  false          :
          :  PC potential                    false          :
          :  electronic temp.          300.0000000     K    :
          :  accuracy                    1.0000000          :
          :  -> integral cutoff          0.2500000E+02      :
          :  -> integral neglect         0.1000000E-07      :
          :  -> SCF convergence          0.1000000E-05 Eh   :
          :  -> wf. convergence          0.1000000E-03 e    :
          :  Broyden damping             0.4000000          :
          ...................................................

 iter      E             dE          RMSdq      gap      omega  full diag
   1    -66.4623508 -0.664624E+02  0.379E+00    3.40       0.0  T
   2    -66.6132879 -0.150937E+00  0.231E+00    3.04       1.0  T
   3    -66.6225033 -0.921539E-02  0.128E+00    3.26       1.0  T
   4    -66.6327677 -0.102645E-01  0.715E-01    3.01       1.0  T
   5    -66.6468601 -0.140924E-01  0.284E-01    3.03       1.0  T
   6    -66.6478503 -0.990122E-03  0.157E-01    3.04       1.0  T
   7    -66.6480289 -0.178645E-03  0.940E-02    3.05       1.0  T
   8    -66.6481308 -0.101855E-03  0.438E-02    3.06       1.0  T
   9    -66.6481409 -0.101674E-04  0.204E-02    3.05       1.0  T
  10    -66.6481525 -0.115320E-04  0.646E-03    3.06       2.2  T
  11    -66.6481525 -0.325021E-07  0.260E-03    3.06       5.6  T
  12    -66.6481525 -0.511393E-07  0.116E-03    3.06      12.5  T
  13    -66.6481525 -0.642190E-08  0.666E-04    3.06      21.7  T
  14    -66.6481525 -0.150384E-08  0.285E-04    3.06      50.7  T

   *** convergence criteria satisfied after 14 iterations ***

         #    Occupation            Energy/Eh            Energy/eV
      -------------------------------------------------------------
         1        2.0000           -0.7619705             -20.7343
       ...           ...                  ...                  ...
        54        2.0000           -0.4249341             -11.5630
        55        2.0000           -0.4205555             -11.4439
        56        2.0000           -0.4038105             -10.9882
        57        2.0000           -0.3963177             -10.7844
        58        2.0000           -0.3848382             -10.4720
        59        2.0000           -0.3787312             -10.3058
        60        2.0000           -0.3567312              -9.7071 (HOMO)
        61                         -0.2444475              -6.6518 (LUMO)
        62                         -0.2178342              -5.9276
        63                         -0.1846363              -5.0242
        64                         -0.1257032              -3.4206
        65                         -0.1054677              -2.8699
       ...                                ...                  ...
       119                          0.7774448              21.1554
      -------------------------------------------------------------
                  HL-Gap            0.1122837 Eh            3.0554 eV
             Fermi-level           -0.3005893 Eh           -8.1795 eV

 SCC (total)                   0 d,  0 h,  0 min,  0.056 sec
 SCC setup                      ...        0 min,  0.001 sec (  0.978%)
 Dispersion                     ...        0 min,  0.001 sec (  0.919%)
 classical contributions        ...        0 min,  0.000 sec (  0.147%)
 integral evaluation            ...        0 min,  0.011 sec ( 20.180%)
 iterations                     ...        0 min,  0.024 sec ( 42.558%)
 molecular gradient             ...        0 min,  0.020 sec ( 34.559%)
 printout                       ...        0 min,  0.000 sec (  0.633%)

         :::::::::::::::::::::::::::::::::::::::::::::::::::::
         ::                     SUMMARY                     ::
         :::::::::::::::::::::::::::::::::::::::::::::::::::::
         :: total energy             -65.783468261030 Eh    ::
         :: gradient norm              0.000029011933 Eh/a0 ::
         :: HOMO-LUMO gap              3.055395421524 eV    ::
         ::.................................................::
         :: SCC energy               -66.648152542926 Eh    ::
         :: -> isotropic ES            0.085823319913 Eh    ::
         :: -> anisotropic ES          0.008280106502 Eh    ::
         :: -> anisotropic XC          0.020702086120 Eh    ::
         :: -> dispersion             -0.054160227268 Eh    ::
         :: repulsion energy           0.863109471724 Eh    ::
         :: add. restraining           0.000000000000 Eh    ::
         :: total charge              -0.000000000000 e     ::
         :::::::::::::::::::::::::::::::::::::::::::::::::::::

      ----------------------------------------------------------- 
     |                   =====================                   |
     |                        A N C O P T                        |
     |                   =====================                   |
     |               Approximate Normal Coordinate               |
     |                Rational Function Optimizer                |
      ----------------------------------------------------------- 

          ...................................................
          :                      SETUP                      :
          :.................................................:
          :   optimization level            normal          :
          :   max. optcycles                   200          :
          :   ANC micro-cycles                  20          :
          :   degrees of freedom               138          :
          :.................................................:
          :   RF solver                   davidson          :
          :   write xtbopt.log                true          :
          :   linear?                        false          :
          :   energy convergence         0.5000000E-05 Eh   :
          :   grad. convergence          0.1000000E-02 Eh/α :
          :   maximium RF displ.         1.0000000          :
          :   Hlow (freq-cutoff)         0.1000000E-01      :
          :   Hmax (freq-cutoff)         5.0000000          :
          :   S6 in model hess.         20.0000000          :
          ...................................................

generating ANC from model Hessian ...
Using Lindh-Hessian (1995)
 Shifting diagonal of input Hessian by   9.734748350266708E-003
 Lowest  eigenvalues of input Hessian
    0.000000    0.000000    0.000000    0.000000    0.000000    0.000000
    0.010000    0.010186    0.010896    0.011477    0.011774    0.012785
    0.012881    0.013744    0.014437    0.015368    0.015827    0.015903
 Highest eigenvalues
    1.469352    1.643734    1.885496    1.909027    2.176956    2.322230
 

........................................................................
.............................. CYCLE    1 ..............................
........................................................................
   1    -66.6481525 -0.666482E+02  0.115E-04    3.06       0.0  T
   2    -66.6481525 -0.269154E-10  0.934E-05    3.06     154.6  T
   3    -66.6481525  0.248122E-10  0.456E-05    3.06     316.5  T
     SCC iter.                  ...        0 min,  0.005 sec
     gradient                   ...        0 min,  0.019 sec
 * total energy  :   -65.7834683 Eh     change       -0.6191669E-09 Eh
   gradient norm :     0.0000294 Eh/α   predicted     0.0000000E+00 (-100.00%)
   displ. norm   :     0.0000441 α      lambda        0.0000000E+00
   maximum displ.:     0.0000324 α      in ANC's #2, #80, #58, ...

   *** GEOMETRY OPTIMIZATION CONVERGED AFTER 1 ITERATIONS ***

------------------------------------------------------------------------
 total energy gain   :        -0.0000000 Eh       -0.0000 kcal/mol
 total RMSD          :         0.0000002 a0        0.0000 Å
 total power (kW/mol):        -0.0000016 (step)   -0.0000 (real)
------------------------------------------------------------------------

 ANCopt (total)                0 d,  0 h,  0 min,  0.073 sec
 optimizer setup                ...        0 min,  0.000 sec (  0.434%)
 model hessian                  ...        0 min,  0.034 sec ( 46.929%)
 ANC generation                 ...        0 min,  0.001 sec (  1.932%)
 coordinate transformation      ...        0 min,  0.000 sec (  0.015%)
 single point calculation       ...        0 min,  0.036 sec ( 49.749%)
 optimization log               ...        0 min,  0.000 sec (  0.563%)
 hessian update                 ...        0 min,  0.000 sec (  0.003%)
 rational function              ...        0 min,  0.000 sec (  0.091%)

================
 final structure:
================
48
 xtb: 6.4.0 (d4b70c2)
Si       -3.01639102000000    0.77173916000000   -0.36449216000000
C        -2.67447390000000    1.07532995000000   -2.20973423000000
H        -1.96724673000000    1.88858528000000   -2.35255435000000
H        -3.58694799000000    1.33933351000000   -2.73479936000000
H        -2.26378569000000    0.18830042000000   -2.67945174000000
C        -4.05249809000000   -0.77750659000000    0.00870939000000
H        -4.10371324000000   -0.96777199000000    1.07784903000000
H        -3.62230413000000   -1.65110366000000   -0.46745056000000
H        -5.06866284000000   -0.66584302000000   -0.35529136000000
C        -3.87666064000000    2.31173749000000    0.36502148000000
O        -1.61576456000000    0.81993463000000    0.52071798000000
H        -4.09592226000000    2.19065050000000    1.42136175000000
H        -4.81566280000000    2.50055361000000   -0.14353660000000
H        -3.26361797000000    3.20134190000000    0.25904123000000
C        -0.65551922000000    0.04620464000000    1.01045066000000
C         0.16189476000000    0.70620287000000    2.09527543000000
H        -0.39663453000000    1.56852374000000    2.46140077000000
H         0.31848661000000    0.03756298000000    2.93947225000000
C        -0.24384436000000   -1.15460334000000    0.54492394000000
C        -0.39516326000000   -1.55240700000000   -0.86601936000000
O         0.76254728000000   -1.77482941000000   -1.53479520000000
C         0.99110764000000   -1.74733149000000    1.18249175000000
C         2.21024682000000    0.35394210000000    0.48862318000000
C         1.52508033000000    1.22757338000000    1.53158896000000
C         3.25581158000000    1.02403075000000   -0.36406983000000
O        -1.42738444000000   -1.60122024000000   -1.48789112000000
C         1.21077345000000    2.61122291000000    0.92486098000000
C         2.81157063000000    2.36075858000000   -0.94458509000000
H         3.56970103000000    0.35228402000000   -1.16237860000000
H         4.12952750000000    1.20226753000000    0.27438665000000
C         2.37683340000000    3.26283707000000    0.19816518000000
H         0.87110078000000    3.26888927000000    1.72827898000000
H         0.38314728000000    2.49108583000000    0.22193787000000
H         1.97684601000000    2.20530401000000   -1.63092103000000
H         3.63381588000000    2.81002441000000   -1.50496424000000
H         3.21206552000000    3.41506395000000    0.88632276000000
H         2.06938989000000    4.23997689000000   -0.17945263000000
C         1.21447054000000   -3.23218526000000    0.85360563000000
C         1.96017349000000   -0.94974397000000    0.34967540000000
H         1.04684807000000   -1.57429812000000    2.25086031000000
C         2.04309800000000   -1.82662978000000   -0.87194738000000
C         2.21813348000000   -3.23208487000000   -0.30684665000000
H         3.24111300000000   -3.35613821000000    0.04871055000000
H         2.00411372000000   -3.99486124000000   -1.05301434000000
H         0.27539923000000   -3.70153225000000    0.55735660000000
H         1.60092192000000   -3.77116731000000    1.71752852000000
H         2.76786768000000   -1.55615770000000   -1.63954776000000
H         2.20500146000000    1.36410480000000    2.38127980000000
 
 Bond Distances (Angstroems)
 ---------------------------
Si1-C2=1.9011        Si1-C6=1.9008        Si1-C10=1.9089       Si1-O11=1.6576       C2-Si1=1.9011        C2-H3=1.0872         
C2-H4=1.0854         C2-H5=1.0845         H3-C2=1.0872         H4-C2=1.0854         H5-C2=1.0845         C6-Si1=1.9008        
C6-H7=1.0871         C6-H8=1.0840         C6-H9=1.0852         H7-C6=1.0871         H8-C6=1.0840         H9-C6=1.0852         
C10-Si1=1.9089       C10-H12=1.0856       C10-H13=1.0844       C10-H14=1.0856       O11-Si1=1.6576       O11-C15=1.3269       
H12-C10=1.0856       H13-C10=1.0844       H14-C10=1.0856       C15-O11=1.3269       C15-C16=1.5102       C15-C19=1.3521       
C16-C15=1.5102       C16-H17=1.0907       C16-H18=1.0882       C16-C24=1.5646       H17-C16=1.0907       H18-C16=1.0882       
C19-C15=1.3521       C19-C20=1.4737       C19-C22=1.5109       C20-C19=1.4737       C20-O21=1.3554       C20-O26=1.2061       
O21-C20=1.3554       O21-C41=1.4429       C22-C19=1.5109       C22-C38=1.5372       C22-C39=1.5063       C22-H40=1.0837       
C23-C24=1.5233       C23-C25=1.5064       C23-C39=1.3347       C24-C16=1.5646       C24-C23=1.5233       C24-C27=1.5432       
C24-H48=1.0968       C25-C23=1.5064       C25-C28=1.5235       C25-H29=1.0895       C25-H30=1.0967       O26-C20=1.2061       
C27-C24=1.5432       C27-C31=1.5207       C27-H32=1.0924       C27-H33=1.0925       C28-C25=1.5235       C28-C31=1.5194       
C28-H34=1.0918       C28-H35=1.0918       H29-C25=1.0895       H30-C25=1.0967       C31-C27=1.5207       C31-C28=1.5194       
C31-H36=1.0929       C31-H37=1.0918       H32-C27=1.0924       H33-C27=1.0925       H34-C28=1.0918       H35-C28=1.0918       
H36-C31=1.0929       H37-C31=1.0918       C38-C22=1.5372       C38-C42=1.5343       C38-H45=1.0908       C38-H46=1.0891       
C39-C22=1.5063       C39-C23=1.3347       C39-C41=1.5060       H40-C22=1.0837       C41-O21=1.4429       C41-C39=1.5060       
C41-C42=1.5249       C41-H47=1.0898       C42-C38=1.5343       C42-C41=1.5249       C42-H43=1.0901       C42-H44=1.0883       
H43-C42=1.0901       H44-C42=1.0883       H45-C38=1.0908       H46-C38=1.0891       H47-C41=1.0898       H48-C24=1.0968       
 C  H  Rav=1.0891 sigma=0.0036  Rmin=1.0837  Rmax=1.0968    26
 C  C  Rav=1.4995 sigma=0.0601  Rmin=1.3347  Rmax=1.5646    17
 O  C  Rav=1.3328 sigma=0.0847  Rmin=1.2061  Rmax=1.4429     4
 Si C  Rav=1.9036 sigma=0.0038  Rmin=1.9008  Rmax=1.9089     3
 Si O  Rav=1.6576 sigma=0.0000  Rmin=1.6576  Rmax=1.6576     1
 
 selected bond angles (degree)
 --------------------
C6-Si1-C2=114.76               C10-Si1-C2=108.85              C10-Si1-C6=109.69              O11-Si1-C2=111.21              
O11-Si1-C6=112.30              O11-Si1-C10= 98.82             H3-C2-Si1=111.34               H4-C2-Si1=110.93               
H4-C2-H3=107.54                H5-C2-Si1=110.97               H5-C2-H3=107.97                H5-C2-H4=107.93                
H7-C6-Si1=111.19               H8-C6-Si1=110.75               H8-C6-H7=108.04                H9-C6-Si1=111.14               
H9-C6-H7=107.68                H9-C6-H8=107.89                H12-C10-Si1=111.89             H13-C10-Si1=110.58             
H13-C10-H12=107.51             H14-C10-Si1=111.67             H14-C10-H12=107.48             H14-C10-H13=107.49             
 
 selected dihedral angles (degree)
 ---------------------------------
H3-C2-Si1-C6=187.96           H3-C2-Si1-C10= 64.62          H3-C2-Si1-O11=316.79          H4-C2-Si1-C6= 68.23           
H4-C2-Si1-C10=304.90          H4-C2-Si1-O11=197.07          H5-C2-Si1-C6=308.26           H5-C2-Si1-C10=184.93          
H5-C2-Si1-O11= 77.10          H7-C6-Si1-C2=172.59           H7-C6-Si1-C10=295.48          H7-C6-Si1-O11= 44.30          
H8-C6-Si1-C2= 52.46           H8-C6-Si1-C10=175.34          H8-C6-Si1-O11=284.17          H9-C6-Si1-C2=292.54           
H9-C6-Si1-C10= 55.43          H9-C6-Si1-O11=164.25          H12-C10-Si1-C2=179.97         H12-C10-Si1-C6= 53.66         
H12-C10-Si1-O11=296.06        H13-C10-Si1-C2= 60.16         H13-C10-Si1-C6=293.85         H13-C10-Si1-O11=176.25        
H14-C10-Si1-C2=300.52         H14-C10-Si1-C6=174.20         H14-C10-Si1-O11= 56.60        
           -------------------------------------------------
          |                Final Singlepoint                |
           -------------------------------------------------

          ...................................................
          :                      SETUP                      :
          :.................................................:
          :  # basis functions                 120          :
          :  # atomic orbitals                 119          :
          :  # shells                           71          :
          :  # electrons                       120          :
          :  max. iterations                   100          :
          :  Hamiltonian                  GFN2-xTB          :
          :  restarted?                      false          :
          :  GBSA solvation                  false          :
          :  PC potential                    false          :
          :  electronic temp.          300.0000000     K    :
          :  accuracy                    1.0000000          :
          :  -> integral cutoff          0.2500000E+02      :
          :  -> integral neglect         0.1000000E-07      :
          :  -> SCF convergence          0.1000000E-05 Eh   :
          :  -> wf. convergence          0.1000000E-03 e    :
          :  Broyden damping             0.4000000          :
          ...................................................

 iter      E             dE          RMSdq      gap      omega  full diag
   1    -66.6481525 -0.666482E+02  0.251E-05    3.06       0.0  T
   2    -66.6481525  0.119371E-11  0.223E-05    3.06     647.6  T
   3    -66.6481525 -0.234195E-10  0.769E-06    3.06    1878.1  T

   *** convergence criteria satisfied after 3 iterations ***

         #    Occupation            Energy/Eh            Energy/eV
      -------------------------------------------------------------
         1        2.0000           -0.7619731             -20.7343
       ...           ...                  ...                  ...
        54        2.0000           -0.4249340             -11.5630
        55        2.0000           -0.4205553             -11.4439
        56        2.0000           -0.4038095             -10.9882
        57        2.0000           -0.3963157             -10.7843
        58        2.0000           -0.3848394             -10.4720
        59        2.0000           -0.3787316             -10.3058
        60        2.0000           -0.3567303              -9.7071 (HOMO)
        61                         -0.2444460              -6.6517 (LUMO)
        62                         -0.2178333              -5.9275
        63                         -0.1846347              -5.0242
        64                         -0.1257072              -3.4207
        65                         -0.1054698              -2.8700
       ...                                ...                  ...
       119                          0.7774419              21.1553
      -------------------------------------------------------------
                  HL-Gap            0.1122844 Eh            3.0554 eV
             Fermi-level           -0.3005881 Eh           -8.1794 eV

 SCC (total)                   0 d,  0 h,  0 min,  0.036 sec
 SCC setup                      ...        0 min,  0.000 sec (  1.221%)
 Dispersion                     ...        0 min,  0.000 sec (  0.691%)
 classical contributions        ...        0 min,  0.000 sec (  0.205%)
 integral evaluation            ...        0 min,  0.010 sec ( 28.995%)
 iterations                     ...        0 min,  0.005 sec ( 14.290%)
 molecular gradient             ...        0 min,  0.019 sec ( 53.582%)
 printout                       ...        0 min,  0.000 sec (  0.982%)

         :::::::::::::::::::::::::::::::::::::::::::::::::::::
         ::                     SUMMARY                     ::
         :::::::::::::::::::::::::::::::::::::::::::::::::::::
         :: total energy             -65.783468261682 Eh    ::
         :: gradient norm              0.000029064452 Eh/a0 ::
         :: HOMO-LUMO gap              3.055412697602 eV    ::
         ::.................................................::
         :: SCC energy               -66.648152543578 Eh    ::
         :: -> isotropic ES            0.085816391762 Eh    ::
         :: -> anisotropic ES          0.008280153882 Eh    ::
         :: -> anisotropic XC          0.020702071499 Eh    ::
         :: -> dispersion             -0.054160221132 Eh    ::
         :: repulsion energy           0.863109471724 Eh    ::
         :: add. restraining           0.000000000000 Eh    ::
         :: total charge              -0.000000000000 e     ::
         :::::::::::::::::::::::::::::::::::::::::::::::::::::

           -------------------------------------------------
          |                Property Printout                |
           -------------------------------------------------

    * Orbital Energies and Occupations

         #    Occupation            Energy/Eh            Energy/eV
      -------------------------------------------------------------
         1        2.0000           -0.7619731             -20.7343
       ...           ...                  ...                  ...
        48        2.0000           -0.4466701             -12.1545
        49        2.0000           -0.4416867             -12.0189
        50        2.0000           -0.4403255             -11.9819
        51        2.0000           -0.4367164             -11.8837
        52        2.0000           -0.4280786             -11.6486
        53        2.0000           -0.4267950             -11.6137
        54        2.0000           -0.4249340             -11.5630
        55        2.0000           -0.4205553             -11.4439
        56        2.0000           -0.4038095             -10.9882
        57        2.0000           -0.3963157             -10.7843
        58        2.0000           -0.3848394             -10.4720
        59        2.0000           -0.3787316             -10.3058
        60        2.0000           -0.3567303              -9.7071 (HOMO)
        61                         -0.2444460              -6.6517 (LUMO)
        62                         -0.2178333              -5.9275
        63                         -0.1846347              -5.0242
        64                         -0.1257072              -3.4207
        65                         -0.1054698              -2.8700
        66                         -0.0842161              -2.2916
        67                          0.0026860               0.0731
        68                          0.0131408               0.3576
        69                          0.0272620               0.7418
        70                          0.0314199               0.8550
        71                          0.0406543               1.1063
       ...                                ...                  ...
       119                          0.7774419              21.1553
      -------------------------------------------------------------
                  HL-Gap            0.1122844 Eh            3.0554 eV
             Fermi-level           -0.3005881 Eh           -8.1794 eV

     #   Z          covCN         q      C6AA      α(0)
     1  14 Si       3.414     0.557   104.121    20.025
     2   6 C        3.650    -0.206    24.946     7.175
     3   1 H        0.925     0.034     2.526     2.486
     4   1 H        0.925     0.032     2.563     2.504
     5   1 H        0.925     0.062     2.174     2.306
     6   6 C        3.650    -0.207    24.967     7.178
     7   1 H        0.925     0.034     2.532     2.488
     8   1 H        0.925     0.059     2.208     2.324
     9   1 H        0.925     0.035     2.523     2.484
    10   6 C        3.649    -0.209    25.024     7.187
    11   8 O        1.624    -0.325    19.470     5.956
    12   1 H        0.925     0.032     2.563     2.504
    13   1 H        0.925     0.020     2.730     2.584
    14   1 H        0.925     0.033     2.547     2.496
    15   6 C        2.851     0.151    24.729     8.150
    16   6 C        3.811    -0.078    21.974     6.672
    17   1 H        0.924     0.063     2.168     2.303
    18   1 H        0.925     0.049     2.337     2.391
    19   6 C        3.063    -0.089    30.168     9.007
    20   6 C        2.706     0.361    20.878     7.479
    21   8 O        1.702    -0.273    18.535     5.813
    22   6 C        3.929    -0.019    20.857     6.490
    23   6 C        2.942    -0.010    28.272     8.721
    24   6 C        3.850    -0.017    20.844     6.494
    25   6 C        3.814    -0.059    21.630     6.620
    26   8 O        0.857    -0.410    21.883     6.272
    27   6 C        3.813    -0.059    21.624     6.619
    28   6 C        3.807    -0.053    21.529     6.605
    29   1 H        0.925     0.035     2.521     2.483
    30   1 H        0.924     0.043     2.414     2.430
    31   6 C        3.807    -0.056    21.574     6.612
    32   1 H        0.924     0.032     2.551     2.498
    33   1 H        0.924     0.046     2.371     2.408
    34   1 H        0.924     0.037     2.487     2.466
    35   1 H        0.924     0.031     2.571     2.508
    36   1 H        0.924     0.033     2.550     2.497
    37   1 H        0.924     0.032     2.553     2.499
    38   6 C        3.830    -0.059    21.616     6.615
    39   6 C        3.088    -0.033    28.715     8.784
    40   1 H        0.925     0.042     2.423     2.434
    41   6 C        3.804     0.114    18.716     6.159
    42   6 C        3.829    -0.065    21.720     6.631
    43   1 H        0.925     0.042     2.428     2.437
    44   1 H        0.925     0.051     2.310     2.377
    45   1 H        0.924     0.043     2.411     2.428
    46   1 H        0.925     0.037     2.491     2.468
    47   1 H        0.925     0.048     2.342     2.393
    48   1 H        0.924     0.044     2.402     2.424

 Mol. C6AA /au·bohr⁶  :      22609.867363
 Mol. C8AA /au·bohr⁸  :     562664.818136
 Mol. α(0) /au        :        230.880024


Wiberg/Mayer (AO) data.
largest (>0.10) Wiberg bond orders for each atom

 ---------------------------------------------------------------------------
     #   Z sym  total        # sym  WBO       # sym  WBO       # sym  WBO
 ---------------------------------------------------------------------------
     1  14 Si   3.781 --    11 O    0.989     6 C    0.894     2 C    0.893
                            10 C    0.873
     2   6 C    3.984 --     4 H    0.992     3 H    0.984     5 H    0.980
                             1 Si   0.893
     3   1 H    0.999 --     2 C    0.984
     4   1 H    0.998 --     2 C    0.992
     5   1 H    0.996 --     2 C    0.980
     6   6 C    3.984 --     9 H    0.991     7 H    0.985     8 H    0.984
                             1 Si   0.894
     7   1 H    0.999 --     6 C    0.985
     8   1 H    0.996 --     6 C    0.984
     9   1 H    0.999 --     6 C    0.991
    10   6 C    3.978 --    13 H    0.999    12 H    0.990    14 H    0.989
                             1 Si   0.873
    11   8 O    2.378 --    15 C    1.121     1 Si   0.989
    12   1 H    0.999 --    10 C    0.990
    13   1 H    0.999 --    10 C    0.999
    14   1 H    0.999 --    10 C    0.989
    15   6 C    3.936 --    19 C    1.630    11 O    1.121    16 C    1.000
    16   6 C    3.993 --    15 C    1.000    17 H    0.971    24 C    0.963
                            18 H    0.960
    17   1 H    0.995 --    16 C    0.971
    18   1 H    0.997 --    16 C    0.960
    19   6 C    3.947 --    15 C    1.630    20 C    1.020    22 C    0.963
    20   6 C    3.918 --    26 O    1.710    21 O    1.095    19 C    1.020
    21   8 O    2.296 --    20 C    1.095    41 C    0.921    26 O    0.147
    22   6 C    3.990 --    38 C    0.992    39 C    0.968    19 C    0.963
                            40 H    0.958
    23   6 C    3.982 --    39 C    1.819    25 C    1.011    24 C    1.001
    24   6 C    3.993 --    23 C    1.001    27 C    0.986    16 C    0.963
                            48 H    0.953
    25   6 C    3.997 --    23 C    1.011    28 C    0.999    29 H    0.970
                            30 H    0.957
    26   8 O    2.044 --    20 C    1.710    21 O    0.147
    27   6 C    3.995 --    31 C    1.010    24 C    0.986    32 H    0.975
                            33 H    0.975
    28   6 C    3.997 --    31 C    1.010    25 C    0.999    34 H    0.977
                            35 H    0.977
    29   1 H    0.999 --    25 C    0.970
    30   1 H    0.998 --    25 C    0.957
    31   6 C    3.998 --    28 C    1.010    27 C    1.010    36 H    0.977
                            37 H    0.976
    32   1 H    0.998 --    27 C    0.975
    33   1 H    0.998 --    27 C    0.975
    34   1 H    0.999 --    28 C    0.977
    35   1 H    0.998 --    28 C    0.977
    36   1 H    0.999 --    31 C    0.977
    37   1 H    0.999 --    31 C    0.976
    38   6 C    3.996 --    42 C    1.002    22 C    0.992    46 H    0.982
                            45 H    0.978
    39   6 C    3.968 --    23 C    1.819    41 C    0.982    22 C    0.968
    40   1 H    0.998 --    22 C    0.958
    41   6 C    3.932 --    42 C    0.988    39 C    0.982    47 H    0.957
                            21 O    0.921
    42   6 C    3.995 --    38 C    1.002    41 C    0.988    44 H    0.977
                            43 H    0.977
    43   1 H    0.998 --    42 C    0.977
    44   1 H    0.997 --    42 C    0.977
    45   1 H    0.998 --    38 C    0.978
    46   1 H    0.998 --    38 C    0.982
    47   1 H    0.997 --    41 C    0.957
    48   1 H    0.997 --    24 C    0.953
 ---------------------------------------------------------------------------

Topologies differ in total number of bonds
Writing topology from bond orders to xtbtopo.mol

molecular dipole:
                 x           y           z       tot (Debye)
 q only:        1.168       0.448       1.119
   full:        1.344       0.410       1.181       4.665
molecular quadrupole (traceless):
                xx          xy          yy          xz          yz          zz
 q only:        4.138      -3.470      -0.039      -1.372      -4.880      -4.099
  q+dip:        1.246      -2.916       1.246      -2.215      -4.040      -2.492
   full:        2.724      -3.697       0.974      -2.213      -5.349      -3.698

           -------------------------------------------------
          |                Geometry Summary                 |
           -------------------------------------------------

      molecular mass/u    :      318.4834192
   center of mass at/Å    :       -0.0000084       0.0000012      -0.0000030
  moments of inertia/u·Å² :        0.1407099E+04   0.1997547E+04   0.2696980E+04
rotational constants/cm⁻¹ :        0.1198042E-01   0.8439165E-02   0.6250559E-02

 * 42 selected distances

     #   Z          #   Z                                           value/Å
     1  14 Si       2   6 C                                       1.9010505
     2   6 C        3   1 H                                       1.0871762
     2   6 C        4   1 H                                       1.0853572
     2   6 C        5   1 H                                       1.0844910
     1  14 Si       6   6 C                                       1.9007787
     6   6 C        7   1 H                                       1.0871446
     6   6 C        8   1 H                                       1.0839589
     6   6 C        9   1 H                                       1.0851526
     1  14 Si      10   6 C                                       1.9088868 (max)
     1  14 Si      11   8 O                                       1.6576110
    10   6 C       12   1 H                                       1.0856300
    10   6 C       13   1 H                                       1.0844390
    10   6 C       14   1 H                                       1.0855640
    11   8 O       15   6 C                                       1.3268637
    16   6 C       17   1 H                                       1.0906879
    16   6 C       18   1 H                                       1.0882410
    15   6 C       19   6 C                                       1.3520840
    20   6 C       21   8 O                                       1.3553695
    20   6 C       26   8 O                                       1.2060629
    25   6 C       28   6 C                                       1.5235450
    25   6 C       29   1 H                                       1.0895261
    25   6 C       30   1 H                                       1.0967108
    27   6 C       31   6 C                                       1.5206524
    28   6 C       31   6 C                                       1.5194144
    27   6 C       32   1 H                                       1.0924207
    27   6 C       33   1 H                                       1.0924737
    28   6 C       34   1 H                                       1.0917822
    28   6 C       35   1 H                                       1.0917655
    31   6 C       36   1 H                                       1.0928616
    31   6 C       37   1 H                                       1.0917504
    22   6 C       38   6 C                                       1.5371557
    23   6 C       39   6 C                                       1.3347062
    22   6 C       40   1 H                                       1.0837246 (min)
    21   8 O       41   6 C                                       1.4428654
    38   6 C       42   6 C                                       1.5342714
    41   6 C       42   6 C                                       1.5248870
    42   6 C       43   1 H                                       1.0900905
    42   6 C       44   1 H                                       1.0883007
    38   6 C       45   1 H                                       1.0908277
    38   6 C       46   1 H                                       1.0891323
    41   6 C       47   1 H                                       1.0897966
    24   6 C       48   1 H                                       1.0967717

 * 5 distinct bonds (by element types)

   Z      Z             #   av. dist./Å        max./Å        min./Å
   1 H    6 C          26     1.0890684     1.0967717     1.0837246
   6 C    6 C           8     1.4808395     1.5371557     1.3347062
   6 C    8 O           4     1.3327904     1.4428654     1.2060629
   6 C   14 Si          3     1.9035720     1.9088868     1.9007787
   8 O   14 Si          1     1.6576110     1.6576110     1.6576110


optimized geometry written to: xtbopt.xyz


           -------------------------------------------------
          | TOTAL ENERGY              -65.783468261682 Eh   |
          | GRADIENT NORM               0.000029064452 Eh/α |
          | HOMO-LUMO GAP               3.055412697602 eV   |
           -------------------------------------------------

------------------------------------------------------------------------
 * finished run on 2021/09/05 at 21:28:15.855     
------------------------------------------------------------------------
 total:
 * wall-time:     0 d,  0 h,  0 min,  0.197 sec
 *  cpu-time:     0 d,  0 h,  0 min,  0.384 sec
 * ratio c/w:     1.950 speedup
 SCF:
 * wall-time:     0 d,  0 h,  0 min,  0.057 sec
 *  cpu-time:     0 d,  0 h,  0 min,  0.113 sec
 * ratio c/w:     1.986 speedup
 ANC optimizer:
 * wall-time:     0 d,  0 h,  0 min,  0.111 sec
 *  cpu-time:     0 d,  0 h,  0 min,  0.220 sec
 * ratio c/w:     1.977 speedup

