48
 energy: -65.783468261649 gnorm: 0.000029388176 xtb: 6.4.0 (d4b70c2)
Si       -3.01639102000000    0.77173916000000   -0.36449216000000
C        -2.67447390000000    1.07532995000000   -2.20973423000000
H        -1.96724673000000    1.88858528000000   -2.35255435000000
H        -3.58694799000000    1.33933351000000   -2.73479936000000
H        -2.26378569000000    0.18830042000000   -2.67945174000000
C        -4.05249809000000   -0.77750659000000    0.00870939000000
H        -4.10371324000000   -0.96777199000000    1.07784903000000
H        -3.62230413000000   -1.65110366000000   -0.46745056000000
H        -5.06866284000000   -0.66584302000000   -0.35529136000000
C        -3.87666064000000    2.31173749000000    0.36502148000000
O        -1.61576456000000    0.81993463000000    0.52071798000000
H        -4.09592226000000    2.19065050000000    1.42136175000000
H        -4.81566280000000    2.50055361000000   -0.14353660000000
H        -3.26361797000000    3.20134190000000    0.25904123000000
C        -0.65551922000000    0.04620464000000    1.01045066000000
C         0.16189476000000    0.70620287000000    2.09527543000000
H        -0.39663453000000    1.56852374000000    2.46140077000000
H         0.31848661000000    0.03756298000000    2.93947225000000
C        -0.24384436000000   -1.15460334000000    0.54492394000000
C        -0.39516326000000   -1.55240700000000   -0.86601936000000
O         0.76254728000000   -1.77482941000000   -1.53479520000000
C         0.99110764000000   -1.74733149000000    1.18249175000000
C         2.21024682000000    0.35394210000000    0.48862318000000
C         1.52508033000000    1.22757338000000    1.53158896000000
C         3.25581158000000    1.02403075000000   -0.36406983000000
O        -1.42738444000000   -1.60122024000000   -1.48789112000000
C         1.21077345000000    2.61122291000000    0.92486098000000
C         2.81157063000000    2.36075858000000   -0.94458509000000
H         3.56970103000000    0.35228402000000   -1.16237860000000
H         4.12952750000000    1.20226753000000    0.27438665000000
C         2.37683340000000    3.26283707000000    0.19816518000000
H         0.87110078000000    3.26888927000000    1.72827898000000
H         0.38314728000000    2.49108583000000    0.22193787000000
H         1.97684601000000    2.20530401000000   -1.63092103000000
H         3.63381588000000    2.81002441000000   -1.50496424000000
H         3.21206552000000    3.41506395000000    0.88632276000000
H         2.06938989000000    4.23997689000000   -0.17945263000000
C         1.21447054000000   -3.23218526000000    0.85360563000000
C         1.96017349000000   -0.94974397000000    0.34967540000000
H         1.04684807000000   -1.57429812000000    2.25086031000000
C         2.04309800000000   -1.82662978000000   -0.87194738000000
C         2.21813348000000   -3.23208487000000   -0.30684665000000
H         3.24111300000000   -3.35613821000000    0.04871055000000
H         2.00411372000000   -3.99486124000000   -1.05301434000000
H         0.27539923000000   -3.70153225000000    0.55735660000000
H         1.60092192000000   -3.77116731000000    1.71752852000000
H         2.76786768000000   -1.55615770000000   -1.63954776000000
H         2.20500146000000    1.36410480000000    2.38127980000000
