48
 energy: -65.777906349143 gnorm: 0.000067399958 xtb: 6.4.0 (d4b70c2)
Si        2.48183521000000   -2.22910049000000    0.36236249000000
C         3.62881848000000   -1.85773231000000   -1.11298666000000
H         3.05628444000000   -1.76356571000000   -2.03164431000000
H         4.35964645000000   -2.64648674000000   -1.25799880000000
H         4.17424611000000   -0.92848959000000   -0.96694891000000
C         3.38658832000000   -2.15432578000000    2.02759520000000
H         2.68516406000000   -2.22172683000000    2.85293965000000
H         3.94025443000000   -1.22780497000000    2.14279741000000
H         4.09056473000000   -2.97399850000000    2.11825745000000
C         1.50492482000000   -3.84114834000000    0.11883629000000
O        -0.72744981000000   -0.79568640000000    2.33967855000000
H         0.79184881000000   -3.98262466000000    0.92702302000000
H         2.15579513000000   -4.70931207000000    0.09379845000000
H         0.94526814000000   -3.81642265000000   -0.81204190000000
C        -1.07321803000000    0.07446569000000    1.58816643000000
C        -2.25667985000000    0.99417774000000    1.78141355000000
H        -3.06102760000000    0.47227671000000    2.29945406000000
H        -1.93036537000000    1.80897436000000    2.43231819000000
C        -0.39969102000000    0.47822256000000    0.29624054000000
C         0.44329308000000   -0.62252356000000   -0.29063393000000
O         1.41147240000000   -0.94526569000000    0.53992447000000
C         0.41618610000000    1.81019146000000    0.51061795000000
C        -1.45523765000000    1.28322602000000   -0.53590041000000
C        -2.67078295000000    1.51358022000000    0.39911166000000
C        -1.87595598000000    0.79986374000000   -1.91557060000000
O         0.28367829000000   -1.14416349000000   -1.36351214000000
C        -3.91246095000000    0.77769963000000   -0.11518775000000
C        -2.68021574000000   -0.50444918000000   -1.87380312000000
H        -0.98822017000000    0.65629366000000   -2.53091200000000
H        -2.46821785000000    1.59836793000000   -2.36913610000000
C        -3.52673717000000   -0.61287149000000   -0.60262781000000
H        -4.36584341000000    1.33591930000000   -0.93603980000000
H        -4.65295794000000    0.71609924000000    0.68501817000000
H        -1.99351572000000   -1.34764802000000   -1.92897775000000
H        -3.32452546000000   -0.54150948000000   -2.75426783000000
H        -4.41967983000000   -1.20866457000000   -0.79772583000000
H        -2.95954509000000   -1.12022222000000    0.18096840000000
C         1.82988804000000    2.09148391000000    0.00024105000000
C        -0.45411066000000    2.40636708000000   -0.55685563000000
H         0.27671832000000    2.20455559000000    1.51794201000000
C         0.20793822000000    3.22275378000000   -1.35816199000000
C         1.62121701000000    3.37905717000000   -0.83605299000000
H         1.71800880000000    4.27109905000000   -0.21043238000000
H         2.33976451000000    3.45977123000000   -1.65086482000000
H         2.17069965000000    1.28830380000000   -0.65351299000000
H         2.55689802000000    2.21863680000000    0.80007115000000
H        -0.13265217000000    3.69873924000000   -2.25936097000000
H        -2.89243786000000    2.58406602000000    0.44636686000000
