      -----------------------------------------------------------      
     |                   =====================                   |     
     |                           x T B                           |     
     |                   =====================                   |     
     |                         S. Grimme                         |     
     |          Mulliken Center for Theoretical Chemistry        |     
     |                    University of Bonn                     |     
      -----------------------------------------------------------      

   * xtb version 6.4.0 (d4b70c2) compiled by 'ehlert@majestix' on 2021-02-01

   xtb is free software: you can redistribute it and/or modify it under
   the terms of the GNU Lesser General Public License as published by
   the Free Software Foundation, either version 3 of the License, or
   (at your option) any later version.
   
   xtb is distributed in the hope that it will be useful,
   but WITHOUT ANY WARRANTY; without even the implied warranty of
   MERCHANTABILITY or FITNESS FOR A PARTICULAR PURPOSE.  See the
   GNU Lesser General Public License for more details.
   
   Cite this work as:
   * C. Bannwarth, E. Caldeweyher, S. Ehlert, A. Hansen, P. Pracht,
     J. Seibert, S. Spicher, S. Grimme, WIREs Comput. Mol. Sci., 2020,
     e01493. DOI: 10.1002/wcms.1493
   
   for GFN2-xTB:
   * C. Bannwarth, S. Ehlert and S. Grimme., J. Chem. Theory Comput., 2019,
     15, 1652-1671. DOI: 10.1021/acs.jctc.8b01176
   for GFN1-xTB:
   * S. Grimme, C. Bannwarth, P. Shushkov, J. Chem. Theory Comput., 2017,
     13, 1989-2009. DOI: 10.1021/acs.jctc.7b00118
   for GFN0-xTB:
   * P. Pracht, E. Caldeweyher, S. Ehlert, S. Grimme, ChemRxiv, 2019, preprint.
     DOI: 10.26434/chemrxiv.8326202.v1
   for GFN-FF:
   * S. Spicher and S. Grimme, Angew. Chem. Int. Ed., 2020, 59, 15665-15673.
     DOI: 10.1002/anie.202004239
   
   for DFT-D4:
   * E. Caldeweyher, C. Bannwarth and S. Grimme, J. Chem. Phys., 2017,
     147, 034112. DOI: 10.1063/1.4993215
   * E. Caldeweyher, S. Ehlert, A. Hansen, H. Neugebauer, S. Spicher,
     C. Bannwarth and S. Grimme, J. Chem. Phys., 2019, 150, 154122.
     DOI: 10.1063/1.5090222
   * E. Caldeweyher, J.-M. Mewes, S. Ehlert and S. Grimme, Phys. Chem. Chem. Phys.
     2020, 22, 8499-8512. DOI: 10.1039/D0CP00502A
   
   for sTDA-xTB:
   * S. Grimme and C. Bannwarth, J. Chem. Phys., 2016, 145, 054103.
     DOI: 10.1063/1.4959605
   
   in the mass-spec context:
   * V. Asgeirsson, C. Bauer and S. Grimme, Chem. Sci., 2017, 8, 4879.
     DOI: 10.1039/c7sc00601b
   * J. Koopman and S. Grimme, ACS Omega 2019, 4, 12, 15120-15133.
     DOI: 10.1021/acsomega.9b02011
   
   for metadynamics refer to:
   * S. Grimme, J. Chem. Theory Comput., 2019, 155, 2847-2862
     DOI: 10.1021/acs.jctc.9b00143
   
   with help from (in alphabetical order)
   P. Atkinson, C. Bannwarth, F. Bohle, G. Brandenburg, E. Caldeweyher
   M. Checinski, S. Dohm, S. Ehlert, S. Ehrlich, I. Gerasimov, J. Koopman
   C. Lavinge, S. Lehtola, F. März, M. Müller, F. Musil, H. Neugebauer
   J. Pisarek, P. Pracht, J. Seibert, P. Shushkov, S. Spicher, M. Stahn
   T. Strunk, J. Stückrath, T. Rose, and J. Unsleber
   
 * started run on 2021/09/05 at 21:28:19.677     

           -------------------------------------------------
          |                Calculation Setup                |
           -------------------------------------------------

          program call               : xtb -c 0 -u 0 -a 1.0 --iterations 100 --opt normal --namespace ZKMIHLWJWWWWRG-ZUXXIDCJSA-N /home/zhao922/bin/Github/YARP/version2.0/CONF_GEN/RCS_paper/IC/opt-folder/ZKMIHLWJWWWWRG-ZUXXIDCJSA-N.xyz
          hostname                   : bell-a001
          calculation namespace      : ZKMIHLWJWWWWRG-ZUXXIDCJSA-N
          coordinate file            : /home/zhao922/bin/Github/YARP/version2.0/CONF_GEN/RCS_paper/IC/opt-folder/ZKMIHLWJWWWWRG-ZUXXIDCJSA-N.xyz
          omp threads                :                     2
          number of atoms            :                    48
          number of electrons        :                   120
          charge                     :                     0
          spin                       :                   0.0
          first test random number   :      0.13421283215661

   ID    Z sym.   atoms
    1   14 Si     1
    2    6 C      2, 6, 10, 15, 16, 19, 20, 22-25, 27, 28, 31, 38, 39, 41, 42
    3    1 H      3-5, 7-9, 12-14, 17, 18, 29, 30, 32-37, 40, 43-48
    4    8 O      11, 21, 26

           -------------------------------------------------
          |                 G F N 2 - x T B                 |
           -------------------------------------------------

        Reference                      10.1021/acs.jctc.8b01176
      * Hamiltonian:
        H0-scaling (s, p, d)           1.850000    2.230000    2.230000
        zeta-weighting                 0.500000
      * Dispersion:
        s8                             2.700000
        a1                             0.520000
        a2                             5.000000
        s9                             5.000000
      * Repulsion:
        kExp                           1.500000    1.000000
        rExp                           1.000000
      * Coulomb:
        alpha                          2.000000
        third order                    shell-resolved
        anisotropic                    true
        a3                             3.000000
        a5                             4.000000
        cn-shift                       1.200000
        cn-exp                         4.000000
        max-rad                        5.000000


          ...................................................
          :                      SETUP                      :
          :.................................................:
          :  # basis functions                 120          :
          :  # atomic orbitals                 119          :
          :  # shells                           71          :
          :  # electrons                       120          :
          :  max. iterations                   100          :
          :  Hamiltonian                  GFN2-xTB          :
          :  restarted?                      false          :
          :  GBSA solvation                  false          :
          :  PC potential                    false          :
          :  electronic temp.          300.0000000     K    :
          :  accuracy                    1.0000000          :
          :  -> integral cutoff          0.2500000E+02      :
          :  -> integral neglect         0.1000000E-07      :
          :  -> SCF convergence          0.1000000E-05 Eh   :
          :  -> wf. convergence          0.1000000E-03 e    :
          :  Broyden damping             0.4000000          :
          ...................................................

 iter      E             dE          RMSdq      gap      omega  full diag
   1    -66.4422893 -0.664423E+02  0.366E+00    4.24       0.0  T
   2    -66.6132541 -0.170965E+00  0.219E+00    3.42       1.0  T
   3    -66.6310057 -0.177516E-01  0.124E+00    3.67       1.0  T
   4    -66.6370716 -0.606588E-02  0.553E-01    3.30       1.0  T
   5    -66.6429279 -0.585634E-02  0.247E-01    3.33       1.0  T
   6    -66.6429777 -0.497822E-04  0.151E-01    3.41       1.0  T
   7    -66.6432213 -0.243564E-03  0.623E-02    3.40       1.0  T
   8    -66.6432475 -0.261865E-04  0.328E-02    3.41       1.0  T
   9    -66.6432712 -0.237303E-04  0.120E-02    3.40       1.2  T
  10    -66.6432730 -0.177766E-05  0.638E-03    3.40       2.3  T
  11    -66.6432732 -0.225299E-06  0.251E-03    3.40       5.8  T
  12    -66.6432732 -0.397765E-07  0.123E-03    3.40      11.7  T
  13    -66.6432732 -0.238104E-08  0.649E-04    3.40      22.2  T
  14    -66.6432732 -0.308322E-08  0.268E-04    3.40      53.8  T

   *** convergence criteria satisfied after 14 iterations ***

         #    Occupation            Energy/Eh            Energy/eV
      -------------------------------------------------------------
         1        2.0000           -0.7774976             -21.1568
       ...           ...                  ...                  ...
        54        2.0000           -0.4151224             -11.2961
        55        2.0000           -0.4097946             -11.1511
        56        2.0000           -0.4051993             -11.0260
        57        2.0000           -0.3966815             -10.7943
        58        2.0000           -0.3950078             -10.7487
        59        2.0000           -0.3915870             -10.6556
        60        2.0000           -0.3801876             -10.3454 (HOMO)
        61                         -0.2550962              -6.9415 (LUMO)
        62                         -0.2325573              -6.3282
        63                         -0.2112551              -5.7485
        64                         -0.1363754              -3.7110
        65                         -0.1160226              -3.1571
       ...                                ...                  ...
       119                          0.7142997              19.4371
      -------------------------------------------------------------
                  HL-Gap            0.1250914 Eh            3.4039 eV
             Fermi-level           -0.3176419 Eh           -8.6435 eV

 SCC (total)                   0 d,  0 h,  0 min,  0.056 sec
 SCC setup                      ...        0 min,  0.001 sec (  0.959%)
 Dispersion                     ...        0 min,  0.000 sec (  0.765%)
 classical contributions        ...        0 min,  0.000 sec (  0.147%)
 integral evaluation            ...        0 min,  0.011 sec ( 19.764%)
 iterations                     ...        0 min,  0.024 sec ( 42.216%)
 molecular gradient             ...        0 min,  0.020 sec ( 35.474%)
 printout                       ...        0 min,  0.000 sec (  0.645%)

         :::::::::::::::::::::::::::::::::::::::::::::::::::::
         ::                     SUMMARY                     ::
         :::::::::::::::::::::::::::::::::::::::::::::::::::::
         :: total energy             -65.777906348727 Eh    ::
         :: gradient norm              0.000067706891 Eh/a0 ::
         :: HOMO-LUMO gap              3.403911326297 eV    ::
         ::.................................................::
         :: SCC energy               -66.643273229958 Eh    ::
         :: -> isotropic ES            0.097151895933 Eh    ::
         :: -> anisotropic ES          0.005428643160 Eh    ::
         :: -> anisotropic XC          0.022211626808 Eh    ::
         :: -> dispersion             -0.053573487194 Eh    ::
         :: repulsion energy           0.863976576414 Eh    ::
         :: add. restraining           0.000000000000 Eh    ::
         :: total charge               0.000000000000 e     ::
         :::::::::::::::::::::::::::::::::::::::::::::::::::::

      ----------------------------------------------------------- 
     |                   =====================                   |
     |                        A N C O P T                        |
     |                   =====================                   |
     |               Approximate Normal Coordinate               |
     |                Rational Function Optimizer                |
      ----------------------------------------------------------- 

          ...................................................
          :                      SETUP                      :
          :.................................................:
          :   optimization level            normal          :
          :   max. optcycles                   200          :
          :   ANC micro-cycles                  20          :
          :   degrees of freedom               138          :
          :.................................................:
          :   RF solver                   davidson          :
          :   write xtbopt.log                true          :
          :   linear?                        false          :
          :   energy convergence         0.5000000E-05 Eh   :
          :   grad. convergence          0.1000000E-02 Eh/α :
          :   maximium RF displ.         1.0000000          :
          :   Hlow (freq-cutoff)         0.1000000E-01      :
          :   Hmax (freq-cutoff)         5.0000000          :
          :   S6 in model hess.         20.0000000          :
          ...................................................

generating ANC from model Hessian ...
Using Lindh-Hessian (1995)
 Shifting diagonal of input Hessian by   9.797835344946732E-003
 Lowest  eigenvalues of input Hessian
    0.000000    0.000000    0.000000    0.000000    0.000000    0.000000
    0.010000    0.010173    0.010687    0.011689    0.012188    0.012329
    0.013115    0.013496    0.013697    0.014803    0.015245    0.015809
 Highest eigenvalues
    1.369075    1.491591    1.932578    1.974470    2.224649    2.407070
 

........................................................................
.............................. CYCLE    1 ..............................
........................................................................
   1    -66.6432732 -0.666433E+02  0.770E-05    3.40       0.0  T
   2    -66.6432732 -0.312070E-10  0.701E-05    3.40     205.8  T
   3    -66.6432732 -0.731859E-11  0.517E-05    3.40     279.2  T
     SCC iter.                  ...        0 min,  0.005 sec
     gradient                   ...        0 min,  0.020 sec
 * total energy  :   -65.7779063 Eh     change       -0.4157954E-09 Eh
   gradient norm :     0.0000674 Eh/α   predicted     0.0000000E+00 (-100.00%)
   displ. norm   :     0.0001011 α      lambda        0.0000000E+00
   maximum displ.:     0.0000963 α      in ANC's #1, #2, #73, ...

   *** GEOMETRY OPTIMIZATION CONVERGED AFTER 1 ITERATIONS ***

------------------------------------------------------------------------
 total energy gain   :        -0.0000000 Eh       -0.0000 kcal/mol
 total RMSD          :         0.0000001 a0        0.0000 Å
 total power (kW/mol):        -0.0000011 (step)   -0.0000 (real)
------------------------------------------------------------------------

 ANCopt (total)                0 d,  0 h,  0 min,  0.077 sec
 optimizer setup                ...        0 min,  0.000 sec (  0.435%)
 model hessian                  ...        0 min,  0.039 sec ( 49.931%)
 ANC generation                 ...        0 min,  0.001 sec (  1.839%)
 coordinate transformation      ...        0 min,  0.000 sec (  0.017%)
 single point calculation       ...        0 min,  0.036 sec ( 46.971%)
 optimization log               ...        0 min,  0.000 sec (  0.461%)
 hessian update                 ...        0 min,  0.000 sec (  0.003%)
 rational function              ...        0 min,  0.000 sec (  0.085%)

================
 final structure:
================
48
 xtb: 6.4.0 (d4b70c2)
Si        2.48183521000000   -2.22910049000000    0.36236249000000
C         3.62881848000000   -1.85773231000000   -1.11298666000000
H         3.05628444000000   -1.76356571000000   -2.03164431000000
H         4.35964645000000   -2.64648674000000   -1.25799880000000
H         4.17424611000000   -0.92848959000000   -0.96694891000000
C         3.38658832000000   -2.15432578000000    2.02759520000000
H         2.68516406000000   -2.22172683000000    2.85293965000000
H         3.94025443000000   -1.22780497000000    2.14279741000000
H         4.09056473000000   -2.97399850000000    2.11825745000000
C         1.50492482000000   -3.84114834000000    0.11883629000000
O        -0.72744981000000   -0.79568640000000    2.33967855000000
H         0.79184881000000   -3.98262466000000    0.92702302000000
H         2.15579513000000   -4.70931207000000    0.09379845000000
H         0.94526814000000   -3.81642265000000   -0.81204190000000
C        -1.07321803000000    0.07446569000000    1.58816643000000
C        -2.25667985000000    0.99417774000000    1.78141355000000
H        -3.06102760000000    0.47227671000000    2.29945406000000
H        -1.93036537000000    1.80897436000000    2.43231819000000
C        -0.39969102000000    0.47822256000000    0.29624054000000
C         0.44329308000000   -0.62252356000000   -0.29063393000000
O         1.41147240000000   -0.94526569000000    0.53992447000000
C         0.41618610000000    1.81019146000000    0.51061795000000
C        -1.45523765000000    1.28322602000000   -0.53590041000000
C        -2.67078295000000    1.51358022000000    0.39911166000000
C        -1.87595598000000    0.79986374000000   -1.91557060000000
O         0.28367829000000   -1.14416349000000   -1.36351214000000
C        -3.91246095000000    0.77769963000000   -0.11518775000000
C        -2.68021574000000   -0.50444918000000   -1.87380312000000
H        -0.98822017000000    0.65629366000000   -2.53091200000000
H        -2.46821785000000    1.59836793000000   -2.36913610000000
C        -3.52673717000000   -0.61287149000000   -0.60262781000000
H        -4.36584341000000    1.33591930000000   -0.93603980000000
H        -4.65295794000000    0.71609924000000    0.68501817000000
H        -1.99351572000000   -1.34764802000000   -1.92897775000000
H        -3.32452546000000   -0.54150948000000   -2.75426783000000
H        -4.41967983000000   -1.20866457000000   -0.79772583000000
H        -2.95954509000000   -1.12022222000000    0.18096840000000
C         1.82988804000000    2.09148391000000    0.00024105000000
C        -0.45411066000000    2.40636708000000   -0.55685563000000
H         0.27671832000000    2.20455559000000    1.51794201000000
C         0.20793822000000    3.22275378000000   -1.35816199000000
C         1.62121701000000    3.37905717000000   -0.83605299000000
H         1.71800880000000    4.27109905000000   -0.21043238000000
H         2.33976451000000    3.45977123000000   -1.65086482000000
H         2.17069965000000    1.28830380000000   -0.65351299000000
H         2.55689802000000    2.21863680000000    0.80007115000000
H        -0.13265217000000    3.69873924000000   -2.25936097000000
H        -2.89243786000000    2.58406602000000    0.44636686000000
 
 Bond Distances (Angstroems)
 ---------------------------
Si1-C2=1.9053        Si1-C6=1.8966        Si1-C10=1.9006       Si1-O21=1.6809       C2-Si1=1.9053        C2-H3=1.0866         
C2-H4=1.0850         C2-H5=1.0873         H3-C2=1.0866         H4-C2=1.0850         H5-C2=1.0873         C6-Si1=1.8966        
C6-H7=1.0852         C6-H8=1.0855         C6-H9=1.0843         H7-C6=1.0852         H8-C6=1.0855         H9-C6=1.0843         
C10-Si1=1.9006       C10-H12=1.0870       C10-H13=1.0853       C10-H14=1.0864       O11-C15=1.2006       H12-C10=1.0870       
H13-C10=1.0853       H14-C10=1.0864       C15-O11=1.2006       C15-C16=1.5112       C15-C19=1.5119       C16-C15=1.5112       
C16-H17=1.0898       C16-H18=1.0927       C16-C24=1.5336       H17-C16=1.0898       H18-C16=1.0927       C19-C15=1.5119       
C19-C20=1.5056       C19-C22=1.5766       C19-C23=1.5667       C20-C19=1.5056       C20-O21=1.3158       C20-O26=1.2036       
O21-Si1=1.6809       O21-C20=1.3158       C22-C19=1.5766       C22-C38=1.5291       C22-C39=1.5008       C22-H40=1.0907       
C23-C19=1.5667       C23-C24=1.5508       C23-C25=1.5212       C23-C39=1.5047       C24-C16=1.5336       C24-C23=1.5508       
C24-C27=1.5322       C24-H48=1.0942       C25-C23=1.5212       C25-C28=1.5329       C25-H29=1.0896       C25-H30=1.0928       
O26-C20=1.2036       C27-C24=1.5322       C27-C31=1.5232       C27-H32=1.0913       C27-H33=1.0920       C28-C25=1.5329       
C28-C31=1.5311       C28-H34=1.0888       C28-H35=1.0917       H29-C25=1.0896       H30-C25=1.0928       C31-C27=1.5232       
C31-C28=1.5311       C31-H36=1.0910       C31-H37=1.0923       H32-C27=1.0913       H33-C27=1.0920       H34-C28=1.0888       
H35-C28=1.0917       H36-C31=1.0910       H37-C31=1.0923       C38-C22=1.5291       C38-C42=1.5494       C38-H45=1.0903       
C38-H46=1.0883       C39-C22=1.5008       C39-C23=1.5047       C39-C41=1.3217       H40-C22=1.0907       C41-C39=1.3217       
C41-C42=1.5147       C41-H47=1.0746       C42-C38=1.5494       C42-C41=1.5147       C42-H43=1.0939       C42-H44=1.0894       
H43-C42=1.0939       H44-C42=1.0894       H45-C38=1.0903       H46-C38=1.0883       H47-C41=1.0746       H48-C24=1.0942       
 C  H  Rav=1.0887 sigma=0.0040  Rmin=1.0746  Rmax=1.0942    26
 C  C  Rav=1.5176 sigma=0.0517  Rmin=1.3217  Rmax=1.5766    18
 O  C  Rav=1.2400 sigma=0.0536  Rmin=1.2006  Rmax=1.3158     3
 Si C  Rav=1.9008 sigma=0.0035  Rmin=1.8966  Rmax=1.9053     3
 Si O  Rav=1.6809 sigma=0.0000  Rmin=1.6809  Rmax=1.6809     1
 
 selected bond angles (degree)
 --------------------
C6-Si1-C2=112.64               C10-Si1-C2=112.06              C10-Si1-C6=113.02              O21-Si1-C2=108.44              
O21-Si1-C6=100.42              O21-Si1-C10=109.51             H3-C2-Si1=110.76               H4-C2-Si1=111.55               
H4-C2-H3=107.75                H5-C2-Si1=111.38               H5-C2-H3=107.69                H5-C2-H4=107.54                
H7-C6-Si1=110.91               H8-C6-Si1=111.73               H8-C6-H7=107.58                H9-C6-Si1=110.69               
H9-C6-H7=108.00                H9-C6-H8=107.77                H12-C10-Si1=110.63             H13-C10-Si1=111.91             
H13-C10-H12=107.84             H14-C10-Si1=110.81             H14-C10-H12=107.58             H14-C10-H13=107.90             
 
 selected dihedral angles (degree)
 ---------------------------------
H3-C2-Si1-C6=188.36           H3-C2-Si1-C10= 59.59          H3-C2-Si1-O21=298.59          H4-C2-Si1-C6= 68.35           
H4-C2-Si1-C10=299.57          H4-C2-Si1-O21=178.57          H5-C2-Si1-C6=308.18           H5-C2-Si1-C10=179.41          
H5-C2-Si1-O21= 58.41          H7-C6-Si1-C2=171.51           H7-C6-Si1-C10=299.79          H7-C6-Si1-O21= 56.35          
H8-C6-Si1-C2= 51.50           H8-C6-Si1-C10=179.77          H8-C6-Si1-O21=296.33          H9-C6-Si1-C2=291.38           
H9-C6-Si1-C10= 59.66          H9-C6-Si1-O21=176.22          H12-C10-Si1-C2=185.31         H12-C10-Si1-C6= 56.73         
H12-C10-Si1-O21=305.68        H13-C10-Si1-C2= 65.02         H13-C10-Si1-C6=296.44         H13-C10-Si1-O21=185.40        
H14-C10-Si1-C2=304.54         H14-C10-Si1-C6=175.96         H14-C10-Si1-O21= 64.91        
           -------------------------------------------------
          |                Final Singlepoint                |
           -------------------------------------------------

          ...................................................
          :                      SETUP                      :
          :.................................................:
          :  # basis functions                 120          :
          :  # atomic orbitals                 119          :
          :  # shells                           71          :
          :  # electrons                       120          :
          :  max. iterations                   100          :
          :  Hamiltonian                  GFN2-xTB          :
          :  restarted?                      false          :
          :  GBSA solvation                  false          :
          :  PC potential                    false          :
          :  electronic temp.          300.0000000     K    :
          :  accuracy                    1.0000000          :
          :  -> integral cutoff          0.2500000E+02      :
          :  -> integral neglect         0.1000000E-07      :
          :  -> SCF convergence          0.1000000E-05 Eh   :
          :  -> wf. convergence          0.1000000E-03 e    :
          :  Broyden damping             0.4000000          :
          ...................................................

 iter      E             dE          RMSdq      gap      omega  full diag
   1    -66.6432732 -0.666433E+02  0.236E-05    3.40       0.0  T
   2    -66.6432732 -0.258638E-11  0.157E-05    3.40     920.3  T
   3    -66.6432732 -0.104876E-10  0.755E-06    3.40    1910.9  T

   *** convergence criteria satisfied after 3 iterations ***

         #    Occupation            Energy/Eh            Energy/eV
      -------------------------------------------------------------
         1        2.0000           -0.7774996             -21.1568
       ...           ...                  ...                  ...
        54        2.0000           -0.4151229             -11.2961
        55        2.0000           -0.4097947             -11.1511
        56        2.0000           -0.4052001             -11.0261
        57        2.0000           -0.3966827             -10.7943
        58        2.0000           -0.3950084             -10.7487
        59        2.0000           -0.3915865             -10.6556
        60        2.0000           -0.3801874             -10.3454 (HOMO)
        61                         -0.2550952              -6.9415 (LUMO)
        62                         -0.2325578              -6.3282
        63                         -0.2112545              -5.7485
        64                         -0.1363784              -3.7110
        65                         -0.1160239              -3.1572
       ...                                ...                  ...
       119                          0.7142982              19.4370
      -------------------------------------------------------------
                  HL-Gap            0.1250923 Eh            3.4039 eV
             Fermi-level           -0.3176413 Eh           -8.6435 eV

 SCC (total)                   0 d,  0 h,  0 min,  0.037 sec
 SCC setup                      ...        0 min,  0.000 sec (  1.204%)
 Dispersion                     ...        0 min,  0.000 sec (  0.680%)
 classical contributions        ...        0 min,  0.000 sec (  0.210%)
 integral evaluation            ...        0 min,  0.010 sec ( 28.650%)
 iterations                     ...        0 min,  0.005 sec ( 14.543%)
 molecular gradient             ...        0 min,  0.020 sec ( 53.708%)
 printout                       ...        0 min,  0.000 sec (  0.964%)

         :::::::::::::::::::::::::::::::::::::::::::::::::::::
         ::                     SUMMARY                     ::
         :::::::::::::::::::::::::::::::::::::::::::::::::::::
         :: total energy             -65.777906349144 Eh    ::
         :: gradient norm              0.000067394577 Eh/a0 ::
         :: HOMO-LUMO gap              3.403933759310 eV    ::
         ::.................................................::
         :: SCC energy               -66.643273230376 Eh    ::
         :: -> isotropic ES            0.097146258862 Eh    ::
         :: -> anisotropic ES          0.005428794405 Eh    ::
         :: -> anisotropic XC          0.022211675545 Eh    ::
         :: -> dispersion             -0.053573477728 Eh    ::
         :: repulsion energy           0.863976576414 Eh    ::
         :: add. restraining           0.000000000000 Eh    ::
         :: total charge               0.000000000000 e     ::
         :::::::::::::::::::::::::::::::::::::::::::::::::::::

           -------------------------------------------------
          |                Property Printout                |
           -------------------------------------------------

    * Orbital Energies and Occupations

         #    Occupation            Energy/Eh            Energy/eV
      -------------------------------------------------------------
         1        2.0000           -0.7774996             -21.1568
       ...           ...                  ...                  ...
        48        2.0000           -0.4514042             -12.2833
        49        2.0000           -0.4483112             -12.1992
        50        2.0000           -0.4476543             -12.1813
        51        2.0000           -0.4433991             -12.0655
        52        2.0000           -0.4326205             -11.7722
        53        2.0000           -0.4224680             -11.4959
        54        2.0000           -0.4151229             -11.2961
        55        2.0000           -0.4097947             -11.1511
        56        2.0000           -0.4052001             -11.0261
        57        2.0000           -0.3966827             -10.7943
        58        2.0000           -0.3950084             -10.7487
        59        2.0000           -0.3915865             -10.6556
        60        2.0000           -0.3801874             -10.3454 (HOMO)
        61                         -0.2550952              -6.9415 (LUMO)
        62                         -0.2325578              -6.3282
        63                         -0.2112545              -5.7485
        64                         -0.1363784              -3.7110
        65                         -0.1160239              -3.1572
        66                         -0.1046734              -2.8483
        67                         -0.0153721              -0.4183
        68                         -0.0079123              -0.2153
        69                          0.0081802               0.2226
        70                          0.0171184               0.4658
        71                          0.0233616               0.6357
       ...                                ...                  ...
       119                          0.7142982              19.4370
      -------------------------------------------------------------
                  HL-Gap            0.1250923 Eh            3.4039 eV
             Fermi-level           -0.3176413 Eh           -8.6435 eV

     #   Z          covCN         q      C6AA      α(0)
     1  14 Si       3.480     0.574    99.573    19.358
     2   6 C        3.649    -0.207    24.986     7.181
     3   1 H        0.925     0.053     2.288     2.366
     4   1 H        0.925     0.038     2.479     2.462
     5   1 H        0.925     0.042     2.427     2.436
     6   6 C        3.651    -0.209    25.014     7.184
     7   1 H        0.925     0.052     2.296     2.370
     8   1 H        0.925     0.042     2.417     2.431
     9   1 H        0.925     0.027     2.631     2.537
    10   6 C        3.649    -0.206    24.950     7.175
    11   8 O        0.856    -0.353    20.768     6.110
    12   1 H        0.925     0.050     2.324     2.384
    13   1 H        0.925     0.038     2.471     2.458
    14   1 H        0.925     0.055     2.257     2.349
    15   6 C        2.827     0.245    22.895     7.841
    16   6 C        3.819    -0.089    22.182     6.703
    17   1 H        0.925     0.069     2.100     2.266
    18   1 H        0.924     0.065     2.142     2.289
    19   6 C        4.186    -0.032    21.062     6.518
    20   6 C        2.779     0.370    20.730     7.457
    21   8 O        1.625    -0.345    19.838     6.012
    22   6 C        4.030    -0.013    20.733     6.468
    23   6 C        4.043     0.018    20.197     6.384
    24   6 C        3.863    -0.021    20.910     6.503
    25   6 C        3.805    -0.058    21.618     6.619
    26   8 O        0.856    -0.420    22.076     6.299
    27   6 C        3.807    -0.060    21.641     6.622
    28   6 C        3.804    -0.062    21.680     6.629
    29   1 H        0.925     0.053     2.288     2.366
    30   1 H        0.924     0.038     2.481     2.463
    31   6 C        3.804    -0.056    21.570     6.612
    32   1 H        0.924     0.041     2.439     2.442
    33   1 H        0.924     0.033     2.546     2.495
    34   1 H        0.925     0.054     2.268     2.355
    35   1 H        0.924     0.032     2.559     2.501
    36   1 H        0.924     0.032     2.559     2.502
    37   1 H        0.924     0.031     2.575     2.509
    38   6 C        3.837    -0.055    21.530     6.601
    39   6 C        3.287    -0.018    26.873     8.328
    40   1 H        0.924     0.034     2.524     2.484
    41   6 C        2.930    -0.051    29.258     8.871
    42   6 C        3.865    -0.058    21.573     6.605
    43   1 H        0.924     0.041     2.440     2.443
    44   1 H        0.925     0.041     2.433     2.439
    45   1 H        0.924     0.038     2.474     2.460
    46   1 H        0.925     0.037     2.487     2.466
    47   1 H        0.926     0.035     2.523     2.484
    48   1 H        0.924     0.037     2.493     2.469

 Mol. C6AA /au·bohr⁶  :      22263.060795
 Mol. C8AA /au·bohr⁸  :     552679.044850
 Mol. α(0) /au        :        227.306408


Wiberg/Mayer (AO) data.
largest (>0.10) Wiberg bond orders for each atom

 ---------------------------------------------------------------------------
     #   Z sym  total        # sym  WBO       # sym  WBO       # sym  WBO
 ---------------------------------------------------------------------------
     1  14 Si   3.710 --    10 C    0.909     2 C    0.902     6 C    0.892
                            21 O    0.888
     2   6 C    3.984 --     4 H    0.991     3 H    0.983     5 H    0.981
                             1 Si   0.902
     3   1 H    0.997 --     2 C    0.983
     4   1 H    0.998 --     2 C    0.991
     5   1 H    0.998 --     2 C    0.981
     6   6 C    3.984 --     9 H    0.998     8 H    0.985     7 H    0.984
                             1 Si   0.892
     7   1 H    0.997 --     6 C    0.984
     8   1 H    0.998 --     6 C    0.985
     9   1 H    0.999 --     6 C    0.998
    10   6 C    3.986 --    13 H    0.989    14 H    0.981    12 H    0.980
                             1 Si   0.909
    11   8 O    2.094 --    15 C    1.863
    12   1 H    0.998 --    10 C    0.980
    13   1 H    0.998 --    10 C    0.989
    14   1 H    0.997 --    10 C    0.981
    15   6 C    3.918 --    11 O    1.863    16 C    0.983    19 C    0.954
    16   6 C    3.995 --    24 C    0.994    15 C    0.983    17 H    0.959
                            18 H    0.942
    17   1 H    0.995 --    16 C    0.959
    18   1 H    0.995 --    16 C    0.942
    19   6 C    3.982 --    20 C    0.955    15 C    0.954    23 C    0.935
                            22 C    0.889
    20   6 C    3.923 --    26 O    1.737    21 O    1.170    19 C    0.955
    21   8 O    2.352 --    20 C    1.170     1 Si   0.888    26 O    0.154
    22   6 C    3.980 --    38 C    0.995    39 C    0.990    40 H    0.961
                            19 C    0.889
    23   6 C    3.977 --    25 C    0.990    39 C    0.981    24 C    0.957
                            19 C    0.935
    24   6 C    3.994 --    27 C    0.998    16 C    0.994    48 H    0.971
                            23 C    0.957
    25   6 C    3.995 --    28 C    1.001    23 C    0.990    29 H    0.973
                            30 H    0.972
    26   8 O    2.038 --    20 C    1.737    21 O    0.154
    27   6 C    3.997 --    31 C    1.010    24 C    0.998    32 H    0.975
                            33 H    0.974
    28   6 C    3.995 --    31 C    1.005    25 C    1.001    35 H    0.980
                            34 H    0.976
    29   1 H    0.997 --    25 C    0.973
    30   1 H    0.998 --    25 C    0.972
    31   6 C    3.998 --    27 C    1.010    28 C    1.005    36 H    0.979
                            37 H    0.975
    32   1 H    0.998 --    27 C    0.975
    33   1 H    0.998 --    27 C    0.974
    34   1 H    0.997 --    28 C    0.976
    35   1 H    0.998 --    28 C    0.980
    36   1 H    0.999 --    31 C    0.979
    37   1 H    0.999 --    31 C    0.975
    38   6 C    3.995 --    42 C    0.995    22 C    0.995    46 H    0.981
                            45 H    0.978
    39   6 C    3.962 --    41 C    1.878    22 C    0.990    23 C    0.981
    40   1 H    0.999 --    22 C    0.961
    41   6 C    3.981 --    39 C    1.878    42 C    1.009    47 H    0.969
    42   6 C    3.995 --    41 C    1.009    38 C    0.995    44 H    0.974
                            43 H    0.966
    43   1 H    0.998 --    42 C    0.966
    44   1 H    0.998 --    42 C    0.974
    45   1 H    0.999 --    38 C    0.978
    46   1 H    0.999 --    38 C    0.981
    47   1 H    0.999 --    41 C    0.969
    48   1 H    0.998 --    24 C    0.971
 ---------------------------------------------------------------------------

Topologies differ in total number of bonds
Writing topology from bond orders to xtbtopo.mol

molecular dipole:
                 x           y           z       tot (Debye)
 q only:        0.047       0.714      -0.143
   full:        0.005       0.952       0.014       2.420
molecular quadrupole (traceless):
                xx          xy          yy          xz          yz          zz
 q only:        9.032      -6.353       2.375       0.389       1.436     -11.406
  q+dip:        8.504      -3.824       1.647      -1.388       2.112     -10.150
   full:        9.176      -4.106       2.107      -0.626       2.130     -11.283

           -------------------------------------------------
          |                Geometry Summary                 |
           -------------------------------------------------

      molecular mass/u    :      318.4834192
   center of mass at/Å    :        0.0000063      -0.0000080       0.0000015
  moments of inertia/u·Å² :        0.1259629E+04   0.2262809E+04   0.2653339E+04
rotational constants/cm⁻¹ :        0.1338302E-01   0.7449871E-02   0.6353365E-02

 * 44 selected distances

     #   Z          #   Z                                           value/Å
     1  14 Si       2   6 C                                       1.9052926 (max)
     2   6 C        3   1 H                                       1.0865516
     2   6 C        4   1 H                                       1.0850215
     2   6 C        5   1 H                                       1.0873410
     1  14 Si       6   6 C                                       1.8966205
     6   6 C        7   1 H                                       1.0852338
     6   6 C        8   1 H                                       1.0854762
     6   6 C        9   1 H                                       1.0842812
     1  14 Si      10   6 C                                       1.9006202
    10   6 C       12   1 H                                       1.0870413
    10   6 C       13   1 H                                       1.0853420
    10   6 C       14   1 H                                       1.0864443
    11   8 O       15   6 C                                       1.2006210
    16   6 C       17   1 H                                       1.0898266
    16   6 C       18   1 H                                       1.0927266
    19   6 C       20   6 C                                       1.5055517
     1  14 Si      21   8 O                                       1.6809035
    20   6 C       21   8 O                                       1.3158119
    16   6 C       24   6 C                                       1.5336293
    23   6 C       25   6 C                                       1.5212274
    20   6 C       26   8 O                                       1.2035999
    24   6 C       27   6 C                                       1.5322495
    25   6 C       28   6 C                                       1.5329092
    25   6 C       29   1 H                                       1.0896478
    25   6 C       30   1 H                                       1.0927510
    27   6 C       31   6 C                                       1.5231772
    28   6 C       31   6 C                                       1.5310913
    27   6 C       32   1 H                                       1.0913125
    27   6 C       33   1 H                                       1.0919981
    28   6 C       34   1 H                                       1.0888459
    28   6 C       35   1 H                                       1.0916623
    31   6 C       36   1 H                                       1.0910450
    31   6 C       37   1 H                                       1.0923070
    22   6 C       38   6 C                                       1.5291054
    22   6 C       39   6 C                                       1.5007804
    23   6 C       39   6 C                                       1.5047060
    22   6 C       40   1 H                                       1.0907227
    39   6 C       41   6 C                                       1.3216988
    42   6 C       43   1 H                                       1.0938503
    42   6 C       44   1 H                                       1.0893776
    38   6 C       45   1 H                                       1.0902501
    38   6 C       46   1 H                                       1.0883196
    41   6 C       47   1 H                                       1.0745807 (min)
    24   6 C       48   1 H                                       1.0942138

 * 5 distinct bonds (by element types)

   Z      Z             #   av. dist./Å        max./Å        min./Å
   1 H    6 C          26     1.0886989     1.0942138     1.0745807
   6 C    6 C          11     1.5032842     1.5336293     1.3216988
   6 C    8 O           3     1.2400109     1.3158119     1.2006210
   6 C   14 Si          3     1.9008445     1.9052926     1.8966205
   8 O   14 Si          1     1.6809035     1.6809035     1.6809035


optimized geometry written to: xtbopt.xyz


           -------------------------------------------------
          | TOTAL ENERGY              -65.777906349144 Eh   |
          | GRADIENT NORM               0.000067394577 Eh/α |
          | HOMO-LUMO GAP               3.403933759310 eV   |
           -------------------------------------------------

------------------------------------------------------------------------
 * finished run on 2021/09/05 at 21:28:19.878     
------------------------------------------------------------------------
 total:
 * wall-time:     0 d,  0 h,  0 min,  0.201 sec
 *  cpu-time:     0 d,  0 h,  0 min,  0.392 sec
 * ratio c/w:     1.949 speedup
 SCF:
 * wall-time:     0 d,  0 h,  0 min,  0.056 sec
 *  cpu-time:     0 d,  0 h,  0 min,  0.112 sec
 * ratio c/w:     1.986 speedup
 ANC optimizer:
 * wall-time:     0 d,  0 h,  0 min,  0.117 sec
 *  cpu-time:     0 d,  0 h,  0 min,  0.231 sec
 * ratio c/w:     1.977 speedup

