56
 energy: -94.155047068875 gnorm: 0.000156866377 xtb: 6.4.0 (d4b70c2)
c         0.96554716999974   -2.74177403999975    0.17727162000002
c         1.16832473000018   -4.23932533000001   -0.00732709000009
c        -0.46061281000015   -2.35403843000006   -0.23247500999993
o        -0.76651547000013   -2.21196530999986   -1.41317611000005
o         0.78974222000022   -0.08232139999975   -0.23277365000020
o         1.13933489000016   -1.67997875000005   -3.47719251999990
n         1.87833775000024   -1.99667252000018   -0.67016258000001
c         1.62665881000004   -0.68879063999998   -0.88332230000005
c         2.37922721999985   -0.08253094999992   -2.04904987999982
c         1.46157352000017   -0.33046621999991   -3.28822829999975
n         2.66627241999974    1.31187143000019   -1.80260605999978
n        -1.33469471000015   -2.24546139999986    0.76859922000021
c        -2.73149367999982   -1.90189817000006    0.56162553000010
c        -3.56891233999997   -2.45022377999994    1.70579585000026
c        -2.90516107999983   -0.36998390999976    0.44567554999984
o        -3.52031218999983    0.28546418999994    1.25867307000022
n        -2.33310336000025    0.14155747000007   -0.65984389999975
o        -0.12435088000003    2.47852208999980   -1.42526253999986
o        -0.74487029000024    2.09218530999977    0.71258858999994
c        -2.31928166999980    1.56416543000019   -0.93812610999987
c        -0.92534579000004    2.10978061999980   -0.61017734999978
c        -2.68748764000025    1.83544721999977   -2.38973752999977
h         1.13595318000016   -2.44910077999997    1.21971923000010
h         0.95804688999974   -4.51991736000002   -1.03782475000005
h         0.49839099000004   -4.78977758999985    0.64786629000004
h         2.19326217999990   -4.50971496000007    0.23480977000026
h         0.44076954000011   -1.93833372999997   -2.84620459000008
h         2.40667669000014   -2.50954704999985   -1.36001871000015
h         3.32503996999977   -0.61673320999980   -2.19997117999999
h         1.99583327000015   -0.00862597000007   -4.18793456000020
h         0.56381566999979    0.29166647000004   -3.17294626000024
h         1.81710516000007    1.78003880000006   -1.49465940000000
h         2.96744853000006    1.76219508000006   -2.66061170000012
h        -0.99018959999988   -2.21185341000025    1.71986703000014
h        -3.03182981000008   -2.34691827000014   -0.39498053999977
h        -4.61736501999986   -2.22765621999982    1.53113047000019
h        -3.27527027000016   -1.97537407000008    2.63888434999983
h        -3.44003035000001   -3.52618875000004    1.79034292000024
h        -1.76995086999990   -0.46097822999995   -1.24883763999995
h        -3.03797923000001    2.01625060999982   -0.24373634000014
h        -2.70025139999993    2.90535559000015   -2.57711561000004
h        -3.66832728000007    1.42247481000020   -2.60820543000005
h        -1.95399454999982    1.38066160999975   -3.05122923999977
c         0.51722359000018    2.23847331999974    1.26055915999984
c         0.94182573999997    1.24207740000020    2.15356321000010
c         1.35182380000023    3.29404990999991    0.93955873000014
c         2.21983145999983    1.32383645000026    2.69986159999995
c         3.04958205999986    2.38213519999983    2.38473633000010
c         2.61435277999983    3.36264490999989    1.50796419000002
h         1.02288834000024    4.04841453999992    0.24236526999977
h         4.03869646000010    2.44036060000025    2.81264321000020
h         3.26398492000011    4.18573378000004    1.25238262000009
h         2.53920017000005    0.54118575999993    3.37183802000003
c         0.06254597999988    0.10514940999985    2.41603171999990
o         0.40688003000009   -0.97371238999989    2.84721420000026
h        -0.99395227999993    0.30077797999989    2.17213985000023
56
 energy: -94.098794688741 gnorm: 0.087073106110 xtb: 6.4.0 (d4b70c2)
c         0.95687227127974   -2.60508340088445    0.24256063725542
c         1.16835148559795   -4.10159210352451    0.05927521484903
c        -0.47851636534959   -2.24990393112559   -0.16446580713596
o        -0.81136417689098   -2.19596168103883   -1.34519392219350
o         0.63394369295974    0.03311934435882   -0.37874949254606
o         1.10282535585172   -1.71754431826772   -3.44552567436483
n         1.86520007148701   -1.82399730660740   -0.57680056384661
c         1.50943072032730   -0.58273391395148   -0.96670791106492
c         2.29621559505831   -0.02762387504412   -2.13531957973629
c         1.42355457827398   -0.35571226271286   -3.38829369460615
n         2.54660754590989    1.36408369603114   -1.83877040511766
n        -1.36857130150807   -2.16401921534834    0.82466704703316
c        -2.76347301590808   -1.84964492263346    0.56516908328307
c        -3.64156359123562   -2.44569951320554    1.65362330287856
c        -2.87855131476540   -0.31292346841392    0.44022812636736
o        -3.35544972852033    0.33598879670064    1.34602548547109
n        -2.28971794595196    0.10584259854312   -0.69511681317353
o        -0.03792777166227    2.68278633069986   -1.33550621375477
o        -0.72256262978911    1.88942062453211    0.68434039921504
c        -2.12809243127186    1.48328783768183   -1.11697844962995
c        -0.79208602175297    2.06109546709939   -0.63788686206722
c        -2.41728697091877    1.62631924282210   -2.60434312829387
h         1.18260638152147   -2.35043839833870    1.28447853685751
h         0.20945541068975   -4.55582699458869    0.30230415948735
h         1.92240141026282   -4.45082618130826    0.75965478645031
h         1.41038995606427   -4.25537871434158   -0.98953584852605
h         0.40489715834095   -1.99294019336009   -2.82107395079715
h         2.42041681573413   -2.38126099195227   -1.20868295587472
h         3.16175029940403   -0.66003578363130   -2.36687067330698
h         1.95425220214653   -0.07325601699234   -4.30320597662717
h         0.55578618990644    0.31318761954068   -3.31174852653025
h         1.64730603030469    1.82604822179107   -1.72500560872588
h         3.05318011630734    1.82426132045101   -2.58796524160757
h        -1.14147310353936   -2.24656095433259    1.80769145882578
h        -2.89960526791101   -2.36888067320113   -0.39149287803504
h        -4.62925376384112   -2.43585768832575    1.20232672718311
h        -3.68747756445674   -1.77138846936953    2.50542057174780
h        -3.25562788078881   -3.43842435781042    1.87044213054631
h        -1.74547556790932   -0.53723979850675   -1.25845409310526
h        -2.85004256239125    2.09991850888451   -0.56776176680649
h        -2.11329828743346    2.57529881092697   -3.03678507422051
h        -3.48899554235705    1.56465560515274   -2.77155307582439
h        -1.96255314773398    0.84383665896429   -3.20712957550130
c         0.45878333186652    2.16348641644554    1.35057042291458
c         0.97418820874171    1.10582312127304    2.11624271451069
c         1.21992919910033    3.28400871543924    1.06963031263117
c         2.22058748906068    1.25716486369255    2.71791495169049
c         3.03652252792007    2.31901920984537    2.37953420816896
c         2.49930372311506    3.33161318291140    1.60132951163885
h         1.02320589495614    4.12507668846400    0.42368309694411
h         4.04670373750647    2.38802363384184    2.75318387272427
h         3.06754739387556    4.14041978493336    1.16802808793970
h         2.67791619387203    0.49304126800484    3.32869831700639
c         0.13606988871185   -0.06388450543118    2.36916462864741
o         0.53311401402377   -1.11123722047552    2.83158787863583
h        -0.90495516543092    0.18957183261192    2.11232024540079
56
 energy: -94.074516742189 gnorm: 0.113881242481 xtb: 6.4.0 (d4b70c2)
c         0.95054581962958   -2.74940966017438    0.14282084389012
c         1.31375566299040   -4.22768784838981    0.11777082369599
c        -0.48644151750367   -2.45631161458139   -0.30587107020886
o        -0.79523401564028   -2.42240871333871   -1.49385848198380
o         0.80849992314811   -0.00745310481578   -0.31689979403107
o         1.09067919388116   -1.75794173820199   -3.61372497130919
n         1.83926739380405   -1.99604445099310   -0.72269777200225
c         1.61098422770986   -0.68464028873439   -0.94050570149943
c         2.26155580123091   -0.09720527913089   -2.17521520534683
c         1.38568390944687   -0.40122408566472   -3.43201445981022
n         2.58305424338963    1.27853762227320   -1.87279542305881
n        -1.34196661920153   -2.32214498279831    0.70804898487110
c        -2.70897095901656   -1.86318559423497    0.52755913969842
c        -3.49985048301715   -2.22583750108485    1.77417451080282
c        -2.85609449345505   -0.33378431730897    0.35536022686511
o        -3.40376531193980    0.27348375766128    1.24993846652345
n        -2.27295153442415    0.14522003434318   -0.75890948471231
o        -0.08403844818343    2.70130574415227   -1.23773284788944
o        -0.83359408811000    2.02405193807555    0.78736299566707
c        -2.20821950192904    1.56158066495961   -1.06086602296674
c        -0.90519516504642    2.17500396626396   -0.53727939363210
c        -2.29615709896529    1.81500789724152   -2.55899377630110
h         1.17352640209713   -2.43532415079826    1.16898984685528
h         2.00583675203674   -4.60108692332633    0.87041349022658
h         1.71379230646290   -4.48506628260302   -0.85937517283549
h         0.41490290281461   -4.82778049726240    0.23689310178553
h         0.36977602197947   -2.00088554894002   -3.00203588897616
h         2.28433779449384   -2.47863791779546   -1.48892207779778
h         3.13615891638142   -0.71500306543515   -2.41208297426213
h         1.83410263471730   -0.06955943049697   -4.37403632028484
h         0.53157113524668    0.23458496515788   -3.16267005119766
h         1.87860666573653    1.72571059740002   -1.29065557005167
h         2.68756897113120    1.89125713560711   -2.67486997547760
h        -0.96938523676118   -2.12882063710464    1.62920723852726
h        -2.91721277890526   -2.46870402470396   -0.36312746618812
h        -4.50499695404391   -1.81564375971914    1.74736028132293
h        -2.95588203009577   -1.98474423294590    2.68430330394363
h        -3.69797711039615   -3.29391564584664    1.81178179590729
h        -1.92561172780266   -0.43864939332896   -1.51094350655483
h        -2.99431529093993    2.11269025945513   -0.53037948948633
h        -2.51324407153113    2.84905163604900   -2.81119244562143
h        -3.07462014770274    1.16207599992485   -2.94369632546617
h        -1.34088527960665    1.56362599245886   -3.01361035473291
c         0.43903294586481    2.21466568153858    1.29592923031385
c         0.90426302715945    1.20744789417275    2.15594155208363
c         1.28297745915513    3.28672705234816    1.06727519205186
c         2.17974099015028    1.28738844739682    2.70838199715308
c         2.99026447156192    2.37604686061135    2.45213853673785
c         2.53193641527098    3.41278149256622    1.65547685093114
h         0.84602529116034    3.96595548435209    0.35238726776343
h         4.00525059122858    2.47848962056426    2.80448838208568
h         3.17445904812407    4.27676842277321    1.58124506416878
h         2.30467819027224    0.47577958127084    3.40964691607209
c        -0.00279963174246    0.13585047301295    2.56034734771898
o         0.40106617328719   -0.94290047711610    2.93666611003501
h        -1.03420793902568    0.51665484449507    2.48874252228210
56
 energy: -94.063454058198 gnorm: 0.103850554989 xtb: 6.4.0 (d4b70c2)
c         1.05501422921472   -2.81523559031509    0.03649550825539
c         1.17109714149583   -4.33323768625463    0.04354423926407
c        -0.39272602775054   -2.43192742547244   -0.29408957118174
o        -0.78947242624456   -2.33019697354528   -1.45169896502594
o         0.89762069121680   -0.23532326084510   -0.27544269452358
o         1.07754246758490   -1.78607603372871   -3.65800498814019
n         1.92560895469049   -2.14197618629479   -0.90970438717200
c         1.66030302166491   -0.82457542506787   -1.02547297031423
c         2.31514119243309   -0.17230563200245   -2.22487361351750
c         1.29698089459528   -0.43124958380639   -3.38047778718727
n         2.61179516382721    1.21999369524109   -1.97791915244249
n        -1.14396029283694   -2.19779005269853    0.78237897228752
c        -2.53214342695043   -1.82840556892468    0.56232476650134
c        -3.36160239937235   -2.27919525064223    1.75389649469726
c        -2.76861751896283   -0.31715931938152    0.33742292571289
o        -3.56687721088545    0.25658588405532    1.04635590618559
n        -2.11819382969740    0.23577185593929   -0.70292029038268
o         0.03862858060094    2.56512749946155   -1.30060238193863
o        -0.79127660354773    2.20626095889982    0.76597391076679
c        -2.21352723910943    1.65664327526710   -0.97399477126790
c        -0.85025221947281    2.22648068626003   -0.56770660876273
c        -2.63694505246387    1.83096076351558   -2.42543402725654
h         1.37607102643070   -2.52027448951477    1.04213627321225
h         1.90240469736322   -4.58404975572527   -0.72271723658774
h         0.24085596388740   -4.82980664377745   -0.21943464586695
h         1.52836019378587   -4.72614645732737    0.99234527050730
h         0.45736927510554   -2.05090652285994   -2.95221703479169
h         2.23104997821574   -2.52291388427055   -1.79269705495415
h         3.16000322386929   -0.78381950782563   -2.56394584693197
h         1.72237514917158    0.01783859319786   -4.28371945964891
h         0.43053988156468    0.14069897337350   -3.02206042019276
h         1.70799051580152    1.63685771985499   -1.76706752103835
h         2.96426823248383    1.62059208953197   -2.84102736102277
h        -0.79257856385638   -2.16050042168059    1.73099063091802
h        -2.73172804017249   -2.46112008369609   -0.31127593067520
h        -4.32307467589935   -1.79528137199304    1.61003630060633
h        -3.19343922364682   -1.90591653547160    2.76124261609556
h        -3.44870357802510   -3.36037625184553    1.82404218847439
h        -1.38108331996631   -0.26147070210690   -1.18925510700497
h        -2.93749716132688    2.14171343276450   -0.30791757653513
h        -2.95184157339547    2.84581268814153   -2.65102907974428
h        -3.45175870735941    1.13389784195603   -2.60008460128085
h        -1.75277172304571    1.54700759443721   -2.99113842489556
c         0.45535332872452    2.32302366150831    1.35489926876734
c         0.75986970320797    1.26855143133573    2.23005982050151
c         1.33841626546345    3.34162760669914    1.04427657989559
c         2.00090632318685    1.37347142150156    2.85234984836338
c         2.86377438932762    2.44227145531874    2.70774224590963
c         2.53126214795367    3.38578327606433    1.74921514437862
h         1.19992249255440    4.15181862656551    0.34588329143926
h         3.75527883043601    2.40068317039596    3.31464586723810
h         3.14582024354704    4.25151423397075    1.55518583933100
h         2.37648286492761    0.64880762343121    3.55938264749650
c        -0.18147793346077    0.17569803385466    2.46279105015214
o         0.24728499826128   -0.85022953692137    2.94451917143737
h        -1.25814230841074    0.24812544259169    2.24032666723230
56
 energy: -94.062880586960 gnorm: 0.098138622243 xtb: 6.4.0 (d4b70c2)
c         0.99829117888245   -2.79872668108968    0.05424393005281
c         1.12799050893288   -4.29052904312097   -0.22063619866366
c        -0.42399465762561   -2.35132687308688   -0.30506081980537
o        -0.83800075223870   -2.22493851840931   -1.45416535526357
o         1.00719152765922   -0.05798259869618   -0.31441010247039
o         0.91962830127536   -1.80097904473546   -3.69906206945980
n         1.95382691577882   -2.06370061255617   -0.75396135040915
c         1.76386479277254   -0.74762299706159   -0.98021003809586
c         2.41729473927823   -0.28484764243226   -2.26539449568091
c         1.34609228648864   -0.50591905405115   -3.38019317872077
n         2.80388834796251    1.10728312080474   -2.26758998900652
n        -1.22131012562672   -2.13432460080458    0.74143610340110
c        -2.64576809135540   -1.88630800345646    0.59539353786039
c        -3.33579201152707   -2.47983934073385    1.81303233691929
c        -2.97905237231217   -0.39327316158659    0.37148596675374
o        -3.73772318728322    0.17322733433447    1.12811258538416
n        -2.23599378647010    0.12917576159314   -0.62149384934935
o         0.02364033289274    2.52455138720412   -1.49270011070180
o        -0.62372256937134    2.15241882317523    0.63598927341313
c        -2.16318453612824    1.53782827266753   -0.95592219605005
c        -0.76100031165889    2.09634354701097   -0.69088714511091
c        -2.65684420328519    1.79610887979611   -2.37223303452260
h         1.11437483886060   -2.64293026707782    1.13296767884848
h         0.68362818823914   -4.41222223896405   -1.20684458364509
h         0.56736096167087   -4.74733008151212    0.59060642460010
h         2.17086732239605   -4.59024717327232   -0.15124901101828
h         0.09876164484499   -2.01755426868092   -3.21723251823301
h         2.51502365729439   -2.58186859993506   -1.41323667472126
h         3.26599102547524   -0.95569354115029   -2.44537073093983
h         1.84166347797468   -0.11355237622621   -4.27402960980151
h         0.54279728553628    0.19300904556204   -3.11088881021476
h         2.14173277379624    1.66461941781200   -1.73277870005256
h         2.70542559257239    1.55673810948351   -3.17200549980188
h        -0.91144271248019   -2.05678077229758    1.70200512965210
h        -2.77719746136230   -2.43324099153437   -0.34637632688697
h        -4.37466254561078   -2.71361641046022    1.59997452721985
h        -3.09820466870384   -1.81467043245249    2.63975153874554
h        -2.88389185751735   -3.44542906356667    2.02488636299358
h        -1.61733301554331   -0.49433955294332   -1.12705404888963
h        -2.84404530224144    2.13379386555616   -0.33597223470165
h        -2.51987686930167    2.83439753869438   -2.66063203458502
h        -3.70926294140508    1.52659064334904   -2.36245808360335
h        -2.09811683545161    1.14968160188376   -3.04481674214599
c         0.54470751046946    2.34206545943158    1.35247936147774
c         0.85091155999150    1.38574536156965    2.33341708745356
c         1.45640952588166    3.36731278000222    1.17497461851627
c         2.00434463352307    1.45456437117279    3.11012877413821
c         2.85648229702699    2.52458903741292    2.91856997043301
c         2.57859891903944    3.50275203233035    1.97754333880843
h         1.17264223268526    4.07191645275977    0.40923773034997
h         3.70108905451300    2.54146395753872    3.59028152988178
h         3.34769177256781    4.23922667531129    1.80170140734872
h         2.20794813413883    0.61533643457446    3.75845956391076
c        -0.14383690474871    0.31596046995024    2.35917594106800
o         0.07928603495867   -0.74813970895528    2.89427777543013
h        -1.12775282811587    0.36078127495421    1.86537146768718
56
 energy: -94.065569980591 gnorm: 0.092281556341 xtb: 6.4.0 (d4b70c2)
c         0.98139664587250   -2.74612653787415   -0.04079628651675
c         1.16909886250550   -4.25672779704573   -0.06738585383227
c        -0.48297622930700   -2.36347520919594   -0.28849275768835
o        -0.88201378837630   -2.07337473191407   -1.41296020495506
o         0.99310336653769   -0.13491624524727   -0.37209510247287
o         1.02732185588195   -1.77231492099922   -3.66701511421818
n         1.81424258654901   -2.10609237182689   -1.04241075795106
c         1.74667571874869   -0.76026968111209   -1.10182769387902
c         2.43488288909492   -0.18334914681977   -2.32099314755319
c         1.44802355606667   -0.44692964596985   -3.50241489514887
n         2.75841144970611    1.21924896444567   -2.19635242431853
n        -1.27038368195572   -2.29433685173789    0.78536344827373
c        -2.64197728428927   -1.83728362125789    0.63786935250131
c        -3.56378877440783   -2.34076797870095    1.73687972263894
c        -2.85268967692731   -0.31797242992201    0.44380783662985
o        -3.59370974862430    0.30419349227905    1.17373036491959
n        -2.21426297380506    0.15336627535024   -0.64309099033636
o         0.03321550729890    2.29895339863614   -1.44884809802217
o        -0.66785981490828    2.04576884521352    0.67945535943463
c        -2.21722663893761    1.54814836292290   -1.03808416077593
c        -0.82754859470823    2.06134735960962   -0.64600592185213
c        -2.57356034245622    1.75442319551663   -2.50328795962223
h         1.14791417667534   -2.36802237541468    0.97443867192848
h         0.38107450322938   -4.86333057833267   -0.51001974337602
h         1.30333628100997   -4.67092195511966    0.92836049296215
h         2.05295165479314   -4.37576305670368   -0.68937655817998
h         0.29995737864427   -2.00723172807191   -3.05985646711509
h         2.07058996705906   -2.58128153742101   -1.89479862592052
h         3.39083326780952   -0.69859138629957   -2.47394856581799
h         1.89130910802404   -0.04596039394718   -4.41958857540891
h         0.55964028070721    0.16437009224118   -3.29409788621428
h         1.91173929674926    1.68558807680342   -1.87890799617322
h         3.04219776984392    1.50520855931281   -3.12767650965272
h        -0.89704116608585   -2.29933777286021    1.72627474815621
h        -2.95310420959519   -2.36538644502279   -0.27188187822300
h        -4.51933036676246   -1.82921458603612    1.66942063081021
h        -3.15625790694630   -1.99723173025445    2.68464736318409
h        -3.65213570216319   -3.42398223621718    1.75423153129409
h        -1.66135044524269   -0.51929677705185   -1.16166189699725
h        -2.93109131981077    2.16102715625234   -0.47429238613225
h        -2.48758021885212    2.80870344498429   -2.75042750980713
h        -3.58066008728677    1.43269597060864   -2.75341300049742
h        -1.89511866064795    1.19001600061968   -3.13856329724684
c         0.52820023760451    2.18831024005928    1.36039244006993
c         0.79339797716913    1.36321458762536    2.46467298604311
c         1.39034103732602    3.24387948443215    1.12305795928194
c         1.92622294916146    1.59529165971904    3.24009095358573
c         2.77350714800644    2.65220669620671    2.97022729705686
c         2.49428341494065    3.50959875410431    1.91834031714439
h         1.25838853038208    3.76473087813666    0.18783303447600
h         3.77021003528979    2.73365037782326    3.37617323176472
h         3.17205331187884    4.30000138456521    1.63424381702743
h         2.05846630939691    0.81687181099705    3.97674898728692
c        -0.01137621272404    0.14646886321840    2.54527277643076
o         0.41879577691205   -0.86535227472754    3.05477952865802
h        -1.03703036455410    0.18439369161595    2.14460126323537
56
 energy: -94.048708436120 gnorm: 0.115894417961 xtb: 6.4.0 (d4b70c2)
c         0.91901928724292   -2.64742400085709    0.02906115417336
c         1.01890681782607   -4.15963749587203    0.17427863466952
c        -0.53091985822625   -2.37830661603916   -0.39214639997994
o        -0.86623136694463   -2.36039440173407   -1.57327367679600
o         1.15423418841121   -0.09440388904418   -0.28015470635166
o         0.93649860130644   -1.67194703395724   -3.72408121175769
n         1.82784011906566   -2.12635849220133   -0.97545020661113
c         1.73619897902603   -0.78651533093520   -1.10097539226227
c         2.40995017924926   -0.25113152952484   -2.34687037976602
c         1.36846700221415   -0.35799622708992   -3.50575609296865
n         2.64352924971242    1.15821219699381   -2.13081811980847
n        -1.31385605583019   -2.24432717479268    0.67884294533226
c        -2.69503309150089   -1.80281113072880    0.58222643780124
c        -3.43351095072023   -2.33806441788447    1.79845465815138
c        -2.75649466346000   -0.27008213392596    0.38901573765502
o        -3.14996252839952    0.51369299439107    1.22559667449239
n        -2.34069046195247    0.11769404037739   -0.83075243352392
o        -0.10924130407813    2.65909579290940   -1.32746614821606
o        -0.65688957820370    1.72634610308339    0.66117653168823
c        -2.23384468315322    1.54246287100324   -1.07583041277800
c        -0.86477571028126    2.05490532676307   -0.61609516889410
c        -2.26647935561525    1.78788793263336   -2.57751170259968
h         0.90362965360842   -2.11059318021253    0.98455510754491
h         0.98528436384150   -4.72163321839862   -0.75733524632973
h         0.22668126654404   -4.55777855805689    0.80272882558826
h         1.89440540097000   -4.47383716126368    0.73732249514860
h         0.26228958572702   -1.96889267627830   -3.08365002846334
h         2.04923732756194   -2.71093422162888   -1.76749710682459
h         3.37883232782325   -0.70406326525244   -2.58942197521932
h         1.91657758390194   -0.00485044129262   -4.38515863191050
h         0.51418927094063    0.31773977765280   -3.36469369647400
h         2.06707526834829    1.50965915216089   -1.36971187737339
h         2.44324736990440    1.78823919351421   -2.90063970273613
h        -0.83561829295667   -2.25200101075686    1.57100519009424
h        -3.16915707452868   -2.36478645568488   -0.23185589249772
h        -4.38753232452828   -1.84581792203279    1.96226535020420
h        -2.82809193511579   -2.07591411143061    2.66280822844685
h        -3.61098057481488   -3.40725808922051    1.88084894439575
h        -1.86070360324343   -0.49002501902723   -1.48450604971850
h        -3.03029644698748    2.06564225642943   -0.53266167242026
h        -2.30910966740433    2.85305393172128   -2.78627336766967
h        -3.17689596287385    1.31811643802961   -2.93914298031963
h        -1.38269052076425    1.39381147796366   -3.07353024419795
c         0.50049766734340    2.03608465668145    1.35332522004364
c         0.91578319585583    1.19935658704427    2.40116694888083
c         1.16895905179986    3.21738195355872    1.08586133280313
c         2.07677944645219    1.51369439259963    3.10238352309904
c         2.70224785584660    2.72797349234709    2.89719617285159
c         2.24549208530341    3.56108289433462    1.88880331737776
h         1.08429177933578    3.83139231977021    0.20315751446290
h         3.66814969637157    2.88853448645848    3.35117373397697
h         2.74551328433655    4.43870211566895    1.50856328913650
h         2.63490027532586    0.93165489491620    3.82059101933846
c         0.04411375199725    0.05754992802487    2.66780891291605
o         0.43916640259526   -0.98955096888287    3.13250258900749
h        -0.95551607220238    0.30548449086917    2.27638706721387
56
 energy: -94.032217417711 gnorm: 0.139445069275 xtb: 6.4.0 (d4b70c2)
c         1.03459552432039   -2.76090312856071    0.09883613753712
c         1.23651766343818   -4.26644347979243   -0.00329609207329
c        -0.41551386493584   -2.36939949039104   -0.21111734158081
o        -0.76362753000745   -2.12088118988285   -1.36214811026762
o         1.06235558122516    0.01677797899754   -0.30522927584022
o         0.77686732072174   -1.76567196039813   -3.71639443883209
n         1.82727765867800   -2.01922192472915   -0.86452862754214
c         1.69880097562371   -0.69222372336307   -1.06923301404863
c         2.26763108351037   -0.25425565658622   -2.40244233676057
c         1.12386055211168   -0.43543155488703   -3.45033910402040
n         2.90745717784759    1.01174808799138   -2.12795264729476
n        -1.34503695589255   -2.26670570866363    0.73935547169270
c        -2.69185478576027   -1.73615717509375    0.61082083466428
c        -3.50553829598599   -2.17034975206958    1.81931272936727
c        -2.69271124992515   -0.20314849977816    0.41019748257547
o        -3.12033306098915    0.61597309518008    1.19452360364410
n        -2.23534644035695    0.11864415943603   -0.81387963165623
o        -0.13727348528620    2.76076287632780   -1.36061306789210
o        -0.70207301958122    1.81570714565194    0.64319249675482
c        -2.17003106956769    1.52251569803214   -1.16930054073167
c        -0.87279160867551    2.14313705052608   -0.63986458867208
c        -2.27525716440642    1.60482747177900   -2.68538015008222
h         1.12541039986880   -2.29282185212894    1.08577354384335
h         1.79159572733332   -4.47164823660183   -0.91688978509625
h         0.30850083303599   -4.83200630638980   -0.00002133423669
h         1.90067429002465   -4.44802789160086    0.83822673267912
h         0.04700564129908   -1.98856538098083   -3.10770152466699
h         2.05287454674217   -2.61254658243830   -1.64884724595636
h         3.14295284217935   -0.88093968594494   -2.61170293634273
h         1.51885499519381   -0.10042500950605   -4.41482652545955
h         0.22002158181096    0.14753242243839   -3.22777156971881
h         2.15920634221003    1.61993951556339   -1.80342107446454
h         3.34359771717079    1.35188063096330   -2.97869549953469
h        -0.94064582973859   -2.40049023384423    1.65766545948628
h        -3.16979272148178   -2.23397130487603   -0.24187857057217
h        -4.56787570230363   -2.32914879570668    1.65956469339660
h        -3.18380507265470   -1.36237712778528    2.47202249082041
h        -3.16418719825428   -3.12670430458155    2.20703013827067
h        -1.74103527018421   -0.51469502676667   -1.43165107785582
h        -2.88958680615810    2.01475994871065   -0.50370346073998
h        -1.80463890548425    2.54642904087822   -2.95348892482986
h        -3.32891688485743    1.53659419828322   -2.94124387333490
h        -1.74501416350641    0.81142924479237   -3.20670054660544
c         0.43922937102122    2.11823865375280    1.36461908066109
c         0.76569381309261    1.14770948450790    2.32484925502027
c         1.09482366337040    3.33445901635531    1.29501488295607
c         1.95837777151065    1.40191450208068    2.99664517797198