[Molden Format]
[Geometries] (XYZ)
12

C        0.452813       1.683425      -1.587846
C        0.605891       0.410178      -0.765196
C        1.424539      -0.630485      -1.481877
O        1.744529       2.229984      -1.717725
O        1.652406       3.441195      -2.465850
O        2.176389      -1.396535      -0.954169
H        2.561343       3.767011      -2.433752
H       -0.205238       2.400984      -1.081155
H        0.038342       1.465672      -2.581667
H        1.257648      -0.648497      -2.576007
H        1.065999       0.630716       0.198832
H       -0.385752      -0.013938      -0.589377
12

C        0.722185       1.565864      -1.735269
C        0.574610       0.469077      -0.727397
C        1.493188      -0.600638      -1.466068
O        1.907937       2.300888      -1.841131
O        1.600078       3.539352      -2.493976
O        2.195634      -1.494823      -1.094529
H        2.463043       3.979275      -2.512867
H        0.096461       2.238027      -0.867880
H        0.412570       1.268419      -2.742718
H        1.263661      -0.423698      -2.521928
H        0.805213       0.511976       0.369284
H       -0.418545       0.226818      -0.387364
12

C        0.846120       1.511143      -1.821890
C        0.527037       0.497876      -0.759023
C        1.530563      -0.543467      -1.465975
O        1.974855       2.319129      -1.943471
O        1.550803       3.569957      -2.523203
O        2.255773      -1.435766      -1.100213
H        2.385201       4.060062      -2.586691
H        0.340127       2.059183      -0.676577
H        0.564122       1.253057      -2.847739
H        1.236034      -0.520198      -2.496959
H        0.488285       0.186173       0.345638
H       -0.405602       0.479453      -0.219421
12

C        0.830187       1.457578      -1.862982
C        0.425180       0.461226      -0.797430
C        1.560711      -0.487180      -1.515344
O        1.971542       2.225624      -2.030369
O        1.564249       3.507676      -2.549108
O        2.405642      -1.261180      -1.112881
H        2.412694       3.963175      -2.654469
H        0.386954       1.902923      -0.573247
H        0.544460       1.301275      -2.912275
H        1.195980      -0.739335      -2.477488
H        0.193840      -0.114744       0.078880
H       -0.357269       0.607881       0.029786
12

C        0.949939       1.311708      -1.906763
C        0.286346       0.522766      -0.714645
C        1.593256      -0.468678      -1.594090
O        2.003290       2.262626      -2.052529
O        1.419222       3.502950      -2.494576
O        2.568862      -1.061929      -1.183225
H        2.197452       4.071427      -2.587132
H        0.757437       1.702001      -0.505448
H        0.438873       1.529825      -2.821351
H        1.149155      -0.974006      -2.416668
H       -0.224317      -0.107556       0.042628
H       -0.430403       1.137289      -0.104713
12

C        0.860585       1.290766      -1.903213
C        0.165135       0.569310      -0.696137
C        1.525012      -0.360670      -1.704275
O        1.936739       2.193533      -2.077950
O        1.393882       3.463515      -2.476876
O        2.625954      -0.735701      -1.341818
H        2.193416       3.995160      -2.595420
H        0.718390       1.617552      -0.330519
H        0.284679       1.508646      -2.796958
H        1.076787      -1.148006      -2.277302
H       -0.432055      -0.150107      -0.140178
H       -0.494524       1.283895      -0.097999
12

C        0.747936       1.257755      -1.875659
C        0.010463       0.695475      -0.646083
C        1.458338      -0.225449      -1.821150
O        1.841750       2.116816      -2.090704
O        1.340052       3.411187      -2.447452
O        2.645689      -0.389160      -1.582005
H        2.156694       3.903177      -2.607606
H        0.654983       1.439279      -0.020836
H        0.101414       1.462094      -2.739061
H        1.070784      -1.189473      -2.121153
H       -0.655960      -0.073163      -0.316006
H       -0.627232       1.504948      -0.164812
12

C        0.831376       1.100746      -1.780647
C        0.064593       0.797409      -0.539848
C        1.613955      -0.280569      -1.840344
O        1.912755       1.965404      -1.992044
O        1.410087       3.263748      -2.316999
O        2.822059      -0.252688      -1.808854
H        2.224822       3.748865      -2.502366
H        0.723791       1.118295       0.303712
H        0.132965       1.252172      -2.618456
H        1.223318      -1.302797      -1.917820
H       -0.624248      -0.007234      -0.388149
H       -0.546372       1.697112      -0.280235
12

C        1.028158       0.960979      -1.829205
C        0.095940       1.133652      -0.623498
C        1.716565      -0.387103      -1.771220
O        2.019938       1.953097      -1.891919
O        1.416657       3.192389      -2.268154
O        2.889862      -0.592982      -1.829136
H        2.191113       3.754006      -2.401127
H        0.666703       1.062827       0.298989
H        0.429665       0.984274      -2.755565
H        0.979824      -1.207768      -1.657559
H       -0.677180       0.371402      -0.632557
H       -0.368335       2.114938      -0.674839
[GEOCONV]
energy
0.0
53.7365076037
154.513069487
223.750868979
196.91511975
157.759730368
95.6016970694
33.327223929
1.01512886538
max-force
6.1645422634e-05
0.00827399226212
0.0117513156841
0.0118512759646
0.00976484928418
0.00892065025246
0.00609086592144
0.00360719519674
4.1772666136e-05
max-step
1000.0
1000.0
1000.0
1000.0
1000.0
1000.0
1000.0
1000.0
1000.0
