[Molden Format]
[Geometries] (XYZ)
12

C        0.452813       1.683425      -1.587846
C        0.605891       0.410178      -0.765196
C        1.424539      -0.630485      -1.481877
O        1.744529       2.229984      -1.717725
O        1.652406       3.441195      -2.465850
O        2.176389      -1.396535      -0.954169
H        2.561343       3.767011      -2.433752
H       -0.205238       2.400984      -1.081155
H        0.038342       1.465672      -2.581667
H        1.257648      -0.648497      -2.576007
H        1.065999       0.630716       0.198832
H       -0.385752      -0.013938      -0.589377
12

C        0.682734       1.563089      -1.718834
C        0.533317       0.436368      -0.717089
C        1.433816      -0.609543      -1.407384
O        1.869549       2.310568      -1.819942
O        1.536533       3.559609      -2.442502
O        2.149733      -1.494749      -1.022927
H        2.400117       4.004422      -2.482125
H        0.115208       2.201743      -0.847647
H        0.358840       1.283952      -2.725752
H        1.195493      -0.500919      -2.472565
H        0.748332       0.411068       0.394085
H       -0.454436       0.239870      -0.337007
12

C        0.771289       1.475567      -1.791083
C        0.454823       0.423858      -0.747582
C        1.460876      -0.540543      -1.400699
O        1.916278       2.284375      -1.904381
O        1.489327       3.556801      -2.452164
O        2.246072      -1.360484      -0.994823
H        2.332622       4.024928      -2.536163
H        0.332779       1.978108      -0.658474
H        0.469105       1.257538      -2.813837
H        1.128303      -0.626598      -2.442478
H        0.384943      -0.017560       0.323588
H       -0.438252       0.512932      -0.090080
12

C        0.762611       1.382253      -1.843162
C        0.367689       0.337876      -0.776495
C        1.457891      -0.473619      -1.462619
O        1.933987       2.189057      -1.959874
O        1.491739       3.495063      -2.408531
O        2.430484      -1.026483      -1.001569
H        2.348625       3.924769      -2.557865
H        0.481583       1.787296      -0.651962
H        0.406424       1.282205      -2.866879
H        1.049746      -0.901476      -2.392349
H        0.139967      -0.350074       0.058013
H       -0.362041       0.795038       0.044001
12

C        0.891772       1.295262      -1.870483
C        0.340644       0.411267      -0.752518
C        1.492843      -0.455917      -1.529353
O        1.976890       2.214995      -1.961939
O        1.433215       3.480131      -2.417859
O        2.468059      -0.998997      -1.067777
H        2.243912       3.993652      -2.528632
H        0.639115       1.704225      -0.583791
H        0.470490       1.305851      -2.872670
H        1.049059      -0.923036      -2.419784
H        0.051887      -0.259820       0.065688
H       -0.405856       0.989049      -0.011251
12

C        0.935767       1.209153      -1.885563
C        0.279532       0.498563      -0.712746
C        1.541938      -0.404993      -1.608310
O        1.983472       2.157808      -1.975817
O        1.414834       3.414818      -2.412277
O        2.576757      -0.848100      -1.171509
H        2.208645       3.956588      -2.504638
H        0.727517       1.591378      -0.415836
H        0.432253       1.315021      -2.848900
H        1.044142      -1.016229      -2.365159
H       -0.104487      -0.248361      -0.022643
H       -0.466574       1.138002      -0.027069
12

C        0.907013       1.115527      -1.863280
C        0.194157       0.582670      -0.640818
C        1.616815      -0.352437      -1.710071
O        1.961733       2.030819      -1.980457
O        1.422589       3.310462      -2.358283
O        2.760686      -0.570794      -1.383302
H        2.226939       3.836974      -2.461985
H        0.789407       1.363845      -0.109291
H        0.300890       1.264871      -2.768290
H        1.103009      -1.200306      -2.164488
H       -0.388864      -0.212313      -0.212508
H       -0.489648       1.325950      -0.038624
12

C        0.913131       1.020677      -1.807880
C        0.128958       0.726220      -0.549266
C        1.691491      -0.333888      -1.807867
O        1.955818       1.940133      -1.944865
O        1.406777       3.221938      -2.269342
O        2.891910      -0.365896      -1.708064
H        2.206194       3.747776      -2.408953
H        0.805922       1.088821       0.222623
H        0.245158       1.141944      -2.672320
H        1.199765      -1.305617      -1.952391
H       -0.545230      -0.085523      -0.359670
H       -0.501067       1.600211      -0.227072
12

C        1.028158       0.960979      -1.829205
C        0.095940       1.133652      -0.623498
C        1.716565      -0.387103      -1.771220
O        2.019938       1.953097      -1.891919
O        1.416657       3.192389      -2.268154
O        2.889862      -0.592982      -1.829136
H        2.191113       3.754006      -2.401127
H        0.666703       1.062827       0.298989
H        0.429665       0.984274      -2.755565
H        0.979824      -1.207768      -1.657559
H       -0.677180       0.371402      -0.632557
H       -0.368335       2.114938      -0.674839
[GEOCONV]
energy
0.0
55.7008376643
165.287358551
194.584570342
191.314360718
153.193805824
94.2163836737
30.0917290205
1.01512886538
max-force
6.1645422634e-05
0.00947193804067
0.0114345643035
0.00488989809546
0.00675002566938
0.00983807398206
0.00752719480842
0.00412160069709
4.1772666136e-05
max-step
1000.0
1000.0
1000.0
1000.0
1000.0
1000.0
1000.0
1000.0
1000.0
