 Entering Gaussian System, Link 0=g16
 Initial command:
 /apps/cent7/gaussian/g16-B.01/g16-haswell/g16/l1.exe "/scratch/bell/zhao922/YARP/paper-example/KHP-network/pp_0/IRC-folder/Gau-70609.inp" -scrdir="/scratch/bell/zhao922/YARP/paper-example/KHP-network/pp_0/IRC-folder/"
 Entering Link 1 = /apps/cent7/gaussian/g16-B.01/g16-haswell/g16/l1.exe PID=     70612.
  
 Copyright (c) 1988-2017, Gaussian, Inc.  All Rights Reserved.
  
 This is part of the Gaussian(R) 16 program.  It is based on
 the Gaussian(R) 09 system (copyright 2009, Gaussian, Inc.),
 the Gaussian(R) 03 system (copyright 2003, Gaussian, Inc.),
 the Gaussian(R) 98 system (copyright 1998, Gaussian, Inc.),
 the Gaussian(R) 94 system (copyright 1995, Gaussian, Inc.),
 the Gaussian 92(TM) system (copyright 1992, Gaussian, Inc.),
 the Gaussian 90(TM) system (copyright 1990, Gaussian, Inc.),
 the Gaussian 88(TM) system (copyright 1988, Gaussian, Inc.),
 the Gaussian 86(TM) system (copyright 1986, Carnegie Mellon
 University), and the Gaussian 82(TM) system (copyright 1983,
 Carnegie Mellon University). Gaussian is a federally registered
 trademark of Gaussian, Inc.
  
 This software contains proprietary and confidential information,
 including trade secrets, belonging to Gaussian, Inc.
  
 This software is provided under written license and may be
 used, copied, transmitted, or stored only in accord with that
 written license.
  
 The following legend is applicable only to US Government
 contracts under FAR:
  
                    RESTRICTED RIGHTS LEGEND
  
 Use, reproduction and disclosure by the US Government is
 subject to restrictions as set forth in subparagraphs (a)
 and (c) of the Commercial Computer Software - Restricted
 Rights clause in FAR 52.227-19.
  
 Gaussian, Inc.
 340 Quinnipiac St., Bldg. 40, Wallingford CT 06492
  
  
 ---------------------------------------------------------------
 Warning -- This program may not be used in any manner that
 competes with the business of Gaussian, Inc. or will provide
 assistance to any competitor of Gaussian, Inc.  The licensee
 of this program is prohibited from giving any competitor of
 Gaussian, Inc. access to this program.  By using this program,
 the user acknowledges that Gaussian, Inc. is engaged in the
 business of creating and licensing software in the field of
 computational chemistry and represents and warrants to the
 licensee that it is not a competitor of Gaussian, Inc. and that
 it will not use this program in any manner prohibited above.
 ---------------------------------------------------------------
  

 Cite this work as:
 Gaussian 16, Revision B.01,
 M. J. Frisch, G. W. Trucks, H. B. Schlegel, G. E. Scuseria, 
 M. A. Robb, J. R. Cheeseman, G. Scalmani, V. Barone, 
 G. A. Petersson, H. Nakatsuji, X. Li, M. Caricato, A. V. Marenich, 
 J. Bloino, B. G. Janesko, R. Gomperts, B. Mennucci, H. P. Hratchian, 
 J. V. Ortiz, A. F. Izmaylov, J. L. Sonnenberg, D. Williams-Young, 
 F. Ding, F. Lipparini, F. Egidi, J. Goings, B. Peng, A. Petrone, 
 T. Henderson, D. Ranasinghe, V. G. Zakrzewski, J. Gao, N. Rega, 
 G. Zheng, W. Liang, M. Hada, M. Ehara, K. Toyota, R. Fukuda, 
 J. Hasegawa, M. Ishida, T. Nakajima, Y. Honda, O. Kitao, H. Nakai, 
 T. Vreven, K. Throssell, J. A. Montgomery, Jr., J. E. Peralta, 
 F. Ogliaro, M. J. Bearpark, J. J. Heyd, E. N. Brothers, K. N. Kudin, 
 V. N. Staroverov, T. A. Keith, R. Kobayashi, J. Normand, 
 K. Raghavachari, A. P. Rendell, J. C. Burant, S. S. Iyengar, 
 J. Tomasi, M. Cossi, J. M. Millam, M. Klene, C. Adamo, R. Cammi, 
 J. W. Ochterski, R. L. Martin, K. Morokuma, O. Farkas, 
 J. B. Foresman, and D. J. Fox, Gaussian, Inc., Wallingford CT, 2016.
 
 ******************************************
 Gaussian 16:  ES64L-G16RevB.01 20-Dec-2017
                23-Dec-2020 
 ******************************************
 %NProcShared=16
 Will use up to   16 processors via shared memory.
 %Mem=6GB
 ----------------------------------------------------------------------
 # B3LYP/6-31+G* IRC=(CALCALL, maxpoints=40, StepSize=15, maxcyc=100, R
 eport=Cartesians)
 ----------------------------------------------------------------------
 1/6=100,10=4,18=10,26=3,38=1,39=15,42=40,44=3,71=1,129=10,172=1/1,23;
 2/12=2,17=6,18=5,29=1,40=1/2;
 3/5=1,6=6,7=11,11=2,25=1,30=1,71=2,74=-5,140=1/1,2,3;
 4//1;
 5/5=2,38=5/2;
 8/6=4,10=90,11=11/1;
 11/6=1,8=1,9=11,15=111,16=1/1,2,10;
 10/6=1,13=1/2;
 6/7=2,8=2,9=2,10=2,18=1,28=1/1;
 7/10=1,25=1/1,2,3,16;
 1/6=100,10=4,18=10,26=3,39=15,42=40,44=3,71=1,129=10/23(2);
 2/29=1/2;
 99/5=20/99;
 2/29=1/2;
 3/5=1,6=6,7=11,11=2,25=1,30=1,71=2,74=-5,140=1/1,2,3;
 4/5=5,16=3,69=1/1;
 5/5=2,38=5/2;
 8/6=4,10=90,11=11/1;
 11/6=1,8=1,9=11,15=111,16=1/1,2,10;
 10/6=1,13=1/2;
 7/10=1,25=1/1,2,3,16;
 1/6=100,10=4,18=10,26=3,39=15,42=40,44=3,71=1,129=10/23(-8);
 2/29=1/2;
 6/7=2,8=2,9=2,10=2,18=1,19=2,28=1/1;
 99/5=20/99;
 -----------
 pp_14_1 IRC
 -----------
 Symbolic Z-matrix:
 Charge =  0 Multiplicity = 1
 C                    -0.45083   0.45517  -0.52591 
 C                     0.70244   0.89811   0.37715 
 C                     1.93066   0.02768   0.2578 
 O                    -1.65594   0.84042  -0.1933 
 O                    -2.01249  -1.01049   0.31429 
 O                     1.96181  -1.03001  -0.33656 
 H                    -2.74113  -1.60379   0.62126 
 H                    -0.25337   0.43459  -1.6123 
 H                    -0.63784  -0.74803  -0.30388 
 H                     2.83957   0.40852   0.77093 
 H                     0.37137   0.88111   1.42623 
 H                     0.98074   1.94245   0.16802 
 
 IRC-IRC-IRC-IRC-IRC-IRC-IRC-IRC-IRC-IRC-IRC-IRC-IRC-IRC-IRC-IRC-IRC-IRC
 ------------------------------------------------------------------------
 INPUT DATA FOR L123
 ------------------------------------------------------------------------
 GENERAL PARAMETERS:
 Follow reaction path in both directions.
 Maximum points per path      =  40
 Step size                    =   0.150 bohr
 Integration scheme           = HPC                                 
    Redo corrector integration= Yes                                 
    DWI Weight Power          =  2
    DWI will use Hessian update vectors when possible.
    Max correction cycles     = 100
 Initial Hessian              = CalcFC
 Hessian evaluation           = Analytic at all predictor steps
                              = Update at all corrector steps
 Hessian updating method      = Bofill                              
 ------------------------------------------------------------------------
 IRC-IRC-IRC-IRC-IRC-IRC-IRC-IRC-IRC-IRC-IRC-IRC-IRC-IRC-IRC-IRC-IRC-IRC
                          Input orientation:                          
 ---------------------------------------------------------------------
 Center     Atomic      Atomic             Coordinates (Angstroms)
 Number     Number       Type             X           Y           Z
 ---------------------------------------------------------------------
      1          6           0       -0.450828    0.455171   -0.525906
      2          6           0        0.702439    0.898112    0.377148
      3          6           0        1.930657    0.027679    0.257799
      4          8           0       -1.655940    0.840420   -0.193301
      5          8           0       -2.012489   -1.010491    0.314292
      6          8           0        1.961808   -1.030009   -0.336555
      7          1           0       -2.741128   -1.603786    0.621257
      8          1           0       -0.253367    0.434594   -1.612301
      9          1           0       -0.637837   -0.748029   -0.303879
     10          1           0        2.839572    0.408520    0.770931
     11          1           0        0.371367    0.881113    1.426234
     12          1           0        0.980743    1.942453    0.168017
 ---------------------------------------------------------------------
                    Distance matrix (angstroms):
                    1          2          3          4          5
     1  C    0.000000
     2  C    1.530271   0.000000
     3  C    2.543308   1.510105   0.000000
     4  O    1.308181   2.427075   3.705093   0.000000
     5  O    2.300627   3.319270   4.077915   1.952088   0.000000
     6  O    2.839441   2.411023   1.213644   4.075184   4.027284
     7  H    3.286451   4.263477   4.961789   2.795582   0.988505
     8  H    1.104386   2.255287   2.903931   2.036042   2.982372
     9  H    1.237723   2.229331   2.741234   1.889955   1.529931
    10  H    3.537046   2.227578   1.111067   4.617998   5.075885
    11  H    2.160621   1.100218   2.127199   2.595096   3.239961
    12  H    2.177827   1.100835   2.139336   2.880473   4.207221
                    6          7          8          9         10
     6  O    0.000000
     7  H    4.833656   0.000000
     8  H    2.946114   3.915703   0.000000
     9  H    2.615097   2.451944   1.805099   0.000000
    10  H    2.016522   5.934306   3.904708   3.819057   0.000000
    11  H    3.047838   4.063291   3.134066   2.581838   2.597076
    12  H    3.170585   5.160771   2.639356   3.175087   2.484291
                   11         12
    11  H    0.000000
    12  H    1.755247   0.000000
 Symmetry turned off by external request.
 Stoichiometry    C3H6O3
 Framework group  C1[X(C3H6O3)]
 Deg. of freedom    30
 Full point group                 C1      NOp   1
 Rotational constants (GHZ):           6.3133943           1.9701752           1.6545800
 Standard basis: 6-31+G(d) (6D, 7F)
   126 basis functions,   216 primitive gaussians,   126 cartesian basis functions
    24 alpha electrons       24 beta electrons
       nuclear repulsion energy       231.3449837449 Hartrees.
 NAtoms=   12 NActive=   12 NUniq=   12 SFac= 1.00D+00 NAtFMM=   60 NAOKFM=F Big=F
 Integral buffers will be    131072 words long.
 Raffenetti 2 integral format.
 Two-electron integral symmetry is turned off.
 One-electron integrals computed using PRISM.
 NBasis=   126 RedAO= T EigKep=  9.23D-05  NBF=   126
 NBsUse=   126 1.00D-06 EigRej= -1.00D+00 NBFU=   126
 ExpMin= 4.38D-02 ExpMax= 5.48D+03 ExpMxC= 8.25D+02 IAcc=3 IRadAn=         5 AccDes= 0.00D+00
 Harris functional with IExCor=  402 and IRadAn=       5 diagonalized for initial guess.
 HarFok:  IExCor=  402 AccDes= 0.00D+00 IRadAn=         5 IDoV= 1 UseB2=F ITyADJ=14
 ICtDFT=  3500011 ScaDFX=  1.000000  1.000000  1.000000  1.000000
 FoFCou: FMM=F IPFlag=           0 FMFlag=      100000 FMFlg1=           0
         NFxFlg=           0 DoJE=T BraDBF=F KetDBF=T FulRan=T
         wScrn=  0.000000 ICntrl=       500 IOpCl=  0 I1Cent=   200000004 NGrid=           0
         NMat0=    1 NMatS0=      1 NMatT0=    0 NMatD0=    1 NMtDS0=    0 NMtDT0=    0
 Symmetry not used in FoFCou.
 Keep R1 ints in memory in canonical form, NReq=47237243.
 Requested convergence on RMS density matrix=1.00D-08 within 128 cycles.
 Requested convergence on MAX density matrix=1.00D-06.
 Requested convergence on             energy=1.00D-06.
 No special actions if energy rises.
 EnCoef did     2 forward-backward iterations
 SCF Done:  E(RB3LYP) =  -343.416560406     A.U. after   15 cycles
            NFock= 15  Conv=0.36D-08     -V/T= 2.0093
 DoSCS=F DFT=T ScalE2(SS,OS)=  1.000000  1.000000
 Range of M.O.s used for correlation:     1   126
 NBasis=   126 NAE=    24 NBE=    24 NFC=     0 NFV=     0
 NROrb=    126 NOA=    24 NOB=    24 NVA=   102 NVB=   102

 **** Warning!!: The largest alpha MO coefficient is  0.37923198D+02

 Symmetrizing basis deriv contribution to polar:
 IMax=3 JMax=2 DiffMx= 0.00D+00
 G2DrvN: will do    13 centers at a time, making    1 passes.
 Calling FoFCou, ICntrl=  3107 FMM=F I1Cent=   0 AccDes= 0.00D+00.
 End of G2Drv F.D. properties file   721 does not exist.
 End of G2Drv F.D. properties file   722 does not exist.
 End of G2Drv F.D. properties file   788 does not exist.
          IDoAtm=111111111111
          Differentiating once with respect to nuclear coordinates.
 Keep R1 ints in memory in canonical form, NReq=47193265.
          There are    39 degrees of freedom in the 1st order CPHF.  IDoFFX=6 NUNeed=     0.
     33 vectors produced by pass  0 Test12= 6.28D-15 2.56D-09 XBig12= 2.88D-01 3.71D-01.
 AX will form    33 AO Fock derivatives at one time.
     33 vectors produced by pass  1 Test12= 6.28D-15 2.56D-09 XBig12= 2.50D-01 2.04D-01.
     33 vectors produced by pass  2 Test12= 6.28D-15 2.56D-09 XBig12= 2.70D-03 1.09D-02.
     33 vectors produced by pass  3 Test12= 6.28D-15 2.56D-09 XBig12= 1.45D-05 4.98D-04.
     33 vectors produced by pass  4 Test12= 6.28D-15 2.56D-09 XBig12= 1.80D-08 1.99D-05.
     27 vectors produced by pass  5 Test12= 6.28D-15 2.56D-09 XBig12= 1.72D-11 6.13D-07.
      4 vectors produced by pass  6 Test12= 6.28D-15 2.56D-09 XBig12= 1.49D-14 1.89D-08.
 InvSVY:  IOpt=1 It=  1 EMax= 1.78D-15
 Solved reduced A of dimension   196 with    33 vectors.
 End of Minotr F.D. properties file   721 does not exist.
 End of Minotr F.D. properties file   722 does not exist.
 End of Minotr F.D. properties file   788 does not exist.

 **********************************************************************

            Population analysis using the SCF Density.

 **********************************************************************

 Alpha  occ. eigenvalues --  -19.22563 -19.18691 -19.18402 -10.30728 -10.26840
 Alpha  occ. eigenvalues --  -10.22836  -1.07730  -1.06338  -0.95980  -0.79679
 Alpha  occ. eigenvalues --   -0.65971  -0.59147  -0.54587  -0.50914  -0.49126
 Alpha  occ. eigenvalues --   -0.46516  -0.44303  -0.43890  -0.39181  -0.35961
 Alpha  occ. eigenvalues --   -0.33571  -0.32275  -0.29485  -0.27731
 Alpha virt. eigenvalues --   -0.16243  -0.05423   0.00239   0.01567   0.02860
 Alpha virt. eigenvalues --    0.03298   0.05333   0.06453   0.06940   0.07892
 Alpha virt. eigenvalues --    0.08977   0.11231   0.11578   0.12742   0.15357
 Alpha virt. eigenvalues --    0.16061   0.18162   0.18402   0.20882   0.21771
 Alpha virt. eigenvalues --    0.22225   0.23537   0.24254   0.25796   0.26486
 Alpha virt. eigenvalues --    0.26778   0.28510   0.29276   0.30587   0.31213
 Alpha virt. eigenvalues --    0.33388   0.35109   0.37154   0.38606   0.40372
 Alpha virt. eigenvalues --    0.44913   0.62805   0.64234   0.65169   0.68629
 Alpha virt. eigenvalues --    0.69650   0.71601   0.77199   0.78585   0.84037
 Alpha virt. eigenvalues --    0.91005   0.93218   0.98287   1.03724   1.04916
 Alpha virt. eigenvalues --    1.06524   1.08163   1.14113   1.16163   1.17953
 Alpha virt. eigenvalues --    1.20319   1.22125   1.24807   1.25823   1.29886
 Alpha virt. eigenvalues --    1.32201   1.33357   1.39907   1.45768   1.50576
 Alpha virt. eigenvalues --    1.55165   1.56631   1.62448   1.65979   1.67236
 Alpha virt. eigenvalues --    1.70088   1.72236   1.75722   1.76616   1.79966
 Alpha virt. eigenvalues --    1.83087   1.83465   1.88737   1.98534   1.99140
 Alpha virt. eigenvalues --    2.04094   2.05316   2.21092   2.23469   2.28583
 Alpha virt. eigenvalues --    2.31567   2.38904   2.46378   2.47701   2.55350
 Alpha virt. eigenvalues --    2.57293   2.66991   2.75995   2.91065   2.97746
 Alpha virt. eigenvalues --    3.05164   4.10727   4.12238   4.16553   4.25395
 Alpha virt. eigenvalues --    4.35211   4.53033
          Condensed to atoms (all electrons):
               1          2          3          4          5          6
     1  C    5.633904  -0.283918   0.029155   0.354417  -0.186400   0.082624
     2  C   -0.283918   6.858306  -0.229029  -0.181814   0.057220  -0.219175
     3  C    0.029155  -0.229029   5.123206   0.040705   0.008208   0.486762
     4  O    0.354417  -0.181814   0.040705   8.057854  -0.086235   0.001155
     5  O   -0.186400   0.057220   0.008208  -0.086235   8.741505  -0.003802
     6  O    0.082624  -0.219175   0.486762   0.001155  -0.003802   8.057838
     7  H    0.026808  -0.007783  -0.000869   0.016974   0.134571  -0.000018
     8  H    0.380782  -0.090475   0.024228  -0.057363   0.010812  -0.004946
     9  H    0.331477  -0.073908  -0.003931  -0.003733  -0.017883   0.007890
    10  H    0.036385  -0.169584   0.404590  -0.000341  -0.000134  -0.062024
    11  H   -0.042811   0.358901  -0.008603  -0.000570   0.004238  -0.000779
    12  H   -0.003948   0.345045  -0.039937  -0.002779  -0.001814   0.002939
               7          8          9         10         11         12
     1  C    0.026808   0.380782   0.331477   0.036385  -0.042811  -0.003948
     2  C   -0.007783  -0.090475  -0.073908  -0.169584   0.358901   0.345045
     3  C   -0.000869   0.024228  -0.003931   0.404590  -0.008603  -0.039937
     4  O    0.016974  -0.057363  -0.003733  -0.000341  -0.000570  -0.002779
     5  O    0.134571   0.010812  -0.017883  -0.000134   0.004238  -0.001814
     6  O   -0.000018  -0.004946   0.007890  -0.062024  -0.000779   0.002939
     7  H    0.353607  -0.000196   0.005309  -0.000000  -0.000068   0.000009
     8  H   -0.000196   0.531878  -0.022201  -0.000392   0.002919  -0.002484
     9  H    0.005309  -0.022201   0.432681   0.000301  -0.002559   0.002580
    10  H   -0.000000  -0.000392   0.000301   0.620998   0.000676   0.002792
    11  H   -0.000068   0.002919  -0.002559   0.000676   0.455069  -0.025823
    12  H    0.000009  -0.002484   0.002580   0.002792  -0.025823   0.488871
 Mulliken charges:
               1
     1  C   -0.358474
     2  C   -0.363785
     3  C    0.165515
     4  O   -0.138271
     5  O   -0.660285
     6  O   -0.348464
     7  H    0.471656
     8  H    0.227439
     9  H    0.343978
    10  H    0.166734
    11  H    0.259409
    12  H    0.234549
 Sum of Mulliken charges =  -0.00000
 Mulliken charges with hydrogens summed into heavy atoms:
               1
     1  C    0.212943
     2  C    0.130173
     3  C    0.332248
     4  O   -0.138271
     5  O   -0.188629
     6  O   -0.348464
 APT charges:
               1
     1  C   -0.689869
     2  C   -0.621409
     3  C   -0.343984
     4  O   -0.210252
     5  O   -0.931468
     6  O   -0.313084
     7  H    0.810156
     8  H    0.446354
     9  H    0.367342
    10  H    0.552587
    11  H    0.421380
    12  H    0.512247
 Sum of APT charges =  -0.00000
 APT charges with hydrogens summed into heavy atoms:
               1
     1  C    0.123826
     2  C    0.312218
     3  C    0.208604
     4  O   -0.210252
     5  O   -0.121312
     6  O   -0.313084
 Electronic spatial extent (au):  <R**2>=            708.4579
 Charge=             -0.0000 electrons
 Dipole moment (field-independent basis, Debye):
    X=              1.1321    Y=              1.5178    Z=              0.9981  Tot=              2.1405
 Quadrupole moment (field-independent basis, Debye-Ang):
   XX=            -37.1134   YY=            -36.0686   ZZ=            -34.8721
   XY=              9.1941   XZ=              1.0575   YZ=             -1.7416
 Traceless Quadrupole moment (field-independent basis, Debye-Ang):
   XX=             -1.0954   YY=             -0.0505   ZZ=              1.1459
   XY=              9.1941   XZ=              1.0575   YZ=             -1.7416
 Octapole moment (field-independent basis, Debye-Ang**2):
  XXX=            -15.1015  YYY=             -3.6500  ZZZ=             -1.1863  XYY=            -10.9665
  XXY=             -5.6144  XXZ=             11.6843  XZZ=             -1.4072  YZZ=             -0.2587
  YYZ=              2.5908  XYZ=              1.7075
 Hexadecapole moment (field-independent basis, Debye-Ang**3):
 XXXX=           -547.3525 YYYY=           -183.2739 ZZZZ=            -79.0899 XXXY=             61.9913
 XXXZ=            -13.2321 YYYX=             20.8166 YYYZ=             -7.1353 ZZZX=             -2.0966
 ZZZY=             -1.2184 XXYY=           -121.9463 XXZZ=           -112.4350 YYZZ=            -46.5402
 XXYZ=            -14.3295 YYXZ=             -6.0882 ZZXY=              1.1850
 N-N= 2.313449837449D+02 E-N=-1.267347814005D+03  KE= 3.402607859898D+02
  Exact polarizability:   0.000   0.000   0.000   0.000   0.000   0.000
 Approx polarizability:  99.224  18.134 113.563 -13.708  -5.669  65.718
 Calling FoFJK, ICntrl=    100127 FMM=F ISym2X=0 I1Cent= 0 IOpClX= 0 NMat=1 NMatS=1 NMatT=0.
 -------------------------------------------------------------------
 Center     Atomic                   Forces (Hartrees/Bohr)
 Number     Number              X              Y              Z
 -------------------------------------------------------------------
      1        6           0.000008165   -0.000005662   -0.000001141
      2        6          -0.000000680    0.000000477    0.000000118
      3        6           0.000000096   -0.000000076    0.000000203
      4        8          -0.000005353   -0.000008215    0.000002996
      5        8          -0.000009999    0.000008756    0.000004757
      6        8           0.000000034   -0.000000586   -0.000000034
      7        1           0.000001597   -0.000001136   -0.000002473
      8        1           0.000000417    0.000001626   -0.000000454
      9        1           0.000005088    0.000005642   -0.000004580
     10        1          -0.000000388   -0.000000840    0.000000197
     11        1           0.000000169   -0.000000233   -0.000000161
     12        1           0.000000854    0.000000247    0.000000571
 -------------------------------------------------------------------
 Cartesian Forces:  Max     0.000009999 RMS     0.000003724
 IRC-IRC-IRC-IRC-IRC-IRC-IRC-IRC-IRC-IRC-IRC-IRC-IRC-IRC-IRC-IRC-IRC-IRC
          ******** Start new reaction path calculation ********
 Supplied step size of   0.1500 bohr.
    Integration on MW PES will use step size of   0.1613 sqrt(amu)*bohr.
 Point Number:   0          Path Number:   1
 Calculating another point on the path.
 IRC-IRC-IRC-IRC-IRC-IRC-IRC-IRC-IRC-IRC-IRC-IRC-IRC-IRC-IRC-IRC-IRC-IRC
                          Input orientation:                          
 ---------------------------------------------------------------------
 Center     Atomic      Atomic             Coordinates (Angstroms)
 Number     Number       Type             X           Y           Z
 ---------------------------------------------------------------------
      1          6           0       -0.448235    0.474650   -0.513321
      2          6           0        0.708341    0.911173    0.389110
      3          6           0        1.936804    0.042069    0.269618
      4          8           0       -1.645968    0.858268   -0.183615
      5          8           0       -2.005761   -0.997215    0.326061
      6          8           0        1.967810   -1.015647   -0.324803
      7          1           0       -2.710255   -1.622380    0.629038
      8          1           0       -0.247355    0.431634   -1.598806
      9          1           0       -0.683913   -0.761821   -0.266063
     10          1           0        2.845808    0.423025    0.782460
     11          1           0        0.377433    0.896231    1.438192
     12          1           0        0.985050    1.955893    0.177971
 ---------------------------------------------------------------------
                    Distance matrix (angstroms):
                    1          2          3          4          5
     1  C    0.000000
     2  C    1.530556   0.000000
     3  C    2.547259   1.509550   0.000000
     4  O    1.300167   2.423548   3.702412   0.000000
     5  O    2.301485   3.318474   4.077636   1.957559   0.000000
     6  O    2.844960   2.410097   1.213698   4.073191   4.026566
     7  H    3.289263   4.261836   4.949214   2.818994   0.989413
     8  H    1.104754   2.257238   2.900573   2.034920   2.972997
     9  H    1.282786   2.273001   2.793090   1.886011   1.467414
    10  H    3.540117   2.227504   1.111045   4.615060   5.075736
    11  H    2.160523   1.100136   2.127627   2.593424   3.240614
    12  H    2.173999   1.101175   2.139382   2.873635   4.205677
                    6          7          8          9         10
     6  O    0.000000
     7  H    4.812715   0.000000
     8  H    2.936779   3.904886   0.000000
     9  H    2.664492   2.376516   1.841500   0.000000
    10  H    2.016603   5.922588   3.903608   3.868099   0.000000
    11  H    3.048398   4.065949   3.135214   2.603859   2.597457
    12  H    3.169961   5.163600   2.645586   3.220027   2.485460
                   11         12
    11  H    0.000000
    12  H    1.755061   0.000000
 Symmetry turned off by external request.
 Stoichiometry    C3H6O3
 Framework group  C1[X(C3H6O3)]
 Deg. of freedom    30
 Full point group                 C1      NOp   1
 Rotational constants (GHZ):           6.2919050           1.9725499           1.6545381
 Standard basis: 6-31+G(d) (6D, 7F)
   126 basis functions,   216 primitive gaussians,   126 cartesian basis functions
    24 alpha electrons       24 beta electrons
       nuclear repulsion energy       231.3689987966 Hartrees.
 NAtoms=   12 NActive=   12 NUniq=   12 SFac= 1.00D+00 NAtFMM=   60 NAOKFM=F Big=F
 Integral buffers will be    131072 words long.
 Raffenetti 2 integral format.
 Two-electron integral symmetry is turned off.
 One-electron integrals computed using PRISM.
 NBasis=   126 RedAO= T EigKep=  9.25D-05  NBF=   126
 NBsUse=   126 1.00D-06 EigRej= -1.00D+00 NBFU=   126
 Initial guess from the checkpoint file:  "/scratch/bell/zhao922/YARP/paper-example/KHP-network/pp_0/IRC-folder/Gau-70612.chk"
 B after Tr=     0.010901    0.025715    0.022692
         Rot=    1.000000    0.000172   -0.000071   -0.000175 Ang=   0.03 deg.
 ExpMin= 4.38D-02 ExpMax= 5.48D+03 ExpMxC= 8.25D+02 IAcc=3 IRadAn=         5 AccDes= 0.00D+00
 Harris functional with IExCor=  402 and IRadAn=       5 diagonalized for initial guess.
 HarFok:  IExCor=  402 AccDes= 0.00D+00 IRadAn=         5 IDoV= 1 UseB2=F ITyADJ=14
 ICtDFT=  3500011 ScaDFX=  1.000000  1.000000  1.000000  1.000000
 FoFCou: FMM=F IPFlag=           0 FMFlag=      100000 FMFlg1=           0
         NFxFlg=           0 DoJE=T BraDBF=F KetDBF=T FulRan=T
         wScrn=  0.000000 ICntrl=       500 IOpCl=  0 I1Cent=   200000004 NGrid=           0
         NMat0=    1 NMatS0=      1 NMatT0=    0 NMatD0=    1 NMtDS0=    0 NMtDT0=    0
 Symmetry not used in FoFCou.
 Keep R1 ints in memory in canonical form, NReq=47237243.
 Requested convergence on RMS density matrix=1.00D-08 within 128 cycles.
 Requested convergence on MAX density matrix=1.00D-06.
 Requested convergence on             energy=1.00D-06.
 No special actions if energy rises.
 SCF Done:  E(RB3LYP) =  -343.417629946     A.U. after   13 cycles
            NFock= 13  Conv=0.92D-08     -V/T= 2.0093
 DoSCS=F DFT=T ScalE2(SS,OS)=  1.000000  1.000000
 Range of M.O.s used for correlation:     1   126
 NBasis=   126 NAE=    24 NBE=    24 NFC=     0 NFV=     0
 NROrb=    126 NOA=    24 NOB=    24 NVA=   102 NVB=   102

 **** Warning!!: The largest alpha MO coefficient is  0.36486456D+02

 Symmetrizing basis deriv contribution to polar:
 IMax=3 JMax=2 DiffMx= 0.00D+00
 G2DrvN: will do    13 centers at a time, making    1 passes.
 Calling FoFCou, ICntrl=  3107 FMM=F I1Cent=   0 AccDes= 0.00D+00.
 End of G2Drv F.D. properties file   721 does not exist.
 End of G2Drv F.D. properties file   722 does not exist.
 End of G2Drv F.D. properties file   788 does not exist.
          IDoAtm=111111111111
          Differentiating once with respect to nuclear coordinates.
 Keep R1 ints in memory in canonical form, NReq=47193265.
          There are    39 degrees of freedom in the 1st order CPHF.  IDoFFX=6 NUNeed=     0.
     33 vectors produced by pass  0 Test12= 6.28D-15 2.56D-09 XBig12= 2.83D-01 3.60D-01.
 AX will form    33 AO Fock derivatives at one time.
     33 vectors produced by pass  1 Test12= 6.28D-15 2.56D-09 XBig12= 2.40D-01 2.19D-01.
     33 vectors produced by pass  2 Test12= 6.28D-15 2.56D-09 XBig12= 2.59D-03 1.00D-02.
     33 vectors produced by pass  3 Test12= 6.28D-15 2.56D-09 XBig12= 1.36D-05 5.29D-04.
     33 vectors produced by pass  4 Test12= 6.28D-15 2.56D-09 XBig12= 1.81D-08 2.30D-05.
     27 vectors produced by pass  5 Test12= 6.28D-15 2.56D-09 XBig12= 2.03D-11 6.59D-07.
      3 vectors produced by pass  6 Test12= 6.28D-15 2.56D-09 XBig12= 1.72D-14 1.76D-08.
 InvSVY:  IOpt=1 It=  1 EMax= 2.44D-15
 Solved reduced A of dimension   195 with    33 vectors.
 End of Minotr F.D. properties file   721 does not exist.
 End of Minotr F.D. properties file   722 does not exist.
 End of Minotr F.D. properties file   788 does not exist.
 Calling FoFJK, ICntrl=    100127 FMM=F ISym2X=0 I1Cent= 0 IOpClX= 0 NMat=1 NMatS=1 NMatT=0.
 -------------------------------------------------------------------
 Center     Atomic                   Forces (Hartrees/Bohr)
 Number     Number              X              Y              Z
 -------------------------------------------------------------------
      1        6          -0.005485902    0.010560975    0.000779529
      2        6          -0.000275792   -0.002232134    0.000293216
      3        6           0.000158692   -0.000020801    0.000080153
      4        8           0.009017905    0.007101706   -0.004684569
      5        8           0.001860100   -0.002830668   -0.000080715
      6        8          -0.000147071   -0.000148878   -0.000075495
      7        1           0.004290635   -0.003962926   -0.000996049
      8        1          -0.000020239   -0.002407470    0.000390573
      9        1          -0.009170473   -0.006026578    0.004552863
     10        1           0.000025963    0.000006154   -0.000034868
     11        1          -0.000007132    0.000099555    0.000023702
     12        1          -0.000246686   -0.000138933   -0.000248343
 -------------------------------------------------------------------
 Cartesian Forces:  Max     0.010560975 RMS     0.003708097
 IRC-IRC-IRC-IRC-IRC-IRC-IRC-IRC-IRC-IRC-IRC-IRC-IRC-IRC-IRC-IRC-IRC-IRC
 Pt  1 Step number   1 out of a maximum of 100
 Modified Bulirsch-Stoer Extrapolation Cycles:
    EPS =    0.000010000000000
      PEZero:  N= 2 I= 1 D=  4.20D-04 Err=  8.32D-04
      PEZero:  N= 3 I= 2 D=  4.20D-04 Err=  5.55D-04
      PEZero:  N= 3 I= 1 D=  8.40D-04 Err=  1.90D-07
 Maximum DWI energy   std dev =  0.000019202 at pt    44
 Maximum DWI gradient std dev =  0.039308229 at pt    39
 CORRECTOR INTEGRATION CONVERGENCE:
   Recorrection delta-x convergence threshold:    0.010000
   Delta-x Convergence Met
 Point Number:   1          Path Number:   1
   CHANGE IN THE REACTION COORDINATE =    0.16116
   NET REACTION COORDINATE UP TO THIS POINT =    0.16116
  # OF POINTS ALONG THE PATH =   1
  # OF STEPS =   1

 Calculating another point on the path.
 IRC-IRC-IRC-IRC-IRC-IRC-IRC-IRC-IRC-IRC-IRC-IRC-IRC-IRC-IRC-IRC-IRC-IRC
                          Input orientation:                          
 ---------------------------------------------------------------------
 Center     Atomic      Atomic             Coordinates (Angstroms)
 Number     Number       Type             X           Y           Z
 ---------------------------------------------------------------------
      1          6           0       -0.450911    0.480009   -0.512981
      2          6           0        0.708219    0.910120    0.389245
      3          6           0        1.936889    0.042076    0.269663
      4          8           0       -1.642606    0.860454   -0.185247
      5          8           0       -2.004793   -0.997881    0.325898
      6          8           0        1.967758   -1.015695   -0.324826
      7          1           0       -2.688428   -1.646951    0.624073
      8          1           0       -0.247328    0.418080   -1.597011
      9          1           0       -0.740077   -0.798294   -0.238775
     10          1           0        2.845983    0.423029    0.782279
     11          1           0        0.377358    0.896799    1.438299
     12          1           0        0.983697    1.955198    0.176600
 ---------------------------------------------------------------------
                    Distance matrix (angstroms):
                    1          2          3          4          5
     1  C    0.000000
     2  C    1.530552   0.000000
     3  C    2.550668   1.509117   0.000000
     4  O    1.293169   2.420514   3.699929   0.000000
     5  O    2.302699   3.317365   4.076951   1.961086   0.000000
     6  O    2.849999   2.409378   1.213775   4.071136   4.025533
     7  H    3.289883   4.258047   4.936798   2.834752   0.988715
     8  H    1.104719   2.258404   2.897699   2.033611   2.964997
     9  H    1.338979   2.326081   2.851470   1.889145   1.399355
    10  H    3.542662   2.227503   1.111014   4.612470   5.075164
    11  H    2.160379   1.100073   2.128003   2.591811   3.240662
    12  H    2.170208   1.101496   2.139457   2.868251   4.204050
                    6          7          8          9         10
     6  O    0.000000
     7  H    4.793637   0.000000
     8  H    2.929296   3.893139   0.000000
     9  H    2.717911   2.293642   1.888697   0.000000
    10  H    2.016653   5.910968   3.902515   3.923520   0.000000
    11  H    3.048871   4.066038   3.135684   2.633359   2.597870
    12  H    3.169544   5.163352   2.650255   3.275004   2.486464
                   11         12
    11  H    0.000000
    12  H    1.754919   0.000000
 Symmetry turned off by external request.
 Stoichiometry    C3H6O3
 Framework group  C1[X(C3H6O3)]
 Deg. of freedom    30
 Full point group                 C1      NOp   1
 Rotational constants (GHZ):           6.2739936           1.9746801           1.6545642
 Standard basis: 6-31+G(d) (6D, 7F)
   126 basis functions,   216 primitive gaussians,   126 cartesian basis functions
    24 alpha electrons       24 beta electrons
       nuclear repulsion energy       231.4009142411 Hartrees.
 NAtoms=   12 NActive=   12 NUniq=   12 SFac= 1.00D+00 NAtFMM=   60 NAOKFM=F Big=F
 Integral buffers will be    131072 words long.
 Raffenetti 2 integral format.
 Two-electron integral symmetry is turned off.
 One-electron integrals computed using PRISM.
 NBasis=   126 RedAO= T EigKep=  9.27D-05  NBF=   126
 NBsUse=   126 1.00D-06 EigRej= -1.00D+00 NBFU=   126
 Initial guess from the checkpoint file:  "/scratch/bell/zhao922/YARP/paper-example/KHP-network/pp_0/IRC-folder/Gau-70612.chk"
 B after Tr=    -0.000690   -0.001470    0.000453
         Rot=    1.000000    0.000169   -0.000065   -0.000134 Ang=   0.03 deg.
 ExpMin= 4.38D-02 ExpMax= 5.48D+03 ExpMxC= 8.25D+02 IAcc=3 IRadAn=         5 AccDes= 0.00D+00
 Harris functional with IExCor=  402 and IRadAn=       5 diagonalized for initial guess.
 HarFok:  IExCor=  402 AccDes= 0.00D+00 IRadAn=         5 IDoV= 1 UseB2=F ITyADJ=14
 ICtDFT=  3500011 ScaDFX=  1.000000  1.000000  1.000000  1.000000
 FoFCou: FMM=F IPFlag=           0 FMFlag=      100000 FMFlg1=           0
         NFxFlg=           0 DoJE=T BraDBF=F KetDBF=T FulRan=T
         wScrn=  0.000000 ICntrl=       500 IOpCl=  0 I1Cent=   200000004 NGrid=           0
         NMat0=    1 NMatS0=      1 NMatT0=    0 NMatD0=    1 NMtDS0=    0 NMtDT0=    0
 Symmetry not used in FoFCou.
 Keep R1 ints in memory in canonical form, NReq=47237243.
 Requested convergence on RMS density matrix=1.00D-08 within 128 cycles.
 Requested convergence on MAX density matrix=1.00D-06.
 Requested convergence on             energy=1.00D-06.
 No special actions if energy rises.
 SCF Done:  E(RB3LYP) =  -343.421474332     A.U. after   13 cycles
            NFock= 13  Conv=0.88D-08     -V/T= 2.0093
 DoSCS=F DFT=T ScalE2(SS,OS)=  1.000000  1.000000
 Range of M.O.s used for correlation:     1   126
 NBasis=   126 NAE=    24 NBE=    24 NFC=     0 NFV=     0
 NROrb=    126 NOA=    24 NOB=    24 NVA=   102 NVB=   102

 **** Warning!!: The largest alpha MO coefficient is  0.34383361D+02

 Symmetrizing basis deriv contribution to polar:
 IMax=3 JMax=2 DiffMx= 0.00D+00
 G2DrvN: will do    13 centers at a time, making    1 passes.
 Calling FoFCou, ICntrl=  3107 FMM=F I1Cent=   0 AccDes= 0.00D+00.
 End of G2Drv F.D. properties file   721 does not exist.
 End of G2Drv F.D. properties file   722 does not exist.
 End of G2Drv F.D. properties file   788 does not exist.
          IDoAtm=111111111111
          Differentiating once with respect to nuclear coordinates.
 Keep R1 ints in memory in canonical form, NReq=47193265.
          There are    39 degrees of freedom in the 1st order CPHF.  IDoFFX=6 NUNeed=     0.
     33 vectors produced by pass  0 Test12= 6.28D-15 2.56D-09 XBig12= 2.66D-01 3.17D-01.
 AX will form    33 AO Fock derivatives at one time.
     33 vectors produced by pass  1 Test12= 6.28D-15 2.56D-09 XBig12= 2.20D-01 2.29D-01.
     33 vectors produced by pass  2 Test12= 6.28D-15 2.56D-09 XBig12= 2.38D-03 8.42D-03.
     33 vectors produced by pass  3 Test12= 6.28D-15 2.56D-09 XBig12= 1.28D-05 5.89D-04.
     33 vectors produced by pass  4 Test12= 6.28D-15 2.56D-09 XBig12= 2.03D-08 2.83D-05.
     27 vectors produced by pass  5 Test12= 6.28D-15 2.56D-09 XBig12= 2.42D-11 6.80D-07.
      3 vectors produced by pass  6 Test12= 6.28D-15 2.56D-09 XBig12= 2.10D-14 1.79D-08.
 InvSVY:  IOpt=1 It=  1 EMax= 2.66D-15
 Solved reduced A of dimension   195 with    33 vectors.
 End of Minotr F.D. properties file   721 does not exist.
 End of Minotr F.D. properties file   722 does not exist.
 End of Minotr F.D. properties file   788 does not exist.
 Calling FoFJK, ICntrl=    100127 FMM=F ISym2X=0 I1Cent= 0 IOpClX= 0 NMat=1 NMatS=1 NMatT=0.
 -------------------------------------------------------------------
 Center     Atomic                   Forces (Hartrees/Bohr)
 Number     Number              X              Y              Z
 -------------------------------------------------------------------
      1        6          -0.011964582    0.025423244    0.001240840
      2        6          -0.000556911   -0.004754389    0.000603261
      3        6           0.000391247    0.000040461    0.000205095
      4        8           0.020550460    0.013008515   -0.009910929
      5        8           0.006440321   -0.004388969   -0.001089378
      6        8          -0.000318074   -0.000297450   -0.000143196
      7        1           0.008707336   -0.008924499   -0.002153435
      8        1           0.000020334   -0.005168739    0.000733932
      9        1          -0.022795017   -0.014886412    0.011054894
     10        1           0.000069806    0.000001295   -0.000068432
     11        1          -0.000032340    0.000218620    0.000042376
     12        1          -0.000512579   -0.000271676   -0.000515028
 -------------------------------------------------------------------
 Cartesian Forces:  Max     0.025423244 RMS     0.008527507
 IRC-IRC-IRC-IRC-IRC-IRC-IRC-IRC-IRC-IRC-IRC-IRC-IRC-IRC-IRC-IRC-IRC-IRC
 Pt  2 Step number   1 out of a maximum of 100
 Modified Bulirsch-Stoer Extrapolation Cycles:
    EPS =    0.000010000000000
      PEZero:  N= 2 I= 1 D=  8.40D-04 Err=  5.31D-05
      PEZero:  N= 3 I= 2 D=  8.40D-04 Err=  3.53D-05
      PEZero:  N= 3 I= 1 D=  1.68D-03 Err=  9.99D-08
 Maximum DWI energy   std dev =  0.000021067 at pt    68
 Maximum DWI gradient std dev =  0.013655776 at pt    10
 CORRECTOR INTEGRATION CONVERGENCE:
   Recorrection delta-x convergence threshold:    0.010000
   Delta-x Convergence Met
 Point Number:   2          Path Number:   1
   CHANGE IN THE REACTION COORDINATE =    0.16121
   NET REACTION COORDINATE UP TO THIS POINT =    0.32237
  # OF POINTS ALONG THE PATH =   2
  # OF STEPS =   1

 Calculating another point on the path.
 IRC-IRC-IRC-IRC-IRC-IRC-IRC-IRC-IRC-IRC-IRC-IRC-IRC-IRC-IRC-IRC-IRC-IRC
                          Input orientation:                          
 ---------------------------------------------------------------------
 Center     Atomic      Atomic             Coordinates (Angstroms)
 Number     Number       Type             X           Y           Z
 ---------------------------------------------------------------------
      1          6           0       -0.453256    0.485340   -0.512802
      2          6           0        0.708112    0.909191    0.389362
      3          6           0        1.936970    0.042091    0.269707
      4          8           0       -1.639496    0.862247   -0.186707
      5          8           0       -2.003665   -0.998451    0.325679
      6          8           0        1.967711   -1.015739   -0.324847
      7          1           0       -2.668200   -1.668003    0.618815
      8          1           0       -0.247223    0.406002   -1.595299
      9          1           0       -0.797603   -0.836358   -0.211046
     10          1           0        2.846158    0.423018    0.782123
     11          1           0        0.377265    0.897316    1.438388
     12          1           0        0.982519    1.954594    0.175416
 ---------------------------------------------------------------------
                    Distance matrix (angstroms):
                    1          2          3          4          5
     1  C    0.000000
     2  C    1.530465   0.000000
     3  C    2.553815   1.508732   0.000000
     4  O    1.286686   2.417710   3.697578   0.000000
     5  O    2.304009   3.316155   4.076085   1.964015   0.000000
     6  O    2.854759   2.408742   1.213855   4.069135   4.024339
     7  H    3.289897   4.253711   4.924824   2.847676   0.987844
     8  H    1.104782   2.259367   2.895060   2.032416   2.957657
     9  H    1.398756   2.382143   2.912162   1.895952   1.330012
    10  H    3.544975   2.227525   1.110990   4.610060   5.074416
    11  H    2.160239   1.100026   2.128358   2.590269   3.240506
    12  H    2.166518   1.101790   2.139518   2.863446   4.202422
                    6          7          8          9         10
     6  O    0.000000
     7  H    4.775732   0.000000
     8  H    2.922555   3.881356   0.000000
     9  H    2.773462   2.208944   1.939725   0.000000
    10  H    2.016699   5.899761   3.901465   3.981131   0.000000
    11  H    3.049311   4.065393   3.136021   2.665815   2.598283
    12  H    3.169187   5.162128   2.654399   3.332807   2.487362
                   11         12
    11  H    0.000000
    12  H    1.754785   0.000000
 Symmetry turned off by external request.
 Stoichiometry    C3H6O3
 Framework group  C1[X(C3H6O3)]
 Deg. of freedom    30
 Full point group                 C1      NOp   1
 Rotational constants (GHZ):           6.2571446           1.9766612           1.6545649
 Standard basis: 6-31+G(d) (6D, 7F)
   126 basis functions,   216 primitive gaussians,   126 cartesian basis functions
    24 alpha electrons       24 beta electrons
       nuclear repulsion energy       231.4491680201 Hartrees.
 NAtoms=   12 NActive=   12 NUniq=   12 SFac= 1.00D+00 NAtFMM=   60 NAOKFM=F Big=F
 Integral buffers will be    131072 words long.
 Raffenetti 2 integral format.
 Two-electron integral symmetry is turned off.
 One-electron integrals computed using PRISM.
 NBasis=   126 RedAO= T EigKep=  9.28D-05  NBF=   126
 NBsUse=   126 1.00D-06 EigRej= -1.00D+00 NBFU=   126
 Initial guess from the checkpoint file:  "/scratch/bell/zhao922/YARP/paper-example/KHP-network/pp_0/IRC-folder/Gau-70612.chk"
 B after Tr=    -0.000745   -0.001402    0.000457
         Rot=    1.000000    0.000167   -0.000062   -0.000115 Ang=   0.02 deg.
 ExpMin= 4.38D-02 ExpMax= 5.48D+03 ExpMxC= 8.25D+02 IAcc=3 IRadAn=         5 AccDes= 0.00D+00
 Harris functional with IExCor=  402 and IRadAn=       5 diagonalized for initial guess.
 HarFok:  IExCor=  402 AccDes= 0.00D+00 IRadAn=         5 IDoV= 1 UseB2=F ITyADJ=14
 ICtDFT=  3500011 ScaDFX=  1.000000  1.000000  1.000000  1.000000
 FoFCou: FMM=F IPFlag=           0 FMFlag=      100000 FMFlg1=           0
         NFxFlg=           0 DoJE=T BraDBF=F KetDBF=T FulRan=T
         wScrn=  0.000000 ICntrl=       500 IOpCl=  0 I1Cent=   200000004 NGrid=           0
         NMat0=    1 NMatS0=      1 NMatT0=    0 NMatD0=    1 NMtDS0=    0 NMtDT0=    0
 Symmetry not used in FoFCou.
 Keep R1 ints in memory in canonical form, NReq=47237243.
 Requested convergence on RMS density matrix=1.00D-08 within 128 cycles.
 Requested convergence on MAX density matrix=1.00D-06.
 Requested convergence on             energy=1.00D-06.
 No special actions if energy rises.
 SCF Done:  E(RB3LYP) =  -343.428797910     A.U. after   13 cycles
            NFock= 13  Conv=0.73D-08     -V/T= 2.0093
 DoSCS=F DFT=T ScalE2(SS,OS)=  1.000000  1.000000
 Range of M.O.s used for correlation:     1   126
 NBasis=   126 NAE=    24 NBE=    24 NFC=     0 NFV=     0
 NROrb=    126 NOA=    24 NOB=    24 NVA=   102 NVB=   102

 **** Warning!!: The largest alpha MO coefficient is  0.33900639D+02

 Symmetrizing basis deriv contribution to polar:
 IMax=3 JMax=2 DiffMx= 0.00D+00
 G2DrvN: will do    13 centers at a time, making    1 passes.
 Calling FoFCou, ICntrl=  3107 FMM=F I1Cent=   0 AccDes= 0.00D+00.
 End of G2Drv F.D. properties file   721 does not exist.
 End of G2Drv F.D. properties file   722 does not exist.
 End of G2Drv F.D. properties file   788 does not exist.
          IDoAtm=111111111111
          Differentiating once with respect to nuclear coordinates.
 Keep R1 ints in memory in canonical form, NReq=47193265.
          There are    39 degrees of freedom in the 1st order CPHF.  IDoFFX=6 NUNeed=     0.
     33 vectors produced by pass  0 Test12= 6.28D-15 2.56D-09 XBig12= 2.39D-01 2.47D-01.
 AX will form    33 AO Fock derivatives at one time.
     33 vectors produced by pass  1 Test12= 6.28D-15 2.56D-09 XBig12= 1.97D-01 2.31D-01.
     33 vectors produced by pass  2 Test12= 6.28D-15 2.56D-09 XBig12= 2.11D-03 6.74D-03.
     33 vectors produced by pass  3 Test12= 6.28D-15 2.56D-09 XBig12= 1.19D-05 6.22D-04.
     33 vectors produced by pass  4 Test12= 6.28D-15 2.56D-09 XBig12= 2.03D-08 2.93D-05.
     27 vectors produced by pass  5 Test12= 6.28D-15 2.56D-09 XBig12= 2.40D-11 6.84D-07.
      3 vectors produced by pass  6 Test12= 6.28D-15 2.56D-09 XBig12= 2.16D-14 1.65D-08.
 InvSVY:  IOpt=1 It=  1 EMax= 1.33D-15
 Solved reduced A of dimension   195 with    33 vectors.
 End of Minotr F.D. properties file   721 does not exist.
 End of Minotr F.D. properties file   722 does not exist.
 End of Minotr F.D. properties file   788 does not exist.
 Calling FoFJK, ICntrl=    100127 FMM=F ISym2X=0 I1Cent= 0 IOpClX= 0 NMat=1 NMatS=1 NMatT=0.
 -------------------------------------------------------------------
 Center     Atomic                   Forces (Hartrees/Bohr)
 Number     Number              X              Y              Z
 -------------------------------------------------------------------
      1        6          -0.017824447    0.042483163    0.000965426
      2        6          -0.000826056   -0.007119608    0.000878362
      3        6           0.000633431    0.000142385    0.000333881
      4        8           0.032310025    0.017787519   -0.014997375
      5        8           0.012502319   -0.006288802   -0.002404832
      6        8          -0.000476008   -0.000461006   -0.000211172
      7        1           0.013425111   -0.013039383   -0.003708907
      8        1           0.000095338   -0.007813959    0.001171099
      9        1          -0.039141033   -0.025624012    0.018762743
     10        1           0.000118485   -0.000010254   -0.000098893
     11        1          -0.000067611    0.000338087    0.000057929
     12        1          -0.000749554   -0.000394130   -0.000748261
 -------------------------------------------------------------------
 Cartesian Forces:  Max     0.042483163 RMS     0.013876483
 IRC-IRC-IRC-IRC-IRC-IRC-IRC-IRC-IRC-IRC-IRC-IRC-IRC-IRC-IRC-IRC-IRC-IRC
 Pt  3 Step number   1 out of a maximum of 100
 Modified Bulirsch-Stoer Extrapolation Cycles:
    EPS =    0.000010000000000
      PEZero:  N= 2 I= 1 D=  8.40D-04 Err=  4.25D-05
      PEZero:  N= 3 I= 2 D=  8.40D-04 Err=  2.83D-05
      PEZero:  N= 3 I= 1 D=  1.68D-03 Err=  7.35D-08
 Maximum DWI energy   std dev =  0.000008394 at pt    71
 Maximum DWI gradient std dev =  0.004475080 at pt    34
 CORRECTOR INTEGRATION CONVERGENCE:
   Recorrection delta-x convergence threshold:    0.010000
   Delta-x Convergence Met
 Point Number:   3          Path Number:   1
   CHANGE IN THE REACTION COORDINATE =    0.16125
   NET REACTION COORDINATE UP TO THIS POINT =    0.48362
  # OF POINTS ALONG THE PATH =   3
  # OF STEPS =   1

 Calculating another point on the path.
 IRC-IRC-IRC-IRC-IRC-IRC-IRC-IRC-IRC-IRC-IRC-IRC-IRC-IRC-IRC-IRC-IRC-IRC
                          Input orientation:                          
 ---------------------------------------------------------------------
 Center     Atomic      Atomic             Coordinates (Angstroms)
 Number     Number       Type             X           Y           Z
 ---------------------------------------------------------------------
      1          6           0       -0.455366    0.490646   -0.512738
      2          6           0        0.708014    0.908343    0.389465
      3          6           0        1.937048    0.042112    0.269747
      4          8           0       -1.636549    0.863779   -0.188057
      5          8           0       -2.002425   -0.999015    0.325435
      6          8           0        1.967668   -1.015782   -0.324866
      7          1           0       -2.648981   -1.686303    0.613251
      8          1           0       -0.247038    0.394870   -1.593592
      9          1           0       -0.856450   -0.874846   -0.182961
     10          1           0        2.846334    0.422996    0.781985
     11          1           0        0.377157    0.897802    1.438467
     12          1           0        0.981472    1.954043    0.174373
 ---------------------------------------------------------------------
                    Distance matrix (angstroms):
                    1          2          3          4          5
     1  C    0.000000
     2  C    1.530325   0.000000
     3  C    2.556777   1.508381   0.000000
     4  O    1.280562   2.415055   3.695310   0.000000
     5  O    2.305432   3.314904   4.075106   1.966606   0.000000
     6  O    2.859320   2.408164   1.213936   4.067167   4.023035
     7  H    3.289211   4.248728   4.912950   2.858327   0.986529
     8  H    1.104906   2.260153   2.892525   2.031291   2.950757
     9  H    1.460887   2.440283   2.974792   1.905622   1.259818
    10  H    3.547126   2.227565   1.110973   4.607766   5.073560
    11  H    2.160109   1.099992   2.128702   2.588774   3.240242
    12  H    2.162905   1.102058   2.139557   2.859032   4.200835
                    6          7          8          9         10
     6  O    0.000000
     7  H    4.758478   0.000000
     8  H    2.916252   3.869208   0.000000
     9  H    2.831191   2.122637   1.993349   0.000000
    10  H    2.016743   5.888642   3.900398   4.040560   0.000000
    11  H    3.049733   4.064000   3.136230   2.700574   2.598701
    12  H    3.168861   5.159935   2.658186   3.392383   2.488174
                   11         12
    11  H    0.000000
    12  H    1.754644   0.000000
 Symmetry turned off by external request.
 Stoichiometry    C3H6O3
 Framework group  C1[X(C3H6O3)]
 Deg. of freedom    30
 Full point group                 C1      NOp   1
 Rotational constants (GHZ):           6.2409161           1.9785229           1.6545315
 Standard basis: 6-31+G(d) (6D, 7F)
   126 basis functions,   216 primitive gaussians,   126 cartesian basis functions
    24 alpha electrons       24 beta electrons
       nuclear repulsion energy       231.5215783947 Hartrees.
 NAtoms=   12 NActive=   12 NUniq=   12 SFac= 1.00D+00 NAtFMM=   60 NAOKFM=F Big=F
 Integral buffers will be    131072 words long.
 Raffenetti 2 integral format.
 Two-electron integral symmetry is turned off.
 One-electron integrals computed using PRISM.
 NBasis=   126 RedAO= T EigKep=  9.30D-05  NBF=   126
 NBsUse=   126 1.00D-06 EigRej= -1.00D+00 NBFU=   126
 Initial guess from the checkpoint file:  "/scratch/bell/zhao922/YARP/paper-example/KHP-network/pp_0/IRC-folder/Gau-70612.chk"
 B after Tr=    -0.000787   -0.001338    0.000460
         Rot=    1.000000    0.000165   -0.000060   -0.000100 Ang=   0.02 deg.
 ExpMin= 4.38D-02 ExpMax= 5.48D+03 ExpMxC= 8.25D+02 IAcc=3 IRadAn=         5 AccDes= 0.00D+00
 Harris functional with IExCor=  402 and IRadAn=       5 diagonalized for initial guess.
 HarFok:  IExCor=  402 AccDes= 0.00D+00 IRadAn=         5 IDoV= 1 UseB2=F ITyADJ=14
 ICtDFT=  3500011 ScaDFX=  1.000000  1.000000  1.000000  1.000000
 FoFCou: FMM=F IPFlag=           0 FMFlag=      100000 FMFlg1=           0
         NFxFlg=           0 DoJE=T BraDBF=F KetDBF=T FulRan=T
         wScrn=  0.000000 ICntrl=       500 IOpCl=  0 I1Cent=   200000004 NGrid=           0
         NMat0=    1 NMatS0=      1 NMatT0=    0 NMatD0=    1 NMtDS0=    0 NMtDT0=    0
 Symmetry not used in FoFCou.
 Keep R1 ints in memory in canonical form, NReq=47237243.
 Requested convergence on RMS density matrix=1.00D-08 within 128 cycles.
 Requested convergence on MAX density matrix=1.00D-06.
 Requested convergence on             energy=1.00D-06.
 No special actions if energy rises.
 SCF Done:  E(RB3LYP) =  -343.439768504     A.U. after   13 cycles
            NFock= 13  Conv=0.52D-08     -V/T= 2.0093
 DoSCS=F DFT=T ScalE2(SS,OS)=  1.000000  1.000000
 Range of M.O.s used for correlation:     1   126
 NBasis=   126 NAE=    24 NBE=    24 NFC=     0 NFV=     0
 NROrb=    126 NOA=    24 NOB=    24 NVA=   102 NVB=   102

 **** Warning!!: The largest alpha MO coefficient is  0.34630844D+02

 Symmetrizing basis deriv contribution to polar:
 IMax=3 JMax=2 DiffMx= 0.00D+00
 G2DrvN: will do    13 centers at a time, making    1 passes.
 Calling FoFCou, ICntrl=  3107 FMM=F I1Cent=   0 AccDes= 0.00D+00.
 End of G2Drv F.D. properties file   721 does not exist.
 End of G2Drv F.D. properties file   722 does not exist.
 End of G2Drv F.D. properties file   788 does not exist.
          IDoAtm=111111111111
          Differentiating once with respect to nuclear coordinates.
 Keep R1 ints in memory in canonical form, NReq=47193265.
          There are    39 degrees of freedom in the 1st order CPHF.  IDoFFX=6 NUNeed=     0.
     33 vectors produced by pass  0 Test12= 6.28D-15 2.56D-09 XBig12= 2.08D-01 2.22D-01.
 AX will form    33 AO Fock derivatives at one time.
     33 vectors produced by pass  1 Test12= 6.28D-15 2.56D-09 XBig12= 1.77D-01 2.26D-01.
     33 vectors produced by pass  2 Test12= 6.28D-15 2.56D-09 XBig12= 1.85D-03 6.53D-03.
     33 vectors produced by pass  3 Test12= 6.28D-15 2.56D-09 XBig12= 1.06D-05 5.85D-04.
     33 vectors produced by pass  4 Test12= 6.28D-15 2.56D-09 XBig12= 1.89D-08 2.58D-05.
     27 vectors produced by pass  5 Test12= 6.28D-15 2.56D-09 XBig12= 2.25D-11 7.34D-07.
      3 vectors produced by pass  6 Test12= 6.28D-15 2.56D-09 XBig12= 2.07D-14 1.52D-08.
 InvSVY:  IOpt=1 It=  1 EMax= 1.78D-15
 Solved reduced A of dimension   195 with    33 vectors.
 End of Minotr F.D. properties file   721 does not exist.
 End of Minotr F.D. properties file   722 does not exist.
 End of Minotr F.D. properties file   788 does not exist.
 Calling FoFJK, ICntrl=    100127 FMM=F ISym2X=0 I1Cent= 0 IOpClX= 0 NMat=1 NMatS=1 NMatT=0.
 -------------------------------------------------------------------
 Center     Atomic                   Forces (Hartrees/Bohr)
 Number     Number              X              Y              Z
 -------------------------------------------------------------------
      1        6          -0.022468825    0.058816205    0.000217115
      2        6          -0.001072235   -0.009096634    0.001087936
      3        6           0.000836720    0.000237139    0.000429755
      4        8           0.042848814    0.021443783   -0.019470295
      5        8           0.018277881   -0.009050247   -0.003360942
      6        8          -0.000596173   -0.000623942   -0.000269940
      7        1           0.017733327   -0.015884686   -0.005367385
      8        1           0.000206690   -0.010107339    0.001626770
      9        1          -0.054897167   -0.035651191    0.026077766
     10        1           0.000165424   -0.000022543   -0.000123059
     11        1          -0.000106494    0.000446053    0.000071648
     12        1          -0.000927963   -0.000506598   -0.000919369
 -------------------------------------------------------------------
 Cartesian Forces:  Max     0.058816205 RMS     0.018871453
 IRC-IRC-IRC-IRC-IRC-IRC-IRC-IRC-IRC-IRC-IRC-IRC-IRC-IRC-IRC-IRC-IRC-IRC
 Pt  4 Step number   1 out of a maximum of 100
 Modified Bulirsch-Stoer Extrapolation Cycles:
    EPS =    0.000010000000000
      PEZero:  N= 2 I= 1 D=  8.40D-04 Err=  3.08D-05
      PEZero:  N= 3 I= 2 D=  8.40D-04 Err=  2.05D-05
      PEZero:  N= 3 I= 1 D=  1.68D-03 Err=  5.73D-08
 Maximum DWI energy   std dev =  0.000020096 at pt    18
 Maximum DWI gradient std dev =  0.002165055 at pt    25
 CORRECTOR INTEGRATION CONVERGENCE:
   Recorrection delta-x convergence threshold:    0.010000
   Delta-x Convergence Met
 Point Number:   4          Path Number:   1
   CHANGE IN THE REACTION COORDINATE =    0.16127
   NET REACTION COORDINATE UP TO THIS POINT =    0.64489
  # OF POINTS ALONG THE PATH =   4
  # OF STEPS =   1

 Calculating another point on the path.
 IRC-IRC-IRC-IRC-IRC-IRC-IRC-IRC-IRC-IRC-IRC-IRC-IRC-IRC-IRC-IRC-IRC-IRC
                          Input orientation:                          
 ---------------------------------------------------------------------
 Center     Atomic      Atomic             Coordinates (Angstroms)
 Number     Number       Type             X           Y           Z
 ---------------------------------------------------------------------
      1          6           0       -0.457332    0.496007   -0.512759
      2          6           0        0.707918    0.907540    0.389560
      3          6           0        1.937122    0.042134    0.269785
      4          8           0       -1.633666    0.865170   -0.189358
      5          8           0       -2.001166   -0.999663    0.325217
      6          8           0        1.967629   -1.015824   -0.324884
      7          1           0       -2.630174   -1.702659    0.607351
      8          1           0       -0.246773    0.384174   -1.591822
      9          1           0       -0.916065   -0.913375   -0.154759
     10          1           0        2.846513    0.422969    0.781856
     11          1           0        0.377035    0.898278    1.438541
     12          1           0        0.980516    1.953507    0.173429
 ---------------------------------------------------------------------
                    Distance matrix (angstroms):
                    1          2          3          4          5
     1  C    0.000000
     2  C    1.530145   0.000000
     3  C    2.559645   1.508051   0.000000
     4  O    1.274610   2.412459   3.693065   0.000000
     5  O    2.307088   3.313714   4.074129   1.969124   0.000000
     6  O    2.863803   2.407620   1.214017   4.065198   4.021719
     7  H    3.287860   4.243045   4.900862   2.867320   0.984608
     8  H    1.105088   2.260801   2.889977   2.030206   2.944137
     9  H    1.524782   2.499867   3.038735   1.918169   1.189649
    10  H    3.549191   2.227621   1.110966   4.605519   5.072711
    11  H    2.159991   1.099969   2.129048   2.587291   3.239987
    12  H    2.159298   1.102302   2.139562   2.854828   4.199367
                    6          7          8          9         10
     6  O    0.000000
     7  H    4.741371   0.000000
     8  H    2.910104   3.856402   0.000000
     9  H    2.890525   2.035178   2.048594   0.000000
    10  H    2.016789   5.877317   3.899266   4.101227   0.000000
    11  H    3.050155   4.061904   3.136326   2.737298   2.599130
    12  H    3.168539   5.156833   2.661795   3.453077   2.488911
                   11         12
    11  H    0.000000
    12  H    1.754482   0.000000
 Symmetry turned off by external request.
 Stoichiometry    C3H6O3
 Framework group  C1[X(C3H6O3)]
 Deg. of freedom    30
 Full point group                 C1      NOp   1
 Rotational constants (GHZ):           6.2246634           1.9802802           1.6544338
 Standard basis: 6-31+G(d) (6D, 7F)
   126 basis functions,   216 primitive gaussians,   126 cartesian basis functions
    24 alpha electrons       24 beta electrons
       nuclear repulsion energy       231.6215508560 Hartrees.
 NAtoms=   12 NActive=   12 NUniq=   12 SFac= 1.00D+00 NAtFMM=   60 NAOKFM=F Big=F
 Integral buffers will be    131072 words long.
 Raffenetti 2 integral format.
 Two-electron integral symmetry is turned off.
 One-electron integrals computed using PRISM.
 NBasis=   126 RedAO= T EigKep=  9.32D-05  NBF=   126
 NBsUse=   126 1.00D-06 EigRej= -1.00D+00 NBFU=   126
 Initial guess from the checkpoint file:  "/scratch/bell/zhao922/YARP/paper-example/KHP-network/pp_0/IRC-folder/Gau-70612.chk"
 B after Tr=    -0.000808   -0.001292    0.000459
         Rot=    1.000000    0.000163   -0.000058   -0.000089 Ang=   0.02 deg.
 ExpMin= 4.38D-02 ExpMax= 5.48D+03 ExpMxC= 8.25D+02 IAcc=3 IRadAn=         5 AccDes= 0.00D+00
 Harris functional with IExCor=  402 and IRadAn=       5 diagonalized for initial guess.
 HarFok:  IExCor=  402 AccDes= 0.00D+00 IRadAn=         5 IDoV= 1 UseB2=F ITyADJ=14
 ICtDFT=  3500011 ScaDFX=  1.000000  1.000000  1.000000  1.000000
 FoFCou: FMM=F IPFlag=           0 FMFlag=      100000 FMFlg1=           0
         NFxFlg=           0 DoJE=T BraDBF=F KetDBF=T FulRan=T
         wScrn=  0.000000 ICntrl=       500 IOpCl=  0 I1Cent=   200000004 NGrid=           0
         NMat0=    1 NMatS0=      1 NMatT0=    0 NMatD0=    1 NMtDS0=    0 NMtDT0=    0
 Symmetry not used in FoFCou.
 Keep R1 ints in memory in canonical form, NReq=47237243.
 Requested convergence on RMS density matrix=1.00D-08 within 128 cycles.
 Requested convergence on MAX density matrix=1.00D-06.
 Requested convergence on             energy=1.00D-06.
 No special actions if energy rises.
 SCF Done:  E(RB3LYP) =  -343.453751959     A.U. after   13 cycles
            NFock= 13  Conv=0.37D-08     -V/T= 2.0092
 DoSCS=F DFT=T ScalE2(SS,OS)=  1.000000  1.000000
 Range of M.O.s used for correlation:     1   126
 NBasis=   126 NAE=    24 NBE=    24 NFC=     0 NFV=     0
 NROrb=    126 NOA=    24 NOB=    24 NVA=   102 NVB=   102

 **** Warning!!: The largest alpha MO coefficient is  0.35443546D+02

 Symmetrizing basis deriv contribution to polar:
 IMax=3 JMax=2 DiffMx= 0.00D+00
 G2DrvN: will do    13 centers at a time, making    1 passes.
 Calling FoFCou, ICntrl=  3107 FMM=F I1Cent=   0 AccDes= 0.00D+00.
 End of G2Drv F.D. properties file   721 does not exist.
 End of G2Drv F.D. properties file   722 does not exist.
 End of G2Drv F.D. properties file   788 does not exist.
          IDoAtm=111111111111
          Differentiating once with respect to nuclear coordinates.
 Keep R1 ints in memory in canonical form, NReq=47193265.
          There are    39 degrees of freedom in the 1st order CPHF.  IDoFFX=6 NUNeed=     0.
     33 vectors produced by pass  0 Test12= 6.28D-15 2.56D-09 XBig12= 1.97D-01 2.10D-01.
 AX will form    33 AO Fock derivatives at one time.
     33 vectors produced by pass  1 Test12= 6.28D-15 2.56D-09 XBig12= 1.61D-01 2.16D-01.
     33 vectors produced by pass  2 Test12= 6.28D-15 2.56D-09 XBig12= 1.63D-03 6.20D-03.
     33 vectors produced by pass  3 Test12= 6.28D-15 2.56D-09 XBig12= 9.29D-06 4.92D-04.
     33 vectors produced by pass  4 Test12= 6.28D-15 2.56D-09 XBig12= 1.73D-08 2.04D-05.
     27 vectors produced by pass  5 Test12= 6.28D-15 2.56D-09 XBig12= 2.15D-11 7.41D-07.
      4 vectors produced by pass  6 Test12= 6.28D-15 2.56D-09 XBig12= 1.97D-14 1.48D-08.
 InvSVY:  IOpt=1 It=  1 EMax= 2.22D-15
 Solved reduced A of dimension   196 with    33 vectors.
 End of Minotr F.D. properties file   721 does not exist.
 End of Minotr F.D. properties file   722 does not exist.
 End of Minotr F.D. properties file   788 does not exist.
 Calling FoFJK, ICntrl=    100127 FMM=F ISym2X=0 I1Cent= 0 IOpClX= 0 NMat=1 NMatS=1 NMatT=0.
 -------------------------------------------------------------------
 Center     Atomic                   Forces (Hartrees/Bohr)
 Number     Number              X              Y              Z
 -------------------------------------------------------------------
      1        6          -0.025530756    0.071945593   -0.000721109
      2        6          -0.001285532   -0.010513820    0.001218812
      3        6           0.000964643    0.000281484    0.000464924
      4        8           0.051020806    0.024063970   -0.022964301
      5        8           0.020732688   -0.013006427   -0.002812876
      6        8          -0.000663588   -0.000769379   -0.000311738
      7        1           0.021016532   -0.017327434   -0.006802543
      8        1           0.000337107   -0.011877257    0.002059376
      9        1          -0.065625299   -0.042690603    0.030935939
     10        1           0.000202620   -0.000030992   -0.000139464
     11        1          -0.000143571    0.000531690    0.000082437
     12        1          -0.001025652   -0.000606824   -0.001009457
 -------------------------------------------------------------------
 Cartesian Forces:  Max     0.071945593 RMS     0.022536184
 IRC-IRC-IRC-IRC-IRC-IRC-IRC-IRC-IRC-IRC-IRC-IRC-IRC-IRC-IRC-IRC-IRC-IRC
 Pt  5 Step number   1 out of a maximum of 100
 Modified Bulirsch-Stoer Extrapolation Cycles:
    EPS =    0.000010000000000
      PEZero:  N= 2 I= 1 D=  8.40D-04 Err=  1.81D-05
      PEZero:  N= 3 I= 2 D=  8.40D-04 Err=  1.20D-05
      PEZero:  N= 3 I= 1 D=  1.68D-03 Err=  5.42D-08
 Maximum DWI energy   std dev =  0.000037927 at pt    14
 Maximum DWI gradient std dev =  0.003011181 at pt    18
 CORRECTOR INTEGRATION CONVERGENCE:
   Recorrection delta-x convergence threshold:    0.010000
   Delta-x Convergence Met
 Point Number:   5          Path Number:   1
   CHANGE IN THE REACTION COORDINATE =    0.16128
   NET REACTION COORDINATE UP TO THIS POINT =    0.80618
  # OF POINTS ALONG THE PATH =   5
  # OF STEPS =   1

 Calculating another point on the path.
 IRC-IRC-IRC-IRC-IRC-IRC-IRC-IRC-IRC-IRC-IRC-IRC-IRC-IRC-IRC-IRC-IRC-IRC
                          Input orientation:                          
 ---------------------------------------------------------------------
 Center     Atomic      Atomic             Coordinates (Angstroms)
 Number     Number       Type             X           Y           Z
 ---------------------------------------------------------------------
      1          6           0       -0.459258    0.501613   -0.512845
      2          6           0        0.707818    0.906740    0.389651
      3          6           0        1.937195    0.042154    0.269818
      4          8           0       -1.630712    0.866540   -0.190687
      5          8           0       -2.000053   -1.000498    0.325115
      6          8           0        1.967592   -1.015870   -0.324901
      7          1           0       -2.611037   -1.718026    0.601000
      8          1           0       -0.246420    0.373292   -1.589878
      9          1           0       -0.975395   -0.952250   -0.126890
     10          1           0        2.846700    0.422940    0.781730
     11          1           0        0.376896    0.898767    1.438615
     12          1           0        0.979614    1.952944    0.172541
 ---------------------------------------------------------------------
                    Distance matrix (angstroms):
                    1          2          3          4          5
     1  C    0.000000
     2  C    1.529932   0.000000
     3  C    2.562547   1.507725   0.000000
     4  O    1.268567   2.409798   3.690750   0.000000
     5  O    2.309235   3.312746   4.073340   1.971876   0.000000
     6  O    2.868393   2.407083   1.214097   4.063161   4.020568
     7  H    3.285970   4.236609   4.888182   2.875376   0.981967
     8  H    1.105335   2.261343   2.887264   2.029111   2.937639
     9  H    1.590307   2.560441   3.103126   1.934298   1.120964
    10  H    3.551263   2.227691   1.110969   4.603215   5.072050
    11  H    2.159880   1.099954   2.129414   2.585760   3.239904
    12  H    2.155567   1.102522   2.139519   2.850615   4.198156
                    6          7          8          9         10
     6  O    0.000000
     7  H    4.723787   0.000000
     8  H    2.903754   3.842521   0.000000
     9  H    2.950327   1.947193   2.104471   0.000000
    10  H    2.016838   5.865431   3.897997   4.162348   0.000000
    11  H    3.050597   4.059181   3.136306   2.775925   2.599585
    12  H    3.168187   5.152899   2.665442   3.514523   2.489585
                   11         12
    11  H    0.000000
    12  H    1.754281   0.000000
 Symmetry turned off by external request.
 Stoichiometry    C3H6O3
 Framework group  C1[X(C3H6O3)]
 Deg. of freedom    30
 Full point group                 C1      NOp   1
 Rotational constants (GHZ):           6.2074582           1.9819397           1.6542192
 Standard basis: 6-31+G(d) (6D, 7F)
   126 basis functions,   216 primitive gaussians,   126 cartesian basis functions
    24 alpha electrons       24 beta electrons
       nuclear repulsion energy       231.7485488118 Hartrees.
 NAtoms=   12 NActive=   12 NUniq=   12 SFac= 1.00D+00 NAtFMM=   60 NAOKFM=F Big=F
 Integral buffers will be    131072 words long.
 Raffenetti 2 integral format.
 Two-electron integral symmetry is turned off.
 One-electron integrals computed using PRISM.
 NBasis=   126 RedAO= T EigKep=  9.34D-05  NBF=   126
 NBsUse=   126 1.00D-06 EigRej= -1.00D+00 NBFU=   126
 Initial guess from the checkpoint file:  "/scratch/bell/zhao922/YARP/paper-example/KHP-network/pp_0/IRC-folder/Gau-70612.chk"
 B after Tr=    -0.000794   -0.001283    0.000447
         Rot=    1.000000    0.000161   -0.000055   -0.000087 Ang=   0.02 deg.
 ExpMin= 4.38D-02 ExpMax= 5.48D+03 ExpMxC= 8.25D+02 IAcc=3 IRadAn=         5 AccDes= 0.00D+00
 Harris functional with IExCor=  402 and IRadAn=       5 diagonalized for initial guess.
 HarFok:  IExCor=  402 AccDes= 0.00D+00 IRadAn=         5 IDoV= 1 UseB2=F ITyADJ=14
 ICtDFT=  3500011 ScaDFX=  1.000000  1.000000  1.000000  1.000000
 FoFCou: FMM=F IPFlag=           0 FMFlag=      100000 FMFlg1=           0
         NFxFlg=           0 DoJE=T BraDBF=F KetDBF=T FulRan=T
         wScrn=  0.000000 ICntrl=       500 IOpCl=  0 I1Cent=   200000004 NGrid=           0
         NMat0=    1 NMatS0=      1 NMatT0=    0 NMatD0=    1 NMtDS0=    0 NMtDT0=    0
 Symmetry not used in FoFCou.
 Keep R1 ints in memory in canonical form, NReq=47237243.
 Requested convergence on RMS density matrix=1.00D-08 within 128 cycles.
 Requested convergence on MAX density matrix=1.00D-06.
 Requested convergence on             energy=1.00D-06.
 No special actions if energy rises.
 SCF Done:  E(RB3LYP) =  -343.469294547     A.U. after   12 cycles
            NFock= 12  Conv=0.76D-08     -V/T= 2.0091
 DoSCS=F DFT=T ScalE2(SS,OS)=  1.000000  1.000000
 Range of M.O.s used for correlation:     1   126
 NBasis=   126 NAE=    24 NBE=    24 NFC=     0 NFV=     0
 NROrb=    126 NOA=    24 NOB=    24 NVA=   102 NVB=   102

 **** Warning!!: The largest alpha MO coefficient is  0.37576223D+02

 Symmetrizing basis deriv contribution to polar:
 IMax=3 JMax=2 DiffMx= 0.00D+00
 G2DrvN: will do    13 centers at a time, making    1 passes.
 Calling FoFCou, ICntrl=  3107 FMM=F I1Cent=   0 AccDes= 0.00D+00.
 End of G2Drv F.D. properties file   721 does not exist.
 End of G2Drv F.D. properties file   722 does not exist.
 End of G2Drv F.D. properties file   788 does not exist.
          IDoAtm=111111111111
          Differentiating once with respect to nuclear coordinates.
 Keep R1 ints in memory in canonical form, NReq=47193265.
          There are    39 degrees of freedom in the 1st order CPHF.  IDoFFX=6 NUNeed=     0.
     33 vectors produced by pass  0 Test12= 6.28D-15 2.56D-09 XBig12= 1.93D-01 1.85D-01.
 AX will form    33 AO Fock derivatives at one time.
     33 vectors produced by pass  1 Test12= 6.28D-15 2.56D-09 XBig12= 1.50D-01 1.96D-01.
     33 vectors produced by pass  2 Test12= 6.28D-15 2.56D-09 XBig12= 1.44D-03 5.82D-03.
     33 vectors produced by pass  3 Test12= 6.28D-15 2.56D-09 XBig12= 8.07D-06 3.78D-04.
     33 vectors produced by pass  4 Test12= 6.28D-15 2.56D-09 XBig12= 1.63D-08 1.79D-05.
     27 vectors produced by pass  5 Test12= 6.28D-15 2.56D-09 XBig12= 2.07D-11 7.37D-07.
      3 vectors produced by pass  6 Test12= 6.28D-15 2.56D-09 XBig12= 1.84D-14 1.56D-08.
 InvSVY:  IOpt=1 It=  1 EMax= 2.22D-15
 Solved reduced A of dimension   195 with    33 vectors.
 End of Minotr F.D. properties file   721 does not exist.
 End of Minotr F.D. properties file   722 does not exist.
 End of Minotr F.D. properties file   788 does not exist.
 Calling FoFJK, ICntrl=    100127 FMM=F ISym2X=0 I1Cent= 0 IOpClX= 0 NMat=1 NMatS=1 NMatT=0.
 -------------------------------------------------------------------
 Center     Atomic                   Forces (Hartrees/Bohr)
 Number     Number              X              Y              Z
 -------------------------------------------------------------------
      1        6          -0.026868363    0.080498308   -0.001645578
      2        6          -0.001456017   -0.011285181    0.001276883
      3        6           0.000998284    0.000247697    0.000426790
      4        8           0.056190229    0.025866089   -0.025310043
      5        8           0.016240509   -0.018047793    0.000659122
      6        8          -0.000674644   -0.000887692   -0.000334209
      7        1           0.022793477   -0.017610815   -0.007716126
      8        1           0.000461242   -0.013047256    0.002445354
      9        1          -0.066700818   -0.045596016    0.031269883
     10        1           0.000223087   -0.000032792   -0.000148734
     11        1          -0.000175999    0.000587212    0.000088083
     12        1          -0.001030987   -0.000691760   -0.001011427
 -------------------------------------------------------------------
 Cartesian Forces:  Max     0.080498308 RMS     0.024134846
 IRC-IRC-IRC-IRC-IRC-IRC-IRC-IRC-IRC-IRC-IRC-IRC-IRC-IRC-IRC-IRC-IRC-IRC
 Pt  6 Step number   1 out of a maximum of 100
 Modified Bulirsch-Stoer Extrapolation Cycles:
    EPS =    0.000010000000000
      PEZero:  N= 2 I= 1 D=  8.40D-04 Err=  2.06D-05
      PEZero:  N= 3 I= 2 D=  8.40D-04 Err=  1.38D-05
      PEZero:  N= 3 I= 1 D=  1.68D-03 Err=  6.14D-08
 Maximum DWI energy   std dev =  0.000051547 at pt    28
 Maximum DWI gradient std dev =  0.005054584 at pt    27
 CORRECTOR INTEGRATION CONVERGENCE:
   Recorrection delta-x convergence threshold:    0.010000
   Delta-x Convergence Met
 Point Number:   6          Path Number:   1
   CHANGE IN THE REACTION COORDINATE =    0.16128
   NET REACTION COORDINATE UP TO THIS POINT =    0.96746
  # OF POINTS ALONG THE PATH =   6
  # OF STEPS =   1

 Calculating another point on the path.
 IRC-IRC-IRC-IRC-IRC-IRC-IRC-IRC-IRC-IRC-IRC-IRC-IRC-IRC-IRC-IRC-IRC-IRC
                          Input orientation:                          
 ---------------------------------------------------------------------
 Center     Atomic      Atomic             Coordinates (Angstroms)
 Number     Number       Type             X           Y           Z
 ---------------------------------------------------------------------
      1          6           0       -0.461276    0.507842   -0.512999
      2          6           0        0.707704    0.905882    0.389748
      3          6           0        1.937268    0.042169    0.269847
      4          8           0       -1.627469    0.868038   -0.192155
      5          8           0       -1.999406   -1.001667    0.325308
      6          8           0        1.967555   -1.015924   -0.324921
      7          1           0       -2.590543   -1.733746    0.593963
      8          1           0       -0.245955    0.361305   -1.587558
      9          1           0       -1.032127   -0.992913   -0.100354
     10          1           0        2.846901    0.422911    0.781594
     11          1           0        0.376725    0.899305    1.438693
     12          1           0        0.978725    1.952295    0.171667
 ---------------------------------------------------------------------
                    Distance matrix (angstroms):
                    1          2          3          4          5
     1  C    0.000000
     2  C    1.529674   0.000000
     3  C    2.565680   1.507384   0.000000
     4  O    1.262017   2.406880   3.688205   0.000000
     5  O    2.312406   3.312301   4.073091   1.975323   0.000000
     6  O    2.873405   2.406515   1.214177   4.060927   4.019923
     7  H    3.283879   4.229394   4.874423   2.883535   0.978549
     8  H    1.105673   2.261806   2.884140   2.027932   2.931099
     9  H    1.657833   2.621571   3.166346   1.956016   1.056832
    10  H    3.553480   2.227772   1.110982   4.600685   5.071914
    11  H    2.159767   1.099944   2.129831   2.584073   3.240266
    12  H    2.151468   1.102720   2.139399   2.846089   4.197471
                    6          7          8          9         10
     6  O    0.000000
     7  H    4.704878   0.000000
     8  H    2.896660   3.826927   0.000000
     9  H    3.008164   1.859993   2.159571   0.000000
    10  H    2.016896   5.852535   3.896464   4.222469   0.000000
    11  H    3.051094   4.056009   3.136140   2.816739   2.600096
    12  H    3.167761   5.148292   2.669450   3.576558   2.490203
                   11         12
    11  H    0.000000
    12  H    1.754009   0.000000
 Symmetry turned off by external request.
 Stoichiometry    C3H6O3
 Framework group  C1[X(C3H6O3)]
 Deg. of freedom    30
 Full point group                 C1      NOp   1
 Rotational constants (GHZ):           6.1876793           1.9834918           1.6537817
 Standard basis: 6-31+G(d) (6D, 7F)
   126 basis functions,   216 primitive gaussians,   126 cartesian basis functions
    24 alpha electrons       24 beta electrons
       nuclear repulsion energy       231.8919326165 Hartrees.
 NAtoms=   12 NActive=   12 NUniq=   12 SFac= 1.00D+00 NAtFMM=   60 NAOKFM=F Big=F
 Integral buffers will be    131072 words long.
 Raffenetti 2 integral format.
 Two-electron integral symmetry is turned off.
 One-electron integrals computed using PRISM.
 NBasis=   126 RedAO= T EigKep=  9.36D-05  NBF=   126
 NBsUse=   126 1.00D-06 EigRej= -1.00D+00 NBFU=   126
 Initial guess from the checkpoint file:  "/scratch/bell/zhao922/YARP/paper-example/KHP-network/pp_0/IRC-folder/Gau-70612.chk"
 B after Tr=    -0.000714   -0.001347    0.000414
         Rot=    1.000000    0.000156   -0.000050   -0.000098 Ang=   0.02 deg.
 ExpMin= 4.38D-02 ExpMax= 5.48D+03 ExpMxC= 8.25D+02 IAcc=3 IRadAn=         5 AccDes= 0.00D+00
 Harris functional with IExCor=  402 and IRadAn=       5 diagonalized for initial guess.
 HarFok:  IExCor=  402 AccDes= 0.00D+00 IRadAn=         5 IDoV= 1 UseB2=F ITyADJ=14
 ICtDFT=  3500011 ScaDFX=  1.000000  1.000000  1.000000  1.000000
 FoFCou: FMM=F IPFlag=           0 FMFlag=      100000 FMFlg1=           0
         NFxFlg=           0 DoJE=T BraDBF=F KetDBF=T FulRan=T
         wScrn=  0.000000 ICntrl=       500 IOpCl=  0 I1Cent=   200000004 NGrid=           0
         NMat0=    1 NMatS0=      1 NMatT0=    0 NMatD0=    1 NMtDS0=    0 NMtDT0=    0
 Symmetry not used in FoFCou.
 Keep R1 ints in memory in canonical form, NReq=47237243.
 Requested convergence on RMS density matrix=1.00D-08 within 128 cycles.
 Requested convergence on MAX density matrix=1.00D-06.
 Requested convergence on             energy=1.00D-06.
 No special actions if energy rises.
 SCF Done:  E(RB3LYP) =  -343.484365536     A.U. after   12 cycles
            NFock= 12  Conv=0.63D-08     -V/T= 2.0089
 DoSCS=F DFT=T ScalE2(SS,OS)=  1.000000  1.000000
 Range of M.O.s used for correlation:     1   126
 NBasis=   126 NAE=    24 NBE=    24 NFC=     0 NFV=     0
 NROrb=    126 NOA=    24 NOB=    24 NVA=   102 NVB=   102

 **** Warning!!: The largest alpha MO coefficient is  0.38853021D+02

 Symmetrizing basis deriv contribution to polar:
[...]
  14                    0.42511   0.82693   0.33252   0.81971   1.41379
  15                    0.42348   0.81891   0.34139   0.83621   1.41805
  16                    0.42169   0.81252   0.34919   0.84961   1.42185
  17                    0.42011   0.80778   0.35530   0.85942   1.42475
  18                    0.41898   0.80441   0.35962   0.86603   1.42672
  19                    0.41825   0.80197   0.36262   0.87049   1.42805
  20                    0.41780   0.80008   0.36480   0.87367   1.42900
  21                    0.41753   0.79852   0.36648   0.87609   1.42974
  22                    0.41740   0.79717   0.36783   0.87803   1.43034
  23                    0.41737   0.79596   0.36897   0.87965   1.43087
  24                    0.41741   0.79484   0.36995   0.88104   1.43134
  25                    0.41753   0.79380   0.37080   0.88225   1.43177
  26                    0.41771   0.79281   0.37157   0.88334   1.43219
  27                    0.41793   0.79185   0.37225   0.88432   1.43260
  28                    0.41821   0.79094   0.37288   0.88523   1.43301
  29                    0.41853   0.79005   0.37346   0.88608   1.43342
  30                    0.41890   0.78919   0.37400   0.88688   1.43383
  31                    0.41930   0.78836   0.37450   0.88766   1.43425
  32                    0.41973   0.78757   0.37497   0.88842   1.43468
  33                    0.42018   0.78680   0.37541   0.88917   1.43512
  34                    0.42065   0.78609   0.37582   0.88993   1.43556
  35                    0.42111   0.78541   0.37621   0.89071   1.43600
  36                    0.42157   0.78480   0.37656   0.89151   1.43643
  37                    0.42198   0.78424   0.37687   0.89233   1.43684
  38                    0.42235   0.78375   0.37712   0.89317   1.43722
  39                    0.42263   0.78333   0.37731   0.89400   1.43755
  40                    0.42284   0.78299   0.37742   0.89481   1.43782
  41                    0.42294   0.78271   0.37744   0.89554   1.43802
  42                    0.42301   0.78247   0.37742   0.89620   1.43818
  43                    0.42303   0.78228   0.37735   0.89679   1.43830
  44                    0.42302   0.78212   0.37726   0.89731   1.43839
  45                    0.42300   0.78199   0.37716   0.89780   1.43847
  46                    0.42297   0.78186   0.37703   0.89828   1.43854
  47                    0.42294   0.78173   0.37689   0.89877   1.43862
  48                    0.42291   0.78159   0.37672   0.89931   1.43869
  49                    0.42289   0.78142   0.37649   0.89995   1.43878
  50                    0.42287   0.78120   0.37615   0.90070   1.43886
  51                    0.42287   0.78091   0.37567   0.90148   1.43891
  52                    0.42290   0.78055   0.37502   0.90221   1.43891
  53                    0.42295   0.78011   0.37412   0.90281   1.43883
  54                    0.42301   0.77962   0.37291   0.90315   1.43865
  55                    0.42303   0.77912   0.37138   0.90312   1.43834
  56                    0.42292   0.77864   0.36962   0.90266   1.43792
  57                    0.42261   0.77823   0.36775   0.90175   1.43744
  58                    0.42201   0.77794   0.36592   0.90045   1.43694
  59                    0.42107   0.77780   0.36426   0.89883   1.43648
  60                    0.41978   0.77782   0.36289   0.89700   1.43610
  61                    0.41813   0.77803   0.36186   0.89506   1.43582
  62                    0.41616   0.77841   0.36121   0.89310   1.43568
  63                    0.41392   0.77895   0.36091   0.89120   1.43567
  64                    0.41146   0.77961   0.36092   0.88944   1.43579
  65                    0.40884   0.78034   0.36119   0.88787   1.43603
  66                    0.40611   0.78110   0.36165   0.88651   1.43639
  67                    0.40332   0.78187   0.36223   0.88536   1.43685
  68                    0.40048   0.78260   0.36288   0.88443   1.43740
  69                    0.39763   0.78330   0.36355   0.88369   1.43802
  70                    0.39476   0.78395   0.36418   0.88312   1.43871
  71                    0.39189   0.78457   0.36475   0.88268   1.43945
  72                    0.38901   0.78519   0.36523   0.88233   1.44022
  73                    0.38611   0.78581   0.36560   0.88205   1.44104
  74                    0.38317   0.78648   0.36584   0.88179   1.44187
  75                    0.38018   0.78722   0.36594   0.88153   1.44273
  76                    0.37715   0.78805   0.36591   0.88123   1.44360
  77                    0.37406   0.78900   0.36573   0.88088   1.44450
  78                    0.37090   0.79008   0.36540   0.88045   1.44540
  79                    0.36768   0.79132   0.36492   0.87993   1.44633
  80                    0.36440   0.79272   0.36430   0.87929   1.44727
  81                    0.36106   0.79430   0.36353   0.87853   1.44823
                          X12       Y12       Z12
   1                    0.88200   1.87721   0.45014
   2                    0.89155   1.88425   0.43414
   3                    0.90097   1.89116   0.41795
   4                    0.91023   1.89795   0.40167
   5                    0.91930   1.90465   0.38537
   6                    0.92814   1.91128   0.36914
   7                    0.93672   1.91788   0.35309
   8                    0.94498   1.92447   0.33733
   9                    0.95290   1.93107   0.32198
  10                    0.96041   1.93767   0.30715
  11                    0.96748   1.94419   0.29288
  12                    0.97411   1.95049   0.27913
  13                    0.98024   1.95635   0.26590
  14                    0.98573   1.96157   0.25350
  15                    0.99050   1.96606   0.24267
  16                    0.99458   1.96978   0.23412
  17                    0.99800   1.97258   0.22803
  18                    1.00066   1.97442   0.22394
  19                    1.00264   1.97553   0.22111
  20                    1.00410   1.97615   0.21897
  21                    1.00521   1.97646   0.21722
  22                    1.00605   1.97655   0.21569
  23                    1.00667   1.97645   0.21429
  24                    1.00710   1.97621   0.21295
  25                    1.00736   1.97584   0.21163
  26                    1.00745   1.97534   0.21031
  27                    1.00737   1.97471   0.20894
  28                    1.00712   1.97397   0.20751
  29                    1.00667   1.97311   0.20599
  30                    1.00603   1.97213   0.20437
  31                    1.00517   1.97103   0.20261
  32                    1.00409   1.96981   0.20071
  33                    1.00278   1.96848   0.19866
  34                    1.00123   1.96704   0.19645
  35                    0.99945   1.96552   0.19409
  36                    0.99746   1.96393   0.19161
  37                    0.99531   1.96232   0.18906
  38                    0.99306   1.96073   0.18650
  39                    0.99080   1.95925   0.18402
  40                    0.98867   1.95793   0.18174
  41                    0.98681   1.95688   0.17980
  42                    0.98513   1.95595   0.17806
  43                    0.98373   1.95522   0.17664
  44                    0.98253   1.95460   0.17543
  45                    0.98148   1.95404   0.17438
  46                    0.98052   1.95350   0.17343
  47                    0.97961   1.95294   0.17254
  48                    0.97872   1.95228   0.17166
  49                    0.97783   1.95146   0.17077
  50                    0.97707   1.95040   0.16996
  51                    0.97675   1.94921   0.16948
  52                    0.97715   1.94800   0.16957
  53                    0.97857   1.94689   0.17049
  54                    0.98129   1.94604   0.17255
  55                    0.98533   1.94563   0.17589
  56                    0.99048   1.94575   0.18047
  57                    0.99638   1.94643   0.18607
  58                    1.00264   1.94764   0.19243
  59                    1.00894   1.94931   0.19930
  60                    1.01506   1.95136   0.20641
  61                    1.02084   1.95369   0.21355
  62                    1.02622   1.95620   0.22056
  63                    1.03121   1.95881   0.22733
  64                    1.03584   1.96144   0.23380
  65                    1.04019   1.96404   0.23992
  66                    1.04429   1.96656   0.24569
  67                    1.04822   1.96897   0.25115
  68                    1.05200   1.97128   0.25631
  69                    1.05565   1.97347   0.26121
  70                    1.05918   1.97556   0.26590
  71                    1.06259   1.97756   0.27043
  72                    1.06587   1.97946   0.27482
  73                    1.06901   1.98129   0.27913
  74                    1.07201   1.98304   0.28339
  75                    1.07484   1.98472   0.28761
  76                    1.07749   1.98633   0.29182
  77                    1.07997   1.98786   0.29603
  78                    1.08224   1.98930   0.30026
  79                    1.08432   1.99065   0.30451
  80                    1.08618   1.99189   0.30877
  81                    1.08782   1.99301   0.31305
 --------------------------------------------------------------------------
 
 Total number of points:                   80
 Total number of gradient calculations:    81
 Total number of Hessian calculations:     81
 IRC-IRC-IRC-IRC-IRC-IRC-IRC-IRC-IRC-IRC-IRC-IRC-IRC-IRC-IRC-IRC-IRC-IRC
                          Input orientation:                          
 ---------------------------------------------------------------------
 Center     Atomic      Atomic             Coordinates (Angstroms)
 Number     Number       Type             X           Y           Z
 ---------------------------------------------------------------------
      1          6           0       -0.396149    0.478486   -0.666092
      2          6           0        0.642077    0.805927    0.415794
      3          6           0        1.931620    0.019293    0.316545
      4          8           0       -1.737001    0.559210   -0.192209
      5          8           0       -2.002685   -0.738709    0.448948
      6          8           0        2.086987   -0.979755   -0.354565
      7          1           0       -2.970731   -0.668022    0.531394
      8          1           0       -0.367799    1.213149   -1.478435
      9          1           0       -0.224428   -0.516120   -1.087774
     10          1           0        2.765586    0.401932    0.944877
     11          1           0        0.217187    0.566985    1.403556
     12          1           0        0.882020    1.877283    0.450161
 ---------------------------------------------------------------------
                    Distance matrix (angstroms):
                    1          2          3          4          5
     1  C    0.000000
     2  C    1.534799   0.000000
     3  C    2.568062   1.513791   0.000000
     4  O    1.424417   2.467904   3.742876   0.000000
     5  O    2.303439   3.062966   4.008846   1.471823   0.000000
     6  O    2.896461   2.422783   1.213518   4.125247   4.174824
     7  H    3.062176   3.903622   4.954957   1.884619   0.974119
     8  H    1.095644   2.184899   3.151916   1.989153   3.193338
     9  H    1.093867   2.181594   2.628178   2.060643   2.360775
    10  H    3.549317   2.225406   1.112076   4.646610   4.927820
    11  H    2.160430   1.101499   2.102579   2.522970   2.746624
    12  H    2.199175   1.098435   2.138139   3.001538   3.894219
                    6          7          8          9         10
     6  O    0.000000
     7  H    5.144183   0.000000
     8  H    3.478202   3.788597   0.000000
     9  H    2.468844   3.191702   1.778635   0.000000
    10  H    2.014474   5.849880   4.043342   3.730237   0.000000
    11  H    2.996590   3.528276   3.010915   2.752248   2.594603
    12  H    3.203467   4.618319   2.392197   3.052516   2.443199
                   11         12
    11  H    0.000000
    12  H    1.751527   0.000000
 Symmetry turned off by external request.
 Stoichiometry    C3H6O3
 Framework group  C1[X(C3H6O3)]
 Deg. of freedom    30
 Full point group                 C1      NOp   1
 Rotational constants (GHZ):           7.6809815           1.8469615           1.6998149

 **********************************************************************

            Population analysis using the SCF Density.

 **********************************************************************

 Alpha  occ. eigenvalues --  -19.22427 -19.22179 -19.17098 -10.29595 -10.25221
 Alpha  occ. eigenvalues --  -10.21353  -1.12662  -1.06433  -0.93372  -0.78554
 Alpha  occ. eigenvalues --   -0.66608  -0.57963  -0.54811  -0.50784  -0.48472
 Alpha  occ. eigenvalues --   -0.46548  -0.45144  -0.42711  -0.41229  -0.37517
 Alpha  occ. eigenvalues --   -0.36197  -0.35759  -0.27886  -0.25670
 Alpha virt. eigenvalues --   -0.04306  -0.01487   0.00586   0.01572   0.03011
 Alpha virt. eigenvalues --    0.03944   0.05153   0.06714   0.07476   0.08499
 Alpha virt. eigenvalues --    0.09015   0.11414   0.12344   0.13134   0.15090
 Alpha virt. eigenvalues --    0.16268   0.17888   0.18192   0.20738   0.21645
 Alpha virt. eigenvalues --    0.23044   0.23652   0.24394   0.25566   0.26771
 Alpha virt. eigenvalues --    0.27117   0.28258   0.29196   0.30570   0.31396
 Alpha virt. eigenvalues --    0.33691   0.34161   0.35916   0.36884   0.39394
 Alpha virt. eigenvalues --    0.46108   0.63478   0.65276   0.66836   0.68557
 Alpha virt. eigenvalues --    0.70532   0.71530   0.78380   0.84262   0.85141
 Alpha virt. eigenvalues --    0.92310   0.93804   0.94767   1.00850   1.04755
 Alpha virt. eigenvalues --    1.06533   1.08228   1.11038   1.13788   1.14634
 Alpha virt. eigenvalues --    1.20703   1.23491   1.24009   1.26750   1.30124
 Alpha virt. eigenvalues --    1.31159   1.32006   1.43354   1.45292   1.51088
 Alpha virt. eigenvalues --    1.53815   1.54540   1.59562   1.63066   1.67561
 Alpha virt. eigenvalues --    1.70594   1.74177   1.74582   1.80224   1.84261
 Alpha virt. eigenvalues --    1.86698   1.91372   1.99068   2.01197   2.04712
 Alpha virt. eigenvalues --    2.08297   2.11099   2.25410   2.27179   2.31960
 Alpha virt. eigenvalues --    2.41619   2.44781   2.47235   2.52063   2.56040
 Alpha virt. eigenvalues --    2.58006   2.71827   2.85429   2.90338   3.05827
 Alpha virt. eigenvalues --    3.12754   4.00389   4.12808   4.18596   4.25073
 Alpha virt. eigenvalues --    4.35184   4.55337
          Condensed to atoms (all electrons):
               1          2          3          4          5          6
     1  C    5.572263  -0.285968   0.010832   0.114292  -0.031008   0.050251
     2  C   -0.285968   6.641547  -0.091856  -0.062128   0.025657  -0.183368
     3  C    0.010832  -0.091856   5.035327   0.026736  -0.008421   0.472352
     4  O    0.114292  -0.062128   0.026736   8.107048   0.063146  -0.001134
     5  O   -0.031008   0.025657  -0.008421   0.063146   8.304143   0.000980
     6  O    0.050251  -0.183368   0.472352  -0.001134   0.000980   8.087295
     7  H    0.016705  -0.006729  -0.000216  -0.025915   0.187581  -0.000016
     8  H    0.405430  -0.057981   0.009131  -0.052120   0.008898  -0.000021
     9  H    0.439790  -0.100696   0.005024  -0.027498  -0.007099   0.001404
    10  H    0.027037  -0.167502   0.408609  -0.000602   0.000158  -0.064932
    11  H   -0.026471   0.355564  -0.013794  -0.011016   0.005866  -0.001999
    12  H   -0.023760   0.353766  -0.029028   0.003548  -0.000245   0.003349
               7          8          9         10         11         12
     1  C    0.016705   0.405430   0.439790   0.027037  -0.026471  -0.023760
     2  C   -0.006729  -0.057981  -0.100696  -0.167502   0.355564   0.353766
     3  C   -0.000216   0.009131   0.005024   0.408609  -0.013794  -0.029028
     4  O   -0.025915  -0.052120  -0.027498  -0.000602  -0.011016   0.003548
     5  O    0.187581   0.008898  -0.007099   0.000158   0.005866  -0.000245
     6  O   -0.000016  -0.000021   0.001404  -0.064932  -0.001999   0.003349
     7  H    0.348422  -0.000330   0.000427  -0.000000  -0.000190   0.000005
     8  H   -0.000330   0.509108  -0.024344  -0.000151   0.002858  -0.006079
     9  H    0.000427  -0.024344   0.465160   0.000146   0.000035   0.003233
    10  H   -0.000000  -0.000151   0.000146   0.635001   0.001310   0.002326
    11  H   -0.000190   0.002858   0.000035   0.001310   0.459040  -0.027142
    12  H    0.000005  -0.006079   0.003233   0.002326  -0.027142   0.502280
 Mulliken charges:
               1
     1  C   -0.269393
     2  C   -0.420307
     3  C    0.175305
     4  O   -0.134355
     5  O   -0.549657
     6  O   -0.364160
     7  H    0.480257
     8  H    0.205601
     9  H    0.244419
    10  H    0.158602
    11  H    0.255941
    12  H    0.217748
 Sum of Mulliken charges =  -0.00000
 Mulliken charges with hydrogens summed into heavy atoms:
               1
     1  C    0.180627
     2  C    0.053382
     3  C    0.333907
     4  O   -0.134355
     5  O   -0.069400
     6  O   -0.364160
 APT charges:
               1
     1  C   -0.793643
     2  C   -0.662739
     3  C   -0.349614
     4  O   -0.130592
     5  O   -0.914505
     6  O   -0.289789
     7  H    0.862571
     8  H    0.493381
     9  H    0.362314
    10  H    0.530090
    11  H    0.399131
    12  H    0.493394
 Sum of APT charges =  -0.00000
 APT charges with hydrogens summed into heavy atoms:
               1
     1  C    0.062052
     2  C    0.229787
     3  C    0.180477
     4  O   -0.130592
     5  O   -0.051933
     6  O   -0.289789
 Electronic spatial extent (au):  <R**2>=            701.3000
 Charge=              0.0000 electrons
 Dipole moment (field-independent basis, Debye):
    X=             -0.8758    Y=              2.3196    Z=              0.9692  Tot=              2.6621
 Quadrupole moment (field-independent basis, Debye-Ang):
   XX=            -33.1842   YY=            -38.0343   ZZ=            -34.8727
   XY=              6.7901   XZ=              1.4962   YZ=             -1.3217
 Traceless Quadrupole moment (field-independent basis, Debye-Ang):
   XX=              2.1795   YY=             -2.6705   ZZ=              0.4910
   XY=              6.7901   XZ=              1.4962   YZ=             -1.3217
 Octapole moment (field-independent basis, Debye-Ang**2):
  XXX=            -41.6802  YYY=             -2.4409  ZZZ=             -1.5938  XYY=             -5.3813
  XXY=             -0.8022  XXZ=             12.6777  XZZ=             -2.4590  YZZ=             -1.1069
  YYZ=             -0.5487  XYZ=             -0.6080
 Hexadecapole moment (field-independent basis, Debye-Ang**3):
 XXXX=           -511.6112 YYYY=           -149.4374 ZZZZ=            -97.3884 XXXY=             64.2510
 XXXZ=            -13.2228 YYYX=             17.8542 YYYZ=             -3.7409 ZZZX=             -0.6915
 ZZZY=             -1.9722 XXYY=           -137.4242 XXZZ=           -117.0150 YYZZ=            -40.5899
 XXYZ=             -7.8471 YYXZ=              0.6359 ZZXY=              4.1094
 N-N= 2.354600834372D+02 E-N=-1.275711650072D+03  KE= 3.403617848056D+02
  Exact polarizability:   0.000   0.000   0.000   0.000   0.000   0.000
 Approx polarizability:  64.173   0.037  75.143  -3.524   4.759  61.240

 This type of calculation cannot be archived.


      TO SUSPECT YOUR OWN MORTALITY IS TO KNOW THE BEGINNING OF TERROR.
      TO LEARN IRREFUTABLY THAT YOU ARE MORTAL IS TO KNOW THE END
      OF TERROR.

                                                  -- JESSICA
                                                     CHILDREN OF DUNE
                                                     BY FRANK HERBERT
 Job cpu time:       0 days  5 hours 51 minutes 12.8 seconds.
 Elapsed time:       0 days  0 hours 22 minutes 26.7 seconds.
 File lengths (MBytes):  RWF=     28 Int=      0 D2E=      0 Chk=      4 Scr=      1
 Normal termination of Gaussian 16 at Wed Dec 23 22:38:59 2020.
