 Entering Gaussian System, Link 0=g16
 Initial command:
 /apps/cent7/gaussian/g16-B.01/g16-haswell/g16/l1.exe "/scratch/bell/zhao922/YARP/paper-example/KHP-network/pp_0/IRC-folder/Gau-59856.inp" -scrdir="/scratch/bell/zhao922/YARP/paper-example/KHP-network/pp_0/IRC-folder/"
 Entering Link 1 = /apps/cent7/gaussian/g16-B.01/g16-haswell/g16/l1.exe PID=     59857.
  
 Copyright (c) 1988-2017, Gaussian, Inc.  All Rights Reserved.
  
 This is part of the Gaussian(R) 16 program.  It is based on
 the Gaussian(R) 09 system (copyright 2009, Gaussian, Inc.),
 the Gaussian(R) 03 system (copyright 2003, Gaussian, Inc.),
 the Gaussian(R) 98 system (copyright 1998, Gaussian, Inc.),
 the Gaussian(R) 94 system (copyright 1995, Gaussian, Inc.),
 the Gaussian 92(TM) system (copyright 1992, Gaussian, Inc.),
 the Gaussian 90(TM) system (copyright 1990, Gaussian, Inc.),
 the Gaussian 88(TM) system (copyright 1988, Gaussian, Inc.),
 the Gaussian 86(TM) system (copyright 1986, Carnegie Mellon
 University), and the Gaussian 82(TM) system (copyright 1983,
 Carnegie Mellon University). Gaussian is a federally registered
 trademark of Gaussian, Inc.
  
 This software contains proprietary and confidential information,
 including trade secrets, belonging to Gaussian, Inc.
  
 This software is provided under written license and may be
 used, copied, transmitted, or stored only in accord with that
 written license.
  
 The following legend is applicable only to US Government
 contracts under FAR:
  
                    RESTRICTED RIGHTS LEGEND
  
 Use, reproduction and disclosure by the US Government is
 subject to restrictions as set forth in subparagraphs (a)
 and (c) of the Commercial Computer Software - Restricted
 Rights clause in FAR 52.227-19.
  
 Gaussian, Inc.
 340 Quinnipiac St., Bldg. 40, Wallingford CT 06492
  
  
 ---------------------------------------------------------------
 Warning -- This program may not be used in any manner that
 competes with the business of Gaussian, Inc. or will provide
 assistance to any competitor of Gaussian, Inc.  The licensee
 of this program is prohibited from giving any competitor of
 Gaussian, Inc. access to this program.  By using this program,
 the user acknowledges that Gaussian, Inc. is engaged in the
 business of creating and licensing software in the field of
 computational chemistry and represents and warrants to the
 licensee that it is not a competitor of Gaussian, Inc. and that
 it will not use this program in any manner prohibited above.
 ---------------------------------------------------------------
  

 Cite this work as:
 Gaussian 16, Revision B.01,
 M. J. Frisch, G. W. Trucks, H. B. Schlegel, G. E. Scuseria, 
 M. A. Robb, J. R. Cheeseman, G. Scalmani, V. Barone, 
 G. A. Petersson, H. Nakatsuji, X. Li, M. Caricato, A. V. Marenich, 
 J. Bloino, B. G. Janesko, R. Gomperts, B. Mennucci, H. P. Hratchian, 
 J. V. Ortiz, A. F. Izmaylov, J. L. Sonnenberg, D. Williams-Young, 
 F. Ding, F. Lipparini, F. Egidi, J. Goings, B. Peng, A. Petrone, 
 T. Henderson, D. Ranasinghe, V. G. Zakrzewski, J. Gao, N. Rega, 
 G. Zheng, W. Liang, M. Hada, M. Ehara, K. Toyota, R. Fukuda, 
 J. Hasegawa, M. Ishida, T. Nakajima, Y. Honda, O. Kitao, H. Nakai, 
 T. Vreven, K. Throssell, J. A. Montgomery, Jr., J. E. Peralta, 
 F. Ogliaro, M. J. Bearpark, J. J. Heyd, E. N. Brothers, K. N. Kudin, 
 V. N. Staroverov, T. A. Keith, R. Kobayashi, J. Normand, 
 K. Raghavachari, A. P. Rendell, J. C. Burant, S. S. Iyengar, 
 J. Tomasi, M. Cossi, J. M. Millam, M. Klene, C. Adamo, R. Cammi, 
 J. W. Ochterski, R. L. Martin, K. Morokuma, O. Farkas, 
 J. B. Foresman, and D. J. Fox, Gaussian, Inc., Wallingford CT, 2016.
 
 ******************************************
 Gaussian 16:  ES64L-G16RevB.01 20-Dec-2017
                23-Dec-2020 
 ******************************************
 %NProcShared=16
 Will use up to   16 processors via shared memory.
 %Mem=6GB
 ----------------------------------------------------------------------
 # B3LYP/6-31+G* IRC=(CALCALL, maxpoints=40, StepSize=15, maxcyc=100, R
 eport=Cartesians)
 ----------------------------------------------------------------------
 1/6=100,10=4,18=10,26=3,38=1,39=15,42=40,44=3,71=1,129=10,172=1/1,23;
 2/12=2,17=6,18=5,29=1,40=1/2;
 3/5=1,6=6,7=11,11=2,25=1,30=1,71=2,74=-5,140=1/1,2,3;
 4//1;
 5/5=2,38=5/2;
 8/6=4,10=90,11=11/1;
 11/6=1,8=1,9=11,15=111,16=1/1,2,10;
 10/6=1,13=1/2;
 6/7=2,8=2,9=2,10=2,18=1,28=1/1;
 7/10=1,25=1/1,2,3,16;
 1/6=100,10=4,18=10,26=3,39=15,42=40,44=3,71=1,129=10/23(2);
 2/29=1/2;
 99/5=20/99;
 2/29=1/2;
 3/5=1,6=6,7=11,11=2,25=1,30=1,71=2,74=-5,140=1/1,2,3;
 4/5=5,16=3,69=1/1;
 5/5=2,38=5/2;
 8/6=4,10=90,11=11/1;
 11/6=1,8=1,9=11,15=111,16=1/1,2,10;
 10/6=1,13=1/2;
 7/10=1,25=1/1,2,3,16;
 1/6=100,10=4,18=10,26=3,39=15,42=40,44=3,71=1,129=10/23(-8);
 2/29=1/2;
 6/7=2,8=2,9=2,10=2,18=1,19=2,28=1/1;
 99/5=20/99;
 -----------
 pp_16_0 IRC
 -----------
 Symbolic Z-matrix:
 Charge =  0 Multiplicity = 1
 C                    -0.3662   -0.36718  -0.34245 
 C                     0.31025   0.85647   0.19731 
 C                     2.38158   0.45941  -0.1471 
 O                    -1.61288  -0.70234   0.29682 
 O                    -2.56126   0.36236  -0.03368 
 O                     2.60927  -0.66441   0.1063 
 H                    -3.28268  -0.17637  -0.40473 
 H                    -0.5341   -0.30019  -1.42606 
 H                     0.22612  -1.2696   -0.1287 
 H                     1.87922   1.41055  -0.34238 
 H                     0.363     0.87708   1.29119 
 H                    -0.08638   1.80148  -0.19144 
 
 IRC-IRC-IRC-IRC-IRC-IRC-IRC-IRC-IRC-IRC-IRC-IRC-IRC-IRC-IRC-IRC-IRC-IRC
 ------------------------------------------------------------------------
 INPUT DATA FOR L123
 ------------------------------------------------------------------------
 GENERAL PARAMETERS:
 Follow reaction path in both directions.
 Maximum points per path      =  40
 Step size                    =   0.150 bohr
 Integration scheme           = HPC                                 
    Redo corrector integration= Yes                                 
    DWI Weight Power          =  2
    DWI will use Hessian update vectors when possible.
    Max correction cycles     = 100
 Initial Hessian              = CalcFC
 Hessian evaluation           = Analytic at all predictor steps
                              = Update at all corrector steps
 Hessian updating method      = Bofill                              
 ------------------------------------------------------------------------
 IRC-IRC-IRC-IRC-IRC-IRC-IRC-IRC-IRC-IRC-IRC-IRC-IRC-IRC-IRC-IRC-IRC-IRC
                          Input orientation:                          
 ---------------------------------------------------------------------
 Center     Atomic      Atomic             Coordinates (Angstroms)
 Number     Number       Type             X           Y           Z
 ---------------------------------------------------------------------
      1          6           0       -0.366200   -0.367183   -0.342451
      2          6           0        0.310246    0.856465    0.197307
      3          6           0        2.381578    0.459405   -0.147098
      4          8           0       -1.612876   -0.702342    0.296823
      5          8           0       -2.561260    0.362364   -0.033682
      6          8           0        2.609270   -0.664405    0.106304
      7          1           0       -3.282682   -0.176373   -0.404730
      8          1           0       -0.534097   -0.300192   -1.426056
      9          1           0        0.226122   -1.269603   -0.128696
     10          1           0        1.879219    1.410549   -0.342376
     11          1           0        0.362997    0.877083    1.291191
     12          1           0       -0.086379    1.801479   -0.191442
 ---------------------------------------------------------------------
                    Distance matrix (angstroms):
                    1          2          3          4          5
     1  C    0.000000
     2  C    1.498744   0.000000
     3  C    2.876055   2.136981   0.000000
     4  O    1.440557   2.477535   4.183585   0.000000
     5  O    2.333638   2.922848   4.945091   1.463648   0.000000
     6  O    3.023763   2.758050   1.174310   4.226613   5.273351
     7  H    2.923381   3.786599   5.705649   1.886020   0.973840
     8  H    1.098580   2.164735   3.273207   2.072149   2.546974
     9  H    1.100408   2.152561   2.763295   1.970981   3.231384
    10  H    2.863955   1.749269   1.093240   4.131297   4.572946
    11  H    2.179154   1.095349   2.513523   2.717982   3.251385
    12  H    2.191848   1.096124   2.809616   2.972830   2.867224
                    6          7          8          9         10
     6  O    0.000000
     7  H    5.934175   0.000000
     8  H    3.515897   2.934818   0.000000
     9  H    2.469997   3.685519   1.789087   0.000000
    10  H    2.244933   5.400688   3.150411   3.156201   0.000000
    11  H    2.970839   4.156548   3.094218   2.577416   2.291737
    12  H    3.665482   3.764803   2.478254   3.087578   2.009772
                   11         12
    11  H    0.000000
    12  H    1.804064   0.000000
 Symmetry turned off by external request.
 Stoichiometry    C3H6O3
 Framework group  C1[X(C3H6O3)]
 Deg. of freedom    30
 Full point group                 C1      NOp   1
 Rotational constants (GHZ):          11.1095069           1.4483507           1.3337346
 Standard basis: 6-31+G(d) (6D, 7F)
   126 basis functions,   216 primitive gaussians,   126 cartesian basis functions
    24 alpha electrons       24 beta electrons
       nuclear repulsion energy       226.4031532116 Hartrees.
 NAtoms=   12 NActive=   12 NUniq=   12 SFac= 1.00D+00 NAtFMM=   60 NAOKFM=F Big=F
 Integral buffers will be    131072 words long.
 Raffenetti 2 integral format.
 Two-electron integral symmetry is turned off.
 One-electron integrals computed using PRISM.
 NBasis=   126 RedAO= T EigKep=  1.19D-04  NBF=   126
 NBsUse=   126 1.00D-06 EigRej= -1.00D+00 NBFU=   126
 ExpMin= 4.38D-02 ExpMax= 5.48D+03 ExpMxC= 8.25D+02 IAcc=3 IRadAn=         5 AccDes= 0.00D+00
 Harris functional with IExCor=  402 and IRadAn=       5 diagonalized for initial guess.
 HarFok:  IExCor=  402 AccDes= 0.00D+00 IRadAn=         5 IDoV= 1 UseB2=F ITyADJ=14
 ICtDFT=  3500011 ScaDFX=  1.000000  1.000000  1.000000  1.000000
 FoFCou: FMM=F IPFlag=           0 FMFlag=      100000 FMFlg1=           0
         NFxFlg=           0 DoJE=T BraDBF=F KetDBF=T FulRan=T
         wScrn=  0.000000 ICntrl=       500 IOpCl=  0 I1Cent=   200000004 NGrid=           0
         NMat0=    1 NMatS0=      1 NMatT0=    0 NMatD0=    1 NMtDS0=    0 NMtDT0=    0
 Symmetry not used in FoFCou.
 Keep R1 ints in memory in canonical form, NReq=47237243.
 Requested convergence on RMS density matrix=1.00D-08 within 128 cycles.
 Requested convergence on MAX density matrix=1.00D-06.
 Requested convergence on             energy=1.00D-06.
 No special actions if energy rises.
 SCF Done:  E(RB3LYP) =  -343.361332214     A.U. after   14 cycles
            NFock= 14  Conv=0.69D-08     -V/T= 2.0092
 DoSCS=F DFT=T ScalE2(SS,OS)=  1.000000  1.000000
 Range of M.O.s used for correlation:     1   126
 NBasis=   126 NAE=    24 NBE=    24 NFC=     0 NFV=     0
 NROrb=    126 NOA=    24 NOB=    24 NVA=   102 NVB=   102

 **** Warning!!: The largest alpha MO coefficient is  0.28741205D+02

 Symmetrizing basis deriv contribution to polar:
 IMax=3 JMax=2 DiffMx= 0.00D+00
 G2DrvN: will do    13 centers at a time, making    1 passes.
 Calling FoFCou, ICntrl=  3107 FMM=F I1Cent=   0 AccDes= 0.00D+00.
 End of G2Drv F.D. properties file   721 does not exist.
 End of G2Drv F.D. properties file   722 does not exist.
 End of G2Drv F.D. properties file   788 does not exist.
          IDoAtm=111111111111
          Differentiating once with respect to nuclear coordinates.
 Keep R1 ints in memory in canonical form, NReq=47193265.
          There are    39 degrees of freedom in the 1st order CPHF.  IDoFFX=6 NUNeed=     0.
     33 vectors produced by pass  0 Test12= 6.28D-15 2.56D-09 XBig12= 1.70D-01 1.69D-01.
 AX will form    33 AO Fock derivatives at one time.
     33 vectors produced by pass  1 Test12= 6.28D-15 2.56D-09 XBig12= 2.85D-02 3.61D-02.
     33 vectors produced by pass  2 Test12= 6.28D-15 2.56D-09 XBig12= 8.64D-04 6.47D-03.
     33 vectors produced by pass  3 Test12= 6.28D-15 2.56D-09 XBig12= 4.99D-06 3.68D-04.
     33 vectors produced by pass  4 Test12= 6.28D-15 2.56D-09 XBig12= 1.08D-08 1.76D-05.
     30 vectors produced by pass  5 Test12= 6.28D-15 2.56D-09 XBig12= 1.44D-11 6.61D-07.
      5 vectors produced by pass  6 Test12= 6.28D-15 2.56D-09 XBig12= 1.21D-14 1.47D-08.
 InvSVY:  IOpt=1 It=  1 EMax= 9.99D-16
 Solved reduced A of dimension   200 with    33 vectors.
 End of Minotr F.D. properties file   721 does not exist.
 End of Minotr F.D. properties file   722 does not exist.
 End of Minotr F.D. properties file   788 does not exist.

 **********************************************************************

            Population analysis using the SCF Density.

 **********************************************************************

 Alpha  occ. eigenvalues --  -19.24611 -19.21077 -19.20954 -10.33788 -10.24130
 Alpha  occ. eigenvalues --  -10.18502  -1.13726  -1.11400  -0.91586  -0.74909
 Alpha  occ. eigenvalues --   -0.66589  -0.59775  -0.52931  -0.51977  -0.48119
 Alpha  occ. eigenvalues --   -0.47919  -0.46123  -0.44381  -0.40656  -0.40163
 Alpha  occ. eigenvalues --   -0.35118  -0.32155  -0.26433  -0.21583
 Alpha virt. eigenvalues --   -0.07677  -0.02657   0.00130   0.00603   0.01722
 Alpha virt. eigenvalues --    0.03354   0.04457   0.05775   0.06145   0.07812
 Alpha virt. eigenvalues --    0.08467   0.08991   0.10713   0.12424   0.13201
 Alpha virt. eigenvalues --    0.13848   0.16619   0.18042   0.19594   0.19946
 Alpha virt. eigenvalues --    0.20841   0.21907   0.23682   0.24475   0.25284
 Alpha virt. eigenvalues --    0.26486   0.28075   0.29022   0.30874   0.31465
 Alpha virt. eigenvalues --    0.32567   0.34456   0.36053   0.37894   0.39019
 Alpha virt. eigenvalues --    0.50227   0.58366   0.63098   0.65951   0.67538
 Alpha virt. eigenvalues --    0.69900   0.72854   0.76159   0.82388   0.86075
 Alpha virt. eigenvalues --    0.92437   0.97936   0.99593   1.01991   1.04858
 Alpha virt. eigenvalues --    1.05845   1.09968   1.10924   1.13111   1.15878
 Alpha virt. eigenvalues --    1.16966   1.22269   1.22699   1.24056   1.26113
 Alpha virt. eigenvalues --    1.28725   1.30878   1.35386   1.45297   1.47713
 Alpha virt. eigenvalues --    1.49061   1.53362   1.54295   1.56711   1.61040
 Alpha virt. eigenvalues --    1.65785   1.67418   1.72927   1.78888   1.82990
 Alpha virt. eigenvalues --    1.90275   1.92485   1.93322   1.97407   1.99908
 Alpha virt. eigenvalues --    2.01602   2.06890   2.18101   2.25340   2.33525
 Alpha virt. eigenvalues --    2.41041   2.41569   2.50013   2.53375   2.54036
 Alpha virt. eigenvalues --    2.55659   2.69328   2.71264   2.86000   3.11052
 Alpha virt. eigenvalues --    3.13962   3.98186   4.14944   4.20348   4.25579
 Alpha virt. eigenvalues --    4.26622   4.47901
          Condensed to atoms (all electrons):
               1          2          3          4          5          6
     1  C    5.342832  -0.123828   0.053894   0.104645  -0.036384   0.040781
     2  C   -0.123828   6.988463  -0.477469  -0.028896  -0.001818  -0.196077
     3  C    0.053894  -0.477469   5.496177  -0.009641   0.005880   0.487883
     4  O    0.104645  -0.028896  -0.009641   8.155939   0.066413  -0.009116
     5  O   -0.036384  -0.001818   0.005880   0.066413   8.309979   0.000840
     6  O    0.040781  -0.196077   0.487883  -0.009116   0.000840   7.954311
     7  H    0.004492   0.000948   0.000069  -0.030856   0.185216  -0.000004
     8  H    0.434539  -0.094691   0.006968  -0.047773  -0.000833  -0.001418
     9  H    0.443483  -0.103178  -0.004620  -0.053987   0.009647   0.017385
    10  H   -0.011766   0.089072   0.249193   0.001255  -0.000232  -0.024617
    11  H   -0.023709   0.329396   0.016762  -0.005130   0.001164   0.004476
    12  H   -0.023872   0.302517   0.013161  -0.007724   0.001509   0.003680
               7          8          9         10         11         12
     1  C    0.004492   0.434539   0.443483  -0.011766  -0.023709  -0.023872
     2  C    0.000948  -0.094691  -0.103178   0.089072   0.329396   0.302517
     3  C    0.000069   0.006968  -0.004620   0.249193   0.016762   0.013161
     4  O   -0.030856  -0.047773  -0.053987   0.001255  -0.005130  -0.007724
     5  O    0.185216  -0.000833   0.009647  -0.000232   0.001164   0.001509
     6  O   -0.000004  -0.001418   0.017385  -0.024617   0.004476   0.003680
     7  H    0.368660   0.001557  -0.000285   0.000001   0.000012  -0.000012
     8  H    0.001557   0.548285  -0.031935  -0.000166   0.003788  -0.005243
     9  H   -0.000285  -0.031935   0.512710   0.000499  -0.001714   0.004558
    10  H    0.000001  -0.000166   0.000499   0.327410  -0.009112   0.004939
    11  H    0.000012   0.003788  -0.001714  -0.009112   0.480037  -0.024887
    12  H   -0.000012  -0.005243   0.004558   0.004939  -0.024887   0.515947
 Mulliken charges:
               1
     1  C   -0.205108
     2  C   -0.684439
     3  C    0.161743
     4  O   -0.135127
     5  O   -0.541380
     6  O   -0.278121
     7  H    0.470204
     8  H    0.186923
     9  H    0.207437
    10  H    0.373525
    11  H    0.228916
    12  H    0.215427
 Sum of Mulliken charges =  -0.00000
 Mulliken charges with hydrogens summed into heavy atoms:
               1
     1  C    0.189252
     2  C   -0.240096
     3  C    0.535268
     4  O   -0.135127
     5  O   -0.071176
     6  O   -0.278121
 APT charges:
               1
     1  C   -0.635965
     2  C   -0.670752
     3  C   -0.250056
     4  O   -0.124311
     5  O   -0.923739
     6  O   -0.263569
     7  H    0.810788
     8  H    0.398790
     9  H    0.375286
    10  H    0.438438
    11  H    0.405339
    12  H    0.439750
 Sum of APT charges =  -0.00000
 APT charges with hydrogens summed into heavy atoms:
               1
     1  C    0.138111
     2  C    0.174337
     3  C    0.188382
     4  O   -0.124311
     5  O   -0.112950
     6  O   -0.263569
 Electronic spatial extent (au):  <R**2>=            818.1791
 Charge=             -0.0000 electrons
 Dipole moment (field-independent basis, Debye):
    X=              0.6212    Y=              1.2073    Z=             -1.7809  Tot=              2.2395
 Quadrupole moment (field-independent basis, Debye-Ang):
   XX=            -35.4993   YY=            -36.5523   ZZ=            -36.0717
   XY=              5.5955   XZ=              3.1337   YZ=              0.4844
 Traceless Quadrupole moment (field-independent basis, Debye-Ang):
   XX=              0.5418   YY=             -0.5112   ZZ=             -0.0306
   XY=              5.5955   XZ=              3.1337   YZ=              0.4844
 Octapole moment (field-independent basis, Debye-Ang**2):
  XXX=            -48.0539  YYY=             -1.3294  ZZZ=              0.3997  XYY=              1.0706
  XXY=             -1.1303  XXZ=            -10.5389  XZZ=             -0.8515  YZZ=             -1.4986
  YYZ=             -1.1067  XYZ=             -0.8486
 Hexadecapole moment (field-independent basis, Debye-Ang**3):
 XXXX=           -729.6106 YYYY=           -136.9343 ZZZZ=            -62.4997 XXXY=             30.5689
 XXXZ=             36.8352 YYYX=             -3.3799 YYYZ=             -3.4751 ZZZX=              3.9793
 ZZZY=              0.1203 XXYY=           -167.1504 XXZZ=           -143.1271 YYZZ=            -35.1247
 XXYZ=              3.6620 YYXZ=              0.8432 ZZXY=             -1.1996
 N-N= 2.264031532116D+02 E-N=-1.257217060939D+03  KE= 3.402385654263D+02
  Exact polarizability:   0.000   0.000   0.000   0.000   0.000   0.000
 Approx polarizability: 147.225 -20.849  81.346  -7.295  -3.445  56.693
 Calling FoFJK, ICntrl=    100127 FMM=F ISym2X=0 I1Cent= 0 IOpClX= 0 NMat=1 NMatS=1 NMatT=0.
 -------------------------------------------------------------------
 Center     Atomic                   Forces (Hartrees/Bohr)
 Number     Number              X              Y              Z
 -------------------------------------------------------------------
      1        6          -0.000001157    0.000000128    0.000009494
      2        6           0.000022574   -0.000054257    0.000021035
      3        6          -0.000096606    0.000044577    0.000052334
      4        8          -0.000006313   -0.000003859   -0.000002429
      5        8           0.000002330   -0.000001145   -0.000001240
      6        8          -0.000004565    0.000001956   -0.000024677
      7        1          -0.000002838    0.000000386    0.000000651
      8        1           0.000000026   -0.000001165   -0.000001131
      9        1          -0.000003120   -0.000002440   -0.000000464
     10        1           0.000087854    0.000011796   -0.000051601
     11        1          -0.000010082    0.000000322    0.000002360
     12        1           0.000011896    0.000003703   -0.000004332
 -------------------------------------------------------------------
 Cartesian Forces:  Max     0.000096606 RMS     0.000028663
 IRC-IRC-IRC-IRC-IRC-IRC-IRC-IRC-IRC-IRC-IRC-IRC-IRC-IRC-IRC-IRC-IRC-IRC
          ******** Start new reaction path calculation ********
 Supplied step size of   0.1500 bohr.
    Integration on MW PES will use step size of   0.1681 sqrt(amu)*bohr.
 Point Number:   0          Path Number:   1
 Calculating another point on the path.
 IRC-IRC-IRC-IRC-IRC-IRC-IRC-IRC-IRC-IRC-IRC-IRC-IRC-IRC-IRC-IRC-IRC-IRC
                          Input orientation:                          
 ---------------------------------------------------------------------
 Center     Atomic      Atomic             Coordinates (Angstroms)
 Number     Number       Type             X           Y           Z
 ---------------------------------------------------------------------
      1          6           0       -0.381836   -0.341523   -0.356026
      2          6           0        0.292015    0.884807    0.183854
      3          6           0        2.376651    0.484673   -0.161982
      4          8           0       -1.628535   -0.676375    0.283614
      5          8           0       -2.577143    0.388106   -0.046912
      6          8           0        2.591306   -0.638881    0.093466
      7          1           0       -3.298579   -0.150732   -0.417954
      8          1           0       -0.549877   -0.274414   -1.439387
      9          1           0        0.210706   -1.243700   -0.142183
     10          1           0        1.791462    1.412689   -0.337680
     11          1           0        0.350593    0.903503    1.277319
     12          1           0       -0.111950    1.827491   -0.201401
 ---------------------------------------------------------------------
                    Distance matrix (angstroms):
                    1          2          3          4          5
     1  C    0.000000
     2  C    1.499810   0.000000
     3  C    2.886088   2.150679   0.000000
     4  O    1.440667   2.477045   4.193817   0.000000
     5  O    2.333941   2.920964   4.956072   1.463633   0.000000
     6  O    3.021595   2.759807   1.172051   4.224289   5.271363
     7  H    2.923632   3.785086   5.716424   1.886146   0.973904
     8  H    1.098368   2.165061   3.282156   2.072150   2.547102
     9  H    1.100345   2.154867   2.771098   1.971286   3.231713
    10  H    2.792995   1.673021   1.111094   4.055437   4.496557
    11  H    2.180450   1.095193   2.520301   2.720370   3.254361
    12  H    2.191202   1.095565   2.828047   2.967257   2.858824
                    6          7          8          9         10
     6  O    0.000000
     7  H    5.932165   0.000000
     8  H    3.514186   2.934959   0.000000
     9  H    2.467507   3.685880   1.789062   0.000000
    10  H    2.243786   5.325340   3.089003   3.097323   0.000000
    11  H    2.966690   4.159546   3.094969   2.577797   2.223420
    12  H    3.671175   3.756976   2.478385   3.088661   1.952847
                   11         12
    11  H    0.000000
    12  H    1.803971   0.000000
 Symmetry turned off by external request.
 Stoichiometry    C3H6O3
 Framework group  C1[X(C3H6O3)]
 Deg. of freedom    30
 Full point group                 C1      NOp   1
 Rotational constants (GHZ):          11.1153945           1.4476885           1.3332340
 Standard basis: 6-31+G(d) (6D, 7F)
   126 basis functions,   216 primitive gaussians,   126 cartesian basis functions
    24 alpha electrons       24 beta electrons
       nuclear repulsion energy       226.4538799700 Hartrees.
 NAtoms=   12 NActive=   12 NUniq=   12 SFac= 1.00D+00 NAtFMM=   60 NAOKFM=F Big=F
 Integral buffers will be    131072 words long.
 Raffenetti 2 integral format.
 Two-electron integral symmetry is turned off.
 One-electron integrals computed using PRISM.
 NBasis=   126 RedAO= T EigKep=  1.20D-04  NBF=   126
 NBsUse=   126 1.00D-06 EigRej= -1.00D+00 NBFU=   126
 Initial guess from the checkpoint file:  "/scratch/bell/zhao922/YARP/paper-example/KHP-network/pp_0/IRC-folder/Gau-59857.chk"
 B after Tr=    -0.031560    0.048242   -0.024601
         Rot=    1.000000   -0.000191    0.000003   -0.000090 Ang=  -0.02 deg.
 ExpMin= 4.38D-02 ExpMax= 5.48D+03 ExpMxC= 8.25D+02 IAcc=3 IRadAn=         5 AccDes= 0.00D+00
 Harris functional with IExCor=  402 and IRadAn=       5 diagonalized for initial guess.
 HarFok:  IExCor=  402 AccDes= 0.00D+00 IRadAn=         5 IDoV= 1 UseB2=F ITyADJ=14
 ICtDFT=  3500011 ScaDFX=  1.000000  1.000000  1.000000  1.000000
 FoFCou: FMM=F IPFlag=           0 FMFlag=      100000 FMFlg1=           0
         NFxFlg=           0 DoJE=T BraDBF=F KetDBF=T FulRan=T
         wScrn=  0.000000 ICntrl=       500 IOpCl=  0 I1Cent=   200000004 NGrid=           0
         NMat0=    1 NMatS0=      1 NMatT0=    0 NMatD0=    1 NMtDS0=    0 NMtDT0=    0
 Symmetry not used in FoFCou.
 Keep R1 ints in memory in canonical form, NReq=47237243.
 Requested convergence on RMS density matrix=1.00D-08 within 128 cycles.
 Requested convergence on MAX density matrix=1.00D-06.
 Requested convergence on             energy=1.00D-06.
 No special actions if energy rises.
 SCF Done:  E(RB3LYP) =  -343.362842695     A.U. after   13 cycles
            NFock= 13  Conv=0.52D-08     -V/T= 2.0091
 DoSCS=F DFT=T ScalE2(SS,OS)=  1.000000  1.000000
 Range of M.O.s used for correlation:     1   126
 NBasis=   126 NAE=    24 NBE=    24 NFC=     0 NFV=     0
 NROrb=    126 NOA=    24 NOB=    24 NVA=   102 NVB=   102

 **** Warning!!: The largest alpha MO coefficient is  0.27657247D+02

 Symmetrizing basis deriv contribution to polar:
 IMax=3 JMax=2 DiffMx= 0.00D+00
 G2DrvN: will do    13 centers at a time, making    1 passes.
 Calling FoFCou, ICntrl=  3107 FMM=F I1Cent=   0 AccDes= 0.00D+00.
 End of G2Drv F.D. properties file   721 does not exist.
 End of G2Drv F.D. properties file   722 does not exist.
 End of G2Drv F.D. properties file   788 does not exist.
          IDoAtm=111111111111
          Differentiating once with respect to nuclear coordinates.
 Keep R1 ints in memory in canonical form, NReq=47193265.
          There are    39 degrees of freedom in the 1st order CPHF.  IDoFFX=6 NUNeed=     0.
     33 vectors produced by pass  0 Test12= 6.28D-15 2.56D-09 XBig12= 1.66D-01 1.54D-01.
 AX will form    33 AO Fock derivatives at one time.
     33 vectors produced by pass  1 Test12= 6.28D-15 2.56D-09 XBig12= 2.86D-02 3.53D-02.
     33 vectors produced by pass  2 Test12= 6.28D-15 2.56D-09 XBig12= 8.60D-04 6.42D-03.
     33 vectors produced by pass  3 Test12= 6.28D-15 2.56D-09 XBig12= 4.88D-06 3.59D-04.
     33 vectors produced by pass  4 Test12= 6.28D-15 2.56D-09 XBig12= 1.09D-08 1.71D-05.
     29 vectors produced by pass  5 Test12= 6.28D-15 2.56D-09 XBig12= 1.62D-11 6.83D-07.
      5 vectors produced by pass  6 Test12= 6.28D-15 2.56D-09 XBig12= 1.42D-14 1.53D-08.
 InvSVY:  IOpt=1 It=  1 EMax= 1.55D-15
 Solved reduced A of dimension   199 with    33 vectors.
 End of Minotr F.D. properties file   721 does not exist.
 End of Minotr F.D. properties file   722 does not exist.
 End of Minotr F.D. properties file   788 does not exist.
 Calling FoFJK, ICntrl=    100127 FMM=F ISym2X=0 I1Cent= 0 IOpClX= 0 NMat=1 NMatS=1 NMatT=0.
 -------------------------------------------------------------------
 Center     Atomic                   Forces (Hartrees/Bohr)
 Number     Number              X              Y              Z
 -------------------------------------------------------------------
      1        6           0.000567886   -0.000480574   -0.000891996
      2        6          -0.004723538    0.006777919   -0.000718196
      3        6           0.025456976   -0.001456761   -0.003698326
      4        8           0.000893257    0.000762007    0.000031705
      5        8           0.000053512   -0.000073777   -0.000013293
      6        8          -0.006276902   -0.000206266    0.001000751
      7        1          -0.000006242   -0.000018617   -0.000000595
      8        1           0.000035315    0.000001096   -0.000018037
      9        1           0.000081138    0.000066694   -0.000070225
     10        1          -0.014590578   -0.005512577    0.003794389
     11        1           0.000632484    0.000133247   -0.000161131
     12        1          -0.002123310    0.000007609    0.000744954
 -------------------------------------------------------------------
 Cartesian Forces:  Max     0.025456976 RMS     0.005372259
 IRC-IRC-IRC-IRC-IRC-IRC-IRC-IRC-IRC-IRC-IRC-IRC-IRC-IRC-IRC-IRC-IRC-IRC
 Pt  1 Step number   1 out of a maximum of 100
 Modified Bulirsch-Stoer Extrapolation Cycles:
    EPS =    0.000010000000000
      PEZero:  N= 2 I= 1 D=  4.38D-04 Err=  1.07D-03
      PEZero:  N= 3 I= 2 D=  4.38D-04 Err=  7.15D-04
      PEZero:  N= 3 I= 1 D=  8.75D-04 Err=  1.04D-07
 Maximum DWI energy   std dev =  0.000001453 at pt     1
 Maximum DWI gradient std dev =  0.012042576 at pt    36
 CORRECTOR INTEGRATION CONVERGENCE:
   Recorrection delta-x convergence threshold:    0.010000
   Delta-x Convergence Met
 Point Number:   1          Path Number:   1
   CHANGE IN THE REACTION COORDINATE =    0.16806
   NET REACTION COORDINATE UP TO THIS POINT =    0.16806
  # OF POINTS ALONG THE PATH =   1
  # OF STEPS =   1

 Calculating another point on the path.
 IRC-IRC-IRC-IRC-IRC-IRC-IRC-IRC-IRC-IRC-IRC-IRC-IRC-IRC-IRC-IRC-IRC-IRC
                          Input orientation:                          
 ---------------------------------------------------------------------
 Center     Atomic      Atomic             Coordinates (Angstroms)
 Number     Number       Type             X           Y           Z
 ---------------------------------------------------------------------
      1          6           0       -0.381611   -0.341731   -0.356395
      2          6           0        0.290234    0.887642    0.183517
      3          6           0        2.386907    0.483905   -0.163414
      4          8           0       -1.628242   -0.676123    0.283620
      5          8           0       -2.577126    0.388083   -0.046917
      6          8           0        2.589464   -0.638921    0.093750
      7          1           0       -3.298605   -0.150818   -0.417954
      8          1           0       -0.549704   -0.274424   -1.439502
      9          1           0        0.211148   -1.243467   -0.142524
     10          1           0        1.719204    1.386707   -0.319295
     11          1           0        0.353566    0.904147    1.276586
     12          1           0       -0.122531    1.827547   -0.197679
 ---------------------------------------------------------------------
                    Distance matrix (angstroms):
                    1          2          3          4          5
     1  C    0.000000
     2  C    1.501413   0.000000
     3  C    2.895446   2.163192   0.000000
     4  O    1.440668   2.477081   4.203203   0.000000
     5  O    2.334244   2.919660   4.966324   1.463616   0.000000
     6  O    3.019642   2.761324   1.169572   4.222141   5.269552
     7  H    2.923883   3.784169   5.726492   1.886337   0.973969
     8  H    1.098137   2.165660   3.290463   2.072137   2.547282
     9  H    1.100105   2.157356   2.778161   1.971505   3.231960
    10  H    2.720716   1.594942   1.133657   3.977960   4.419264
    11  H    2.181588   1.095026   2.526791   2.722278   3.256829
    12  H    2.190452   1.095037   2.846722   2.960942   2.849530
                    6          7          8          9         10
     6  O    0.000000
     7  H    5.930383   0.000000
     8  H    3.512562   2.935182   0.000000
     9  H    2.465298   3.686205   1.788880   0.000000
    10  H    2.243017   5.249012   3.026906   3.036989   0.000000
    11  H    2.963005   4.162064   3.095490   2.578062   2.155149
    12  H    3.677406   3.748319   2.478484   3.089581   1.897662
                   11         12
    11  H    0.000000
    12  H    1.803551   0.000000
 Symmetry turned off by external request.
 Stoichiometry    C3H6O3
 Framework group  C1[X(C3H6O3)]
 Deg. of freedom    30
 Full point group                 C1      NOp   1
 Rotational constants (GHZ):          11.1237104           1.4470681           1.3327947
 Standard basis: 6-31+G(d) (6D, 7F)
   126 basis functions,   216 primitive gaussians,   126 cartesian basis functions
    24 alpha electrons       24 beta electrons
       nuclear repulsion energy       226.5173242328 Hartrees.
 NAtoms=   12 NActive=   12 NUniq=   12 SFac= 1.00D+00 NAtFMM=   60 NAOKFM=F Big=F
 Integral buffers will be    131072 words long.
 Raffenetti 2 integral format.
 Two-electron integral symmetry is turned off.
 One-electron integrals computed using PRISM.
 NBasis=   126 RedAO= T EigKep=  1.21D-04  NBF=   126
 NBsUse=   126 1.00D-06 EigRej= -1.00D+00 NBFU=   126
 Initial guess from the checkpoint file:  "/scratch/bell/zhao922/YARP/paper-example/KHP-network/pp_0/IRC-folder/Gau-59857.chk"
 B after Tr=    -0.001540   -0.000495    0.000390
         Rot=    1.000000   -0.000198    0.000005   -0.000088 Ang=  -0.02 deg.
 ExpMin= 4.38D-02 ExpMax= 5.48D+03 ExpMxC= 8.25D+02 IAcc=3 IRadAn=         5 AccDes= 0.00D+00
 Harris functional with IExCor=  402 and IRadAn=       5 diagonalized for initial guess.
 HarFok:  IExCor=  402 AccDes= 0.00D+00 IRadAn=         5 IDoV= 1 UseB2=F ITyADJ=14
 ICtDFT=  3500011 ScaDFX=  1.000000  1.000000  1.000000  1.000000
 FoFCou: FMM=F IPFlag=           0 FMFlag=      100000 FMFlg1=           0
         NFxFlg=           0 DoJE=T BraDBF=F KetDBF=T FulRan=T
         wScrn=  0.000000 ICntrl=       500 IOpCl=  0 I1Cent=   200000004 NGrid=           0
         NMat0=    1 NMatS0=      1 NMatT0=    0 NMatD0=    1 NMtDS0=    0 NMtDT0=    0
 Symmetry not used in FoFCou.
 Keep R1 ints in memory in canonical form, NReq=47237243.
 Requested convergence on RMS density matrix=1.00D-08 within 128 cycles.
 Requested convergence on MAX density matrix=1.00D-06.
 Requested convergence on             energy=1.00D-06.
 No special actions if energy rises.
 SCF Done:  E(RB3LYP) =  -343.367340672     A.U. after   12 cycles
            NFock= 12  Conv=0.81D-08     -V/T= 2.0090
 DoSCS=F DFT=T ScalE2(SS,OS)=  1.000000  1.000000
 Range of M.O.s used for correlation:     1   126
 NBasis=   126 NAE=    24 NBE=    24 NFC=     0 NFV=     0
 NROrb=    126 NOA=    24 NOB=    24 NVA=   102 NVB=   102

 **** Warning!!: The largest alpha MO coefficient is  0.27808721D+02

 Symmetrizing basis deriv contribution to polar:
 IMax=3 JMax=2 DiffMx= 0.00D+00
 G2DrvN: will do    13 centers at a time, making    1 passes.
 Calling FoFCou, ICntrl=  3107 FMM=F I1Cent=   0 AccDes= 0.00D+00.
 End of G2Drv F.D. properties file   721 does not exist.
 End of G2Drv F.D. properties file   722 does not exist.
 End of G2Drv F.D. properties file   788 does not exist.
          IDoAtm=111111111111
          Differentiating once with respect to nuclear coordinates.
 Keep R1 ints in memory in canonical form, NReq=47193265.
          There are    39 degrees of freedom in the 1st order CPHF.  IDoFFX=6 NUNeed=     0.
     33 vectors produced by pass  0 Test12= 6.28D-15 2.56D-09 XBig12= 1.61D-01 1.80D-01.
 AX will form    33 AO Fock derivatives at one time.
     33 vectors produced by pass  1 Test12= 6.28D-15 2.56D-09 XBig12= 2.80D-02 3.26D-02.
     33 vectors produced by pass  2 Test12= 6.28D-15 2.56D-09 XBig12= 8.39D-04 6.30D-03.
     33 vectors produced by pass  3 Test12= 6.28D-15 2.56D-09 XBig12= 4.54D-06 3.51D-04.
     33 vectors produced by pass  4 Test12= 6.28D-15 2.56D-09 XBig12= 1.06D-08 1.64D-05.
     30 vectors produced by pass  5 Test12= 6.28D-15 2.56D-09 XBig12= 1.70D-11 5.98D-07.
      5 vectors produced by pass  6 Test12= 6.28D-15 2.56D-09 XBig12= 1.41D-14 1.44D-08.
 InvSVY:  IOpt=1 It=  1 EMax= 1.22D-15
 Solved reduced A of dimension   200 with    33 vectors.
 End of Minotr F.D. properties file   721 does not exist.
 End of Minotr F.D. properties file   722 does not exist.
 End of Minotr F.D. properties file   788 does not exist.
 Calling FoFJK, ICntrl=    100127 FMM=F ISym2X=0 I1Cent= 0 IOpClX= 0 NMat=1 NMatS=1 NMatT=0.
 -------------------------------------------------------------------
 Center     Atomic                   Forces (Hartrees/Bohr)
 Number     Number              X              Y              Z
 -------------------------------------------------------------------
      1        6           0.000997811   -0.001104313   -0.001755143
      2        6          -0.007640736    0.013851526   -0.001829132
      3        6           0.047732912   -0.004100191   -0.006609884
      4        8           0.001944242    0.001662747    0.000019636
      5        8           0.000102884   -0.000136810   -0.000033384
      6        8          -0.011113913   -0.000075695    0.001710016
      7        1          -0.000007025   -0.000030553   -0.000002315
      8        1           0.000074892   -0.000006261   -0.000049256
      9        1           0.000169681    0.000124341   -0.000143599
     10        1          -0.028976522   -0.010440225    0.007436994
     11        1           0.001098380    0.000252280   -0.000297853
     12        1          -0.004382606    0.000003156    0.001553920
 -------------------------------------------------------------------
 Cartesian Forces:  Max     0.047732912 RMS     0.010216878
 IRC-IRC-IRC-IRC-IRC-IRC-IRC-IRC-IRC-IRC-IRC-IRC-IRC-IRC-IRC-IRC-IRC-IRC
 Pt  2 Step number   1 out of a maximum of 100
 Modified Bulirsch-Stoer Extrapolation Cycles:
    EPS =    0.000010000000000
      PEZero:  N= 2 I= 1 D=  8.75D-04 Err=  2.38D-05
      PEZero:  N= 3 I= 2 D=  8.75D-04 Err=  1.59D-05
      PEZero:  N= 3 I= 1 D=  1.75D-03 Err=  2.08D-08
 Maximum DWI energy   std dev =  0.000006537 at pt    27
 Maximum DWI gradient std dev =  0.003915066 at pt    23
 CORRECTOR INTEGRATION CONVERGENCE:
   Recorrection delta-x convergence threshold:    0.010000
   Delta-x Convergence Met
 Point Number:   2          Path Number:   1
   CHANGE IN THE REACTION COORDINATE =    0.16801
   NET REACTION COORDINATE UP TO THIS POINT =    0.33607
  # OF POINTS ALONG THE PATH =   2
  # OF STEPS =   1

 Calculating another point on the path.
 IRC-IRC-IRC-IRC-IRC-IRC-IRC-IRC-IRC-IRC-IRC-IRC-IRC-IRC-IRC-IRC-IRC-IRC
                          Input orientation:                          
 ---------------------------------------------------------------------
 Center     Atomic      Atomic             Coordinates (Angstroms)
 Number     Number       Type             X           Y           Z
 ---------------------------------------------------------------------
      1          6           0       -0.381415   -0.341983   -0.356765
      2          6           0        0.288806    0.890622    0.183089
      3          6           0        2.396702    0.482945   -0.164740
      4          8           0       -1.627920   -0.675847    0.283619
      5          8           0       -2.577110    0.388063   -0.046922
      6          8           0        2.587802   -0.638902    0.093997
      7          1           0       -3.298626   -0.150888   -0.417964
      8          1           0       -0.549507   -0.274453   -1.439634
      9          1           0        0.211579   -1.243160   -0.142893
     10          1           0        1.646383    1.360528   -0.300605
     11          1           0        0.356105    0.904768    1.275842
     12          1           0       -0.133811    1.827510   -0.193644
 ---------------------------------------------------------------------
                    Distance matrix (angstroms):
                    1          2          3          4          5
     1  C    0.000000
     2  C    1.503314   0.000000
     3  C    2.904362   2.174952   0.000000
     4  O    1.440601   2.477452   4.212055   0.000000
     5  O    2.334533   2.918722   4.976112   1.463600   0.000000
     6  O    3.017880   2.762746   1.167050   4.220146   5.267906
     7  H    2.924104   3.783606   5.736082   1.886548   0.974026
     8  H    1.097916   2.166425   3.298356   2.072123   2.547498
     9  H    1.099774   2.159920   2.784723   1.971677   3.232164
    10  H    2.648332   1.515846   1.162580   3.899897   4.341420
    11  H    2.182597   1.094914   2.533229   2.723822   3.258901
    12  H    2.189661   1.094665   2.865692   2.954139   2.839585
                    6          7          8          9         10
     6  O    0.000000
     7  H    5.928769   0.000000
     8  H    3.511062   2.935428   0.000000
     9  H    2.463267   3.686497   1.788626   0.000000
    10  H    2.244929   5.172163   2.965212   2.977034   0.000000
    11  H    2.959755   4.164187   3.095885   2.578234   2.087515
    12  H    3.684170   3.739041   2.478617   3.090450   1.843530
                   11         12
    11  H    0.000000
    12  H    1.803014   0.000000
 Symmetry turned off by external request.
 Stoichiometry    C3H6O3
 Framework group  C1[X(C3H6O3)]
 Deg. of freedom    30
 Full point group                 C1      NOp   1
 Rotational constants (GHZ):          11.1322014           1.4464448           1.3323517
 Standard basis: 6-31+G(d) (6D, 7F)
   126 basis functions,   216 primitive gaussians,   126 cartesian basis functions
    24 alpha electrons       24 beta electrons
       nuclear repulsion energy       226.5839811907 Hartrees.
 NAtoms=   12 NActive=   12 NUniq=   12 SFac= 1.00D+00 NAtFMM=   60 NAOKFM=F Big=F
 Integral buffers will be    131072 words long.
 Raffenetti 2 integral format.
 Two-electron integral symmetry is turned off.
 One-electron integrals computed using PRISM.
 NBasis=   126 RedAO= T EigKep=  1.22D-04  NBF=   126
 NBsUse=   126 1.00D-06 EigRej= -1.00D+00 NBFU=   126
 Initial guess from the checkpoint file:  "/scratch/bell/zhao922/YARP/paper-example/KHP-network/pp_0/IRC-folder/Gau-59857.chk"
 B after Tr=    -0.001573   -0.000500    0.000400
         Rot=    1.000000   -0.000207    0.000006   -0.000090 Ang=  -0.03 deg.
 ExpMin= 4.38D-02 ExpMax= 5.48D+03 ExpMxC= 8.25D+02 IAcc=3 IRadAn=         5 AccDes= 0.00D+00
 Harris functional with IExCor=  402 and IRadAn=       5 diagonalized for initial guess.
 HarFok:  IExCor=  402 AccDes= 0.00D+00 IRadAn=         5 IDoV= 1 UseB2=F ITyADJ=14
 ICtDFT=  3500011 ScaDFX=  1.000000  1.000000  1.000000  1.000000
 FoFCou: FMM=F IPFlag=           0 FMFlag=      100000 FMFlg1=           0
         NFxFlg=           0 DoJE=T BraDBF=F KetDBF=T FulRan=T
         wScrn=  0.000000 ICntrl=       500 IOpCl=  0 I1Cent=   200000004 NGrid=           0
         NMat0=    1 NMatS0=      1 NMatT0=    0 NMatD0=    1 NMtDS0=    0 NMtDT0=    0
 Symmetry not used in FoFCou.
 Keep R1 ints in memory in canonical form, NReq=47237243.
 Requested convergence on RMS density matrix=1.00D-08 within 128 cycles.
 Requested convergence on MAX density matrix=1.00D-06.
 Requested convergence on             energy=1.00D-06.
 No special actions if energy rises.
 SCF Done:  E(RB3LYP) =  -343.374592796     A.U. after   12 cycles
            NFock= 12  Conv=0.63D-08     -V/T= 2.0089
 DoSCS=F DFT=T ScalE2(SS,OS)=  1.000000  1.000000
 Range of M.O.s used for correlation:     1   126
 NBasis=   126 NAE=    24 NBE=    24 NFC=     0 NFV=     0
 NROrb=    126 NOA=    24 NOB=    24 NVA=   102 NVB=   102

 **** Warning!!: The largest alpha MO coefficient is  0.27989798D+02

 Symmetrizing basis deriv contribution to polar:
 IMax=3 JMax=2 DiffMx= 0.00D+00
 G2DrvN: will do    13 centers at a time, making    1 passes.
 Calling FoFCou, ICntrl=  3107 FMM=F I1Cent=   0 AccDes= 0.00D+00.
 End of G2Drv F.D. properties file   721 does not exist.
 End of G2Drv F.D. properties file   722 does not exist.
 End of G2Drv F.D. properties file   788 does not exist.
          IDoAtm=111111111111
          Differentiating once with respect to nuclear coordinates.
 Keep R1 ints in memory in canonical form, NReq=47193265.
          There are    39 degrees of freedom in the 1st order CPHF.  IDoFFX=6 NUNeed=     0.
     33 vectors produced by pass  0 Test12= 6.28D-15 2.56D-09 XBig12= 1.55D-01 1.99D-01.
 AX will form    33 AO Fock derivatives at one time.
     33 vectors produced by pass  1 Test12= 6.28D-15 2.56D-09 XBig12= 2.69D-02 3.17D-02.
     33 vectors produced by pass  2 Test12= 6.28D-15 2.56D-09 XBig12= 8.05D-04 6.12D-03.
     33 vectors produced by pass  3 Test12= 6.28D-15 2.56D-09 XBig12= 4.04D-06 2.88D-04.
     33 vectors produced by pass  4 Test12= 6.28D-15 2.56D-09 XBig12= 9.64D-09 1.55D-05.
     29 vectors produced by pass  5 Test12= 6.28D-15 2.56D-09 XBig12= 1.60D-11 6.40D-07.
      3 vectors produced by pass  6 Test12= 6.28D-15 2.56D-09 XBig12= 1.31D-14 1.43D-08.
 InvSVY:  IOpt=1 It=  1 EMax= 2.22D-15
 Solved reduced A of dimension   197 with    33 vectors.
 End of Minotr F.D. properties file   721 does not exist.
 End of Minotr F.D. properties file   722 does not exist.
 End of Minotr F.D. properties file   788 does not exist.
 Calling FoFJK, ICntrl=    100127 FMM=F ISym2X=0 I1Cent= 0 IOpClX= 0 NMat=1 NMatS=1 NMatT=0.
 -------------------------------------------------------------------
 Center     Atomic                   Forces (Hartrees/Bohr)
 Number     Number              X              Y              Z
 -------------------------------------------------------------------
      1        6           0.001204045   -0.001876952   -0.002509519
      2        6          -0.008494020    0.020867176   -0.003238838
      3        6           0.065502907   -0.007434478   -0.008623735
      4        8           0.003074205    0.002624110   -0.000050962
      5        8           0.000149497   -0.000192204   -0.000058430
      6        8          -0.014293870    0.000445598    0.002060327
      7        1          -0.000010233   -0.000033855   -0.000006407
      8        1           0.000121841   -0.000025015   -0.000087427
      9        1           0.000238133    0.000204168   -0.000221016
     10        1          -0.042026305   -0.014882416    0.010718222
     11        1           0.001279021    0.000348291   -0.000416572
     12        1          -0.006745220   -0.000044421    0.002434357
 -------------------------------------------------------------------
 Cartesian Forces:  Max     0.065502907 RMS     0.014270097
 IRC-IRC-IRC-IRC-IRC-IRC-IRC-IRC-IRC-IRC-IRC-IRC-IRC-IRC-IRC-IRC-IRC-IRC
 Pt  3 Step number   1 out of a maximum of 100
 Modified Bulirsch-Stoer Extrapolation Cycles:
    EPS =    0.000010000000000
      PEZero:  N= 2 I= 1 D=  8.75D-04 Err=  2.29D-05
      PEZero:  N= 3 I= 2 D=  8.75D-04 Err=  1.52D-05
      PEZero:  N= 3 I= 1 D=  1.75D-03 Err=  1.01D-08
 Maximum DWI energy   std dev =  0.000010171 at pt    28
 Maximum DWI gradient std dev =  0.002003046 at pt    12
 CORRECTOR INTEGRATION CONVERGENCE:
   Recorrection delta-x convergence threshold:    0.010000
   Delta-x Convergence Met
 Point Number:   3          Path Number:   1
   CHANGE IN THE REACTION COORDINATE =    0.16802
   NET REACTION COORDINATE UP TO THIS POINT =    0.50409
  # OF POINTS ALONG THE PATH =   3
  # OF STEPS =   1

 Calculating another point on the path.
 IRC-IRC-IRC-IRC-IRC-IRC-IRC-IRC-IRC-IRC-IRC-IRC-IRC-IRC-IRC-IRC-IRC-IRC
                          Input orientation:                          
 ---------------------------------------------------------------------
 Center     Atomic      Atomic             Coordinates (Angstroms)
 Number     Number       Type             X           Y           Z
 ---------------------------------------------------------------------
      1          6           0       -0.381257   -0.342276   -0.357131
      2          6           0        0.287736    0.893746    0.182571
      3          6           0        2.406069    0.481759   -0.165944
      4          8           0       -1.627567   -0.675547    0.283609
      5          8           0       -2.577093    0.388042   -0.046929
      6          8           0        2.586325   -0.638832    0.094205
      7          1           0       -3.298646   -0.150941   -0.417979
      8          1           0       -0.549282   -0.274514   -1.439797
      9          1           0        0.211989   -1.242791   -0.143287
     10          1           0        1.572890    1.334674   -0.281914
     11          1           0        0.358056    0.905362    1.275124
     12          1           0       -0.145985    1.827368   -0.189204
 ---------------------------------------------------------------------
                    Distance matrix (angstroms):
                    1          2          3          4          5
     1  C    0.000000
     2  C    1.505517   0.000000
     3  C    2.912863   2.185985   0.000000
     4  O    1.440454   2.478160   4.220388   0.000000
     5  O    2.334799   2.918159   4.985464   1.463583   0.000000
     6  O    3.016320   2.764076   1.164429   4.218306   5.266429
     7  H    2.924290   3.783407   5.745225   1.886781   0.974074
     8  H    1.097720   2.167374   3.305867   2.072113   2.547759
     9  H    1.099362   2.162571   2.790802   1.971794   3.232317
    10  H    2.576142   1.435891   1.197957   3.821482   4.263061
    11  H    2.183447   1.094875   2.539778   2.724898   3.260451
    12  H    2.188814   1.094523   2.885166   2.946730   2.828814
                    6          7          8          9         10
     6  O    0.000000
     7  H    5.927331   0.000000
     8  H    3.509690   2.935708   0.000000
     9  H    2.461431   3.686753   1.788304   0.000000
    10  H    2.250165   5.094843   2.904099   2.917978   0.000000
    11  H    2.957074   4.165794   3.096153   2.578330   2.021014
    12  H    3.691609   3.728983   2.478818   3.091299   1.790495
                   11         12
    11  H    0.000000
    12  H    1.802334   0.000000
 Symmetry turned off by external request.
 Stoichiometry    C3H6O3
 Framework group  C1[X(C3H6O3)]
 Deg. of freedom    30
 Full point group                 C1      NOp   1
 Rotational constants (GHZ):          11.1405519           1.4458114           1.3318951
 Standard basis: 6-31+G(d) (6D, 7F)
   126 basis functions,   216 primitive gaussians,   126 cartesian basis functions
    24 alpha electrons       24 beta electrons
       nuclear repulsion energy       226.6573879078 Hartrees.
 NAtoms=   12 NActive=   12 NUniq=   12 SFac= 1.00D+00 NAtFMM=   60 NAOKFM=F Big=F
 Integral buffers will be    131072 words long.
 Raffenetti 2 integral format.
 Two-electron integral symmetry is turned off.
 One-electron integrals computed using PRISM.
 NBasis=   126 RedAO= T EigKep=  1.23D-04  NBF=   126
 NBsUse=   126 1.00D-06 EigRej= -1.00D+00 NBFU=   126
 Initial guess from the checkpoint file:  "/scratch/bell/zhao922/YARP/paper-example/KHP-network/pp_0/IRC-folder/Gau-59857.chk"
 B after Tr=    -0.001614   -0.000495    0.000407
         Rot=    1.000000   -0.000215    0.000007   -0.000095 Ang=  -0.03 deg.
 ExpMin= 4.38D-02 ExpMax= 5.48D+03 ExpMxC= 8.25D+02 IAcc=3 IRadAn=         5 AccDes= 0.00D+00
 Harris functional with IExCor=  402 and IRadAn=       5 diagonalized for initial guess.
 HarFok:  IExCor=  402 AccDes= 0.00D+00 IRadAn=         5 IDoV= 1 UseB2=F ITyADJ=14
 ICtDFT=  3500011 ScaDFX=  1.000000  1.000000  1.000000  1.000000
 FoFCou: FMM=F IPFlag=           0 FMFlag=      100000 FMFlg1=           0
         NFxFlg=           0 DoJE=T BraDBF=F KetDBF=T FulRan=T
         wScrn=  0.000000 ICntrl=       500 IOpCl=  0 I1Cent=   200000004 NGrid=           0
         NMat0=    1 NMatS0=      1 NMatT0=    0 NMatD0=    1 NMtDS0=    0 NMtDT0=    0
 Symmetry not used in FoFCou.
 Keep R1 ints in memory in canonical form, NReq=47237243.
 Requested convergence on RMS density matrix=1.00D-08 within 128 cycles.
 Requested convergence on MAX density matrix=1.00D-06.
 Requested convergence on             energy=1.00D-06.
 No special actions if energy rises.
 SCF Done:  E(RB3LYP) =  -343.384204494     A.U. after   12 cycles
            NFock= 12  Conv=0.41D-08     -V/T= 2.0089
 DoSCS=F DFT=T ScalE2(SS,OS)=  1.000000  1.000000
 Range of M.O.s used for correlation:     1   126
 NBasis=   126 NAE=    24 NBE=    24 NFC=     0 NFV=     0
 NROrb=    126 NOA=    24 NOB=    24 NVA=   102 NVB=   102

 **** Warning!!: The largest alpha MO coefficient is  0.28198838D+02

 Symmetrizing basis deriv contribution to polar:
 IMax=3 JMax=2 DiffMx= 0.00D+00
 G2DrvN: will do    13 centers at a time, making    1 passes.
 Calling FoFCou, ICntrl=  3107 FMM=F I1Cent=   0 AccDes= 0.00D+00.
 End of G2Drv F.D. properties file   721 does not exist.
 End of G2Drv F.D. properties file   722 does not exist.
 End of G2Drv F.D. properties file   788 does not exist.
          IDoAtm=111111111111
          Differentiating once with respect to nuclear coordinates.
 Keep R1 ints in memory in canonical form, NReq=47193265.
          There are    39 degrees of freedom in the 1st order CPHF.  IDoFFX=6 NUNeed=     0.
     33 vectors produced by pass  0 Test12= 6.28D-15 2.56D-09 XBig12= 1.48D-01 2.10D-01.
 AX will form    33 AO Fock derivatives at one time.
     33 vectors produced by pass  1 Test12= 6.28D-15 2.56D-09 XBig12= 2.56D-02 3.34D-02.
     33 vectors produced by pass  2 Test12= 6.28D-15 2.56D-09 XBig12= 7.62D-04 5.91D-03.
     33 vectors produced by pass  3 Test12= 6.28D-15 2.56D-09 XBig12= 3.47D-06 2.77D-04.
     33 vectors produced by pass  4 Test12= 6.28D-15 2.56D-09 XBig12= 8.21D-09 1.39D-05.
     29 vectors produced by pass  5 Test12= 6.28D-15 2.56D-09 XBig12= 1.37D-11 5.73D-07.
      3 vectors produced by pass  6 Test12= 6.28D-15 2.56D-09 XBig12= 1.13D-14 1.41D-08.
 InvSVY:  IOpt=1 It=  1 EMax= 2.66D-15
 Solved reduced A of dimension   197 with    33 vectors.
 End of Minotr F.D. properties file   721 does not exist.
 End of Minotr F.D. properties file   722 does not exist.
 End of Minotr F.D. properties file   788 does not exist.
 Calling FoFJK, ICntrl=    100127 FMM=F ISym2X=0 I1Cent= 0 IOpClX= 0 NMat=1 NMatS=1 NMatT=0.
 -------------------------------------------------------------------
 Center     Atomic                   Forces (Hartrees/Bohr)
 Number     Number              X              Y              Z
 -------------------------------------------------------------------
      1        6           0.001166491   -0.002646572   -0.003068599
      2        6          -0.007944441    0.027208548   -0.004729439
      3        6           0.078549318   -0.011202877   -0.009782020
      4        8           0.004184683    0.003554305   -0.000177846
      5        8           0.000194561   -0.000236671   -0.000088102
      6        8          -0.015796111    0.001047409    0.002145345
      7        1          -0.000010274   -0.000030853   -0.000010662
      8        1           0.000170185   -0.000057864   -0.000134254
      9        1           0.000283688    0.000288988   -0.000290604
     10        1          -0.052823383   -0.018198899    0.013265664
     11        1           0.001145851    0.000412395   -0.000487718
     12        1          -0.009120569   -0.000137910    0.003358237
 -------------------------------------------------------------------
 Cartesian Forces:  Max     0.078549318 RMS     0.017411874
 IRC-IRC-IRC-IRC-IRC-IRC-IRC-IRC-IRC-IRC-IRC-IRC-IRC-IRC-IRC-IRC-IRC-IRC
 Pt  4 Step number   1 out of a maximum of 100
 Modified Bulirsch-Stoer Extrapolation Cycles:
    EPS =    0.000010000000000
      PEZero:  N= 2 I= 1 D=  8.75D-04 Err=  1.86D-05
      PEZero:  N= 3 I= 2 D=  8.75D-04 Err=  1.24D-05
      PEZero:  N= 3 I= 1 D=  1.75D-03 Err=  1.48D-08
 Maximum DWI energy   std dev =  0.000015283 at pt    28
 Maximum DWI gradient std dev =  0.001418517 at pt    70
 CORRECTOR INTEGRATION CONVERGENCE:
   Recorrection delta-x convergence threshold:    0.010000
   Delta-x Convergence Met
 Point Number:   4          Path Number:   1
   CHANGE IN THE REACTION COORDINATE =    0.16802
   NET REACTION COORDINATE UP TO THIS POINT =    0.67211
  # OF POINTS ALONG THE PATH =   4
  # OF STEPS =   1

 Calculating another point on the path.
 IRC-IRC-IRC-IRC-IRC-IRC-IRC-IRC-IRC-IRC-IRC-IRC-IRC-IRC-IRC-IRC-IRC-IRC
                          Input orientation:                          
 ---------------------------------------------------------------------
 Center     Atomic      Atomic             Coordinates (Angstroms)
 Number     Number       Type             X           Y           Z
 ---------------------------------------------------------------------
      1          6           0       -0.381140   -0.342602   -0.357487
      2          6           0        0.286929    0.897011    0.181980
      3          6           0        2.415139    0.480336   -0.167042
      4          8           0       -1.627183   -0.675221    0.283588
      5          8           0       -2.577075    0.388021   -0.046938
      6          8           0        2.585020   -0.638728    0.094378
      7          1           0       -3.298659   -0.150979   -0.417996
      8          1           0       -0.549032   -0.274617   -1.439999
      9          1           0        0.212376   -1.242371   -0.143701
     10          1           0        1.498862    1.309560   -0.263511
     11          1           0        0.359329    0.905920    1.274465
     12          1           0       -0.159293    1.827094   -0.184248
 ---------------------------------------------------------------------
                    Distance matrix (angstroms):
                    1          2          3          4          5
     1  C    0.000000
     2  C    1.507973   0.000000
     3  C    2.921074   2.196522   0.000000
     4  O    1.440221   2.479126   4.228327   0.000000
     5  O    2.335033   2.917875   4.994512   1.463567   0.000000
     6  O    3.014960   2.765392   1.161681   4.216609   5.265113
     7  H    2.924431   3.783477   5.754044   1.887030   0.974110
     8  H    1.097561   2.168493   3.313108   2.072111   2.548071
     9  H    1.098886   2.165313   2.796503   1.971855   3.232426
    10  H    2.504571   1.355522   1.239549   3.743105   4.184424
    11  H    2.184117   1.094917   2.546649   2.725449   3.261409
    12  H    2.187877   1.094665   2.905470   2.938563   2.816993
                    6          7          8          9         10
     6  O    0.000000
     7  H    5.926054   0.000000
     8  H    3.508443   2.936022   0.000000
     9  H    2.459778   3.686969   1.787925   0.000000
    10  H    2.259125   5.017295   2.843872   2.860376   0.000000
    11  H    2.955037   4.166814   3.096304   2.578360   1.956229
    12  H    3.699887   3.717934   2.479112   3.092150   1.738851
                   11         12
    11  H    0.000000
    12  H    1.801492   0.000000
 Symmetry turned off by external request.
 Stoichiometry    C3H6O3
 Framework group  C1[X(C3H6O3)]
 Deg. of freedom    30
 Full point group                 C1      NOp   1
 Rotational constants (GHZ):          11.1484273           1.4451402           1.3313989
 Standard basis: 6-31+G(d) (6D, 7F)
   126 basis functions,   216 primitive gaussians,   126 cartesian basis functions
    24 alpha electrons       24 beta electrons
       nuclear repulsion energy       226.7409387828 Hartrees.
 NAtoms=   12 NActive=   12 NUniq=   12 SFac= 1.00D+00 NAtFMM=   60 NAOKFM=F Big=F
 Integral buffers will be    131072 words long.
 Raffenetti 2 integral format.
 Two-electron integral symmetry is turned off.
 One-electron integrals computed using PRISM.
 NBasis=   126 RedAO= T EigKep=  1.25D-04  NBF=   126
 NBsUse=   126 1.00D-06 EigRej= -1.00D+00 NBFU=   126
 Initial guess from the checkpoint file:  "/scratch/bell/zhao922/YARP/paper-example/KHP-network/pp_0/IRC-folder/Gau-59857.chk"
 B after Tr=    -0.001660   -0.000483    0.000411
         Rot=    1.000000   -0.000223    0.000007   -0.000100 Ang=  -0.03 deg.
 ExpMin= 4.38D-02 ExpMax= 5.48D+03 ExpMxC= 8.25D+02 IAcc=3 IRadAn=         5 AccDes= 0.00D+00
 Harris functional with IExCor=  402 and IRadAn=       5 diagonalized for initial guess.
 HarFok:  IExCor=  402 AccDes= 0.00D+00 IRadAn=         5 IDoV= 1 UseB2=F ITyADJ=14
 ICtDFT=  3500011 ScaDFX=  1.000000  1.000000  1.000000  1.000000
 FoFCou: FMM=F IPFlag=           0 FMFlag=      100000 FMFlg1=           0
         NFxFlg=           0 DoJE=T BraDBF=F KetDBF=T FulRan=T
         wScrn=  0.000000 ICntrl=       500 IOpCl=  0 I1Cent=   200000004 NGrid=           0
         NMat0=    1 NMatS0=      1 NMatT0=    0 NMatD0=    1 NMtDS0=    0 NMtDT0=    0
 Symmetry not used in FoFCou.
 Keep R1 ints in memory in canonical form, NReq=47237243.
 Requested convergence on RMS density matrix=1.00D-08 within 128 cycles.
 Requested convergence on MAX density matrix=1.00D-06.
 Requested convergence on             energy=1.00D-06.
 No special actions if energy rises.
 SCF Done:  E(RB3LYP) =  -343.395571871     A.U. after   12 cycles
            NFock= 12  Conv=0.29D-08     -V/T= 2.0088
 DoSCS=F DFT=T ScalE2(SS,OS)=  1.000000  1.000000
 Range of M.O.s used for correlation:     1   126
 NBasis=   126 NAE=    24 NBE=    24 NFC=     0 NFV=     0
 NROrb=    126 NOA=    24 NOB=    24 NVA=   102 NVB=   102

 **** Warning!!: The largest alpha MO coefficient is  0.28440874D+02

 Symmetrizing basis deriv contribution to polar:
 IMax=3 JMax=2 DiffMx= 0.00D+00
 G2DrvN: will do    13 centers at a time, making    1 passes.
 Calling FoFCou, ICntrl=  3107 FMM=F I1Cent=   0 AccDes= 0.00D+00.
 End of G2Drv F.D. properties file   721 does not exist.
 End of G2Drv F.D. properties file   722 does not exist.
 End of G2Drv F.D. properties file   788 does not exist.
          IDoAtm=111111111111
          Differentiating once with respect to nuclear coordinates.
 Keep R1 ints in memory in canonical form, NReq=47193265.
          There are    39 degrees of freedom in the 1st order CPHF.  IDoFFX=6 NUNeed=     0.
     33 vectors produced by pass  0 Test12= 6.28D-15 2.56D-09 XBig12= 1.42D-01 2.14D-01.
 AX will form    33 AO Fock derivatives at one time.
     33 vectors produced by pass  1 Test12= 6.28D-15 2.56D-09 XBig12= 2.43D-02 3.40D-02.
     33 vectors produced by pass  2 Test12= 6.28D-15 2.56D-09 XBig12= 7.16D-04 5.69D-03.
     33 vectors produced by pass  3 Test12= 6.28D-15 2.56D-09 XBig12= 2.96D-06 2.63D-04.
     33 vectors produced by pass  4 Test12= 6.28D-15 2.56D-09 XBig12= 6.73D-09 1.18D-05.
     28 vectors produced by pass  5 Test12= 6.28D-15 2.56D-09 XBig12= 1.10D-11 4.93D-07.
      3 vectors produced by pass  6 Test12= 6.28D-15 2.56D-09 XBig12= 9.14D-15 1.37D-08.
 InvSVY:  IOpt=1 It=  1 EMax= 2.00D-15
 Solved reduced A of dimension   196 with    33 vectors.
 End of Minotr F.D. properties file   721 does not exist.
 End of Minotr F.D. properties file   722 does not exist.
 End of Minotr F.D. properties file   788 does not exist.
 Calling FoFJK, ICntrl=    100127 FMM=F ISym2X=0 I1Cent= 0 IOpClX= 0 NMat=1 NMatS=1 NMatT=0.
 -------------------------------------------------------------------
 Center     Atomic                   Forces (Hartrees/Bohr)
 Number     Number              X              Y              Z
 -------------------------------------------------------------------
      1        6           0.000895809   -0.003256029   -0.003368780
      2        6          -0.007589868    0.032110713   -0.005798268
      3        6           0.087058017   -0.014962975   -0.010216813
      4        8           0.005170249    0.004358813   -0.000349148
      5        8           0.000241004   -0.000268231   -0.000120443
      6        8          -0.015806860    0.001516605    0.002049985
      7        1          -0.000003956   -0.000025876   -0.000013812
      8        1           0.000214057   -0.000106213   -0.000189656
      9        1           0.000304779    0.000359087   -0.000341580
     10        1          -0.059819691   -0.019875144    0.014552687
     11        1           0.000725471    0.000435653   -0.000494811
     12        1          -0.011389011   -0.000286402    0.004290637
 -------------------------------------------------------------------
 Cartesian Forces:  Max     0.087058017 RMS     0.019500426
 IRC-IRC-IRC-IRC-IRC-IRC-IRC-IRC-IRC-IRC-IRC-IRC-IRC-IRC-IRC-IRC-IRC-IRC
 Pt  5 Step number   1 out of a maximum of 100
 Modified Bulirsch-Stoer Extrapolation Cycles:
    EPS =    0.000010000000000
      PEZero:  N= 2 I= 1 D=  8.75D-04 Err=  1.96D-05
      PEZero:  N= 3 I= 2 D=  8.75D-04 Err=  1.31D-05
      PEZero:  N= 3 I= 1 D=  1.75D-03 Err=  2.59D-08
 Maximum DWI energy   std dev =  0.000023380 at pt    14
 Maximum DWI gradient std dev =  0.002077478 at pt    18
 CORRECTOR INTEGRATION CONVERGENCE:
   Recorrection delta-x convergence threshold:    0.010000
   Delta-x Convergence Met
 Point Number:   5          Path Number:   1
   CHANGE IN THE REACTION COORDINATE =    0.16803
   NET REACTION COORDINATE UP TO THIS POINT =    0.84014
  # OF POINTS ALONG THE PATH =   5
  # OF STEPS =   1

 Calculating another point on the path.
 IRC-IRC-IRC-IRC-IRC-IRC-IRC-IRC-IRC-IRC-IRC-IRC-IRC-IRC-IRC-IRC-IRC-IRC
                          Input orientation:                          
 ---------------------------------------------------------------------
 Center     Atomic      Atomic             Coordinates (Angstroms)
 Number     Number       Type             X           Y           Z
 ---------------------------------------------------------------------
      1          6           0       -0.381070   -0.342952   -0.357834
      2          6           0        0.286133    0.900436    0.181367
      3          6           0        2.424201    0.478656   -0.168075
      4          8           0       -1.626759   -0.674866    0.283555
      5          8           0       -2.577055    0.388000   -0.046948
      6          8           0        2.583858   -0.638606    0.094528
      7          1           0       -3.298659   -0.151010   -0.418015
      8          1           0       -0.548751   -0.274780   -1.440257
      9          1           0        0.212746   -1.241909   -0.144131
     10          1           0        1.424778    1.285422   -0.245885
     11          1           0        0.359863    0.906436    1.273891
     12          1           0       -0.174250    1.826623   -0.178539
 ---------------------------------------------------------------------
                    Distance matrix (angstroms):
                    1          2          3          4          5
     1  C    0.000000
     2  C    1.510599   0.000000
     3  C    2.929266   2.207112   0.000000
     4  O    1.439891   2.480156   4.236138   0.000000
     5  O    2.335228   2.917630   5.003544   1.463550   0.000000
     6  O    3.013776   2.766899   1.158760   4.215015   5.263930
     7  H    2.924515   3.783587   5.762818   1.887292   0.974133
     8  H    1.097453   2.169753   3.320325   2.072124   2.548451
     9  H    1.098367   2.168173   2.802044   1.971860   3.232497
    10  H    2.434178   1.275645   1.286769   3.665367   4.106045
    11  H    2.184600   1.095025   2.554164   2.725426   3.261729
    12  H    2.186773   1.095129   2.927298   2.929294   2.803645
                    6          7          8          9         10
     6  O    0.000000
     7  H    5.924902   0.000000
     8  H    3.507303   2.936373   0.000000
     9  H    2.458273   3.687144   1.787501   0.000000
    10  H    2.271835   4.940022   2.784883   2.804778   0.000000
    11  H    2.953678   4.167195   3.096360   2.578336   1.894041
    12  H    3.709324   3.705444   2.479532   3.093031   1.689474
                   11         12
    11  H    0.000000
    12  H    1.800437   0.000000
 Symmetry turned off by external request.
 Stoichiometry    C3H6O3
 Framework group  C1[X(C3H6O3)]
 Deg. of freedom    30
 Full point group                 C1      NOp   1
 Rotational constants (GHZ):          11.1555162           1.4443717           1.3308124
 Standard basis: 6-31+G(d) (6D, 7F)
   126 basis functions,   216 primitive gaussians,   126 cartesian basis functions
    24 alpha electrons       24 beta electrons
       nuclear repulsion energy       226.8373626149 Hartrees.
 NAtoms=   12 NActive=   12 NUniq=   12 SFac= 1.00D+00 NAtFMM=   60 NAOKFM=F Big=F
 Integral buffers will be    131072 words long.
 Raffenetti 2 integral format.
 Two-electron integral symmetry is turned off.
 One-electron integrals computed using PRISM.
 NBasis=   126 RedAO= T EigKep=  1.26D-04  NBF=   126
 NBsUse=   126 1.00D-06 EigRej= -1.00D+00 NBFU=   126
 Initial guess from the checkpoint file:  "/scratch/bell/zhao922/YARP/paper-example/KHP-network/pp_0/IRC-folder/Gau-59857.chk"
 B after Tr=    -0.001706   -0.000468    0.000410
         Rot=    1.000000   -0.000229    0.000007   -0.000107 Ang=  -0.03 deg.
 ExpMin= 4.38D-02 ExpMax= 5.48D+03 ExpMxC= 8.25D+02 IAcc=3 IRadAn=         5 AccDes= 0.00D+00
 Harris functional with IExCor=  402 and IRadAn=       5 diagonalized for initial guess.
 HarFok:  IExCor=  402 AccDes= 0.00D+00 IRadAn=         5 IDoV= 1 UseB2=F ITyADJ=14
 ICtDFT=  3500011 ScaDFX=  1.000000  1.000000  1.000000  1.000000
 FoFCou: FMM=F IPFlag=           0 FMFlag=      100000 FMFlg1=           0
         NFxFlg=           0 DoJE=T BraDBF=F KetDBF=T FulRan=T
         wScrn=  0.000000 ICntrl=       500 IOpCl=  0 I1Cent=   200000004 NGrid=           0
         NMat0=    1 NMatS0=      1 NMatT0=    0 NMatD0=    1 NMtDS0=    0 NMtDT0=    0
 Symmetry not used in FoFCou.
 Keep R1 ints in memory in canonical form, NReq=47237243.
 Requested convergence on RMS density matrix=1.00D-08 within 128 cycles.
 Requested convergence on MAX density matrix=1.00D-06.
 Requested convergence on             energy=1.00D-06.
 No special actions if energy rises.
 SCF Done:  E(RB3LYP) =  -343.407768926     A.U. after   12 cycles
            NFock= 12  Conv=0.27D-08     -V/T= 2.0087
 DoSCS=F DFT=T ScalE2(SS,OS)=  1.000000  1.000000
 Range of M.O.s used for correlation:     1   126
 NBasis=   126 NAE=    24 NBE=    24 NFC=     0 NFV=     0
 NROrb=    126 NOA=    24 NOB=    24 NVA=   102 NVB=   102

 **** Warning!!: The largest alpha MO coefficient is  0.28714712D+02

 Symmetrizing basis deriv contribution to polar:
 IMax=3 JMax=2 DiffMx= 0.00D+00
 G2DrvN: will do    13 centers at a time, making    1 passes.
 Calling FoFCou, ICntrl=  3107 FMM=F I1Cent=   0 AccDes= 0.00D+00.
 End of G2Drv F.D. properties file   721 does not exist.
 End of G2Drv F.D. properties file   722 does not exist.
 End of G2Drv F.D. properties file   788 does not exist.
          IDoAtm=111111111111
          Differentiating once with respect to nuclear coordinates.
 Keep R1 ints in memory in canonical form, NReq=47193265.
          There are    39 degrees of freedom in the 1st order CPHF.  IDoFFX=6 NUNeed=     0.
     33 vectors produced by pass  0 Test12= 6.28D-15 2.56D-09 XBig12= 1.36D-01 2.10D-01.
 AX will form    33 AO Fock derivatives at one time.
     33 vectors produced by pass  1 Test12= 6.28D-15 2.56D-09 XBig12= 2.32D-02 3.39D-02.
     33 vectors produced by pass  2 Test12= 6.28D-15 2.56D-09 XBig12= 6.74D-04 5.73D-03.
     33 vectors produced by pass  3 Test12= 6.28D-15 2.56D-09 XBig12= 2.56D-06 2.54D-04.
     33 vectors produced by pass  4 Test12= 6.28D-15 2.56D-09 XBig12= 5.48D-09 9.85D-06.
     26 vectors produced by pass  5 Test12= 6.28D-15 2.56D-09 XBig12= 8.44D-12 4.38D-07.
      3 vectors produced by pass  6 Test12= 6.28D-15 2.56D-09 XBig12= 7.03D-15 1.22D-08.
 InvSVY:  IOpt=1 It=  1 EMax= 1.89D-15
 Solved reduced A of dimension   194 with    33 vectors.
 End of Minotr F.D. properties file   721 does not exist.
 End of Minotr F.D. properties file   722 does not exist.
 End of Minotr F.D. properties file   788 does not exist.
 Calling FoFJK, ICntrl=    100127 FMM=F ISym2X=0 I1Cent= 0 IOpClX= 0 NMat=1 NMatS=1 NMatT=0.
 -------------------------------------------------------------------
 Center     Atomic                   Forces (Hartrees/Bohr)
 Number     Number              X              Y              Z
 -------------------------------------------------------------------
      1        6           0.000429735   -0.003555608   -0.003374749
      2        6          -0.010090339    0.034611637   -0.005595151
      3        6           0.091307988   -0.018022559   -0.010130338
      4        8           0.005925859    0.004945263   -0.000544248
      5        8           0.000291969   -0.000285428   -0.000153386
      6        8          -0.014613176    0.001626454    0.001872932
      7        1           0.000011193   -0.000024526   -0.000014844
      8        1           0.000248722   -0.000168754   -0.000250323
      9        1           0.000305079    0.000396782   -0.000363923
     10        1          -0.060544286   -0.019421645    0.013799151
     11        1           0.000110243    0.000411175   -0.000433337
     12        1          -0.013382986   -0.000512790    0.005188215
 -------------------------------------------------------------------
 Cartesian Forces:  Max     0.091307988 RMS     0.020303298
 IRC-IRC-IRC-IRC-IRC-IRC-IRC-IRC-IRC-IRC-IRC-IRC-IRC-IRC-IRC-IRC-IRC-IRC
 Pt  6 Step number   1 out of a maximum of 100
 Modified Bulirsch-Stoer Extrapolation Cycles:
    EPS =    0.000010000000000
      PEZero:  N= 2 I= 1 D=  8.75D-04 Err=  3.10D-05
      PEZero:  N= 3 I= 2 D=  8.75D-04 Err=  2.07D-05
      PEZero:  N= 3 I= 1 D=  1.75D-03 Err=  4.77D-08
 Maximum DWI energy   std dev =  0.000035122 at pt    28
 Maximum DWI gradient std dev =  0.003852271 at pt    27
 CORRECTOR INTEGRATION CONVERGENCE:
   Recorrection delta-x convergence threshold:    0.010000
   Delta-x Convergence Met
 Point Number:   6          Path Number:   1
   CHANGE IN THE REACTION COORDINATE =    0.16802
   NET REACTION COORDINATE UP TO THIS POINT =    1.00816
  # OF POINTS ALONG THE PATH =   6
  # OF STEPS =   1

 Calculating another point on the path.
 IRC-IRC-IRC-IRC-IRC-IRC-IRC-IRC-IRC-IRC-IRC-IRC-IRC-IRC-IRC-IRC-IRC-IRC
                          Input orientation:                          
 ---------------------------------------------------------------------
 Center     Atomic      Atomic             Coordinates (Angstroms)
 Number     Number       Type             X           Y           Z
 ---------------------------------------------------------------------
      1          6           0       -0.381056   -0.343327   -0.358178
      2          6           0        0.284788    0.904099    0.180848
      3          6           0        2.433860    0.476657   -0.169122
      4          8           0       -1.626272   -0.674462    0.283504
      5          8           0       -2.577029    0.387978   -0.046961
      6          8           0        2.582784   -0.638497    0.094670
      7          1           0       -3.298632   -0.151046   -0.418034
      8          1           0       -0.548423   -0.275034   -1.440601
      9          1           0        0.213122   -1.241405   -0.144582
     10          1           0        1.351861    1.262429   -0.230114
     11          1           0        0.359590    0.906904    1.273425
     12          1           0       -0.192034    1.825793   -0.171527
 ---------------------------------------------------------------------
                    Distance matrix (angstroms):
                    1          2          3          4          5
     1  C    0.000000
     2  C    1.513264   0.000000
     3  C    2.938004   2.218940   0.000000
     4  O    1.439433   2.480835   4.244362   0.000000
     5  O    2.335371   2.916895   5.013162   1.463531   0.000000
     6  O    3.012731   2.769082   1.155566   4.213443   5.262830
     7  H    2.924518   3.783238   5.772126   1.887567   0.974142
     8  H    1.097413   2.171104   3.328019   2.072158   2.548933
     9  H    1.097823   2.171227   2.807849   1.971815   3.232548
    10  H    2.365979   1.198305   1.338611   3.589516   4.029192
    11  H    2.184895   1.095138   2.562938   2.724759   3.261356
    12  H    2.185326   1.095923   2.952201   2.918110   2.787657
                    6          7          8          9         10
     6  O    0.000000
     7  H    5.923811   0.000000
     8  H    3.506226   2.936779   0.000000
     9  H    2.456835   3.687286   1.787034   0.000000
    10  H    2.287832   4.864187   2.727664   2.751950   0.000000
    11  H    2.953019   4.166880   3.096354   2.578261   1.836200
    12  H    3.720645   3.690476   2.480129   3.093959   1.644513
                   11         12
    11  H    0.000000
    12  H    1.799036   0.000000
 Symmetry turned off by external request.
 Stoichiometry    C3H6O3
 Framework group  C1[X(C3H6O3)]
 Deg. of freedom    30
 Full point group                 C1      NOp   1
 Rotational constants (GHZ):          11.1613218           1.4433795           1.3300302
 Standard basis: 6-31+G(d) (6D, 7F)
   126 basis functions,   216 primitive gaussians,   126 cartesian basis functions
    24 alpha electrons       24 beta electrons
       nuclear repulsion energy       226.9453888911 Hartrees.
 NAtoms=   12 NActive=   12 NUniq=   12 SFac= 1.00D+00 NAtFMM=   60 NAOKFM=F Big=F
 Integral buffers will be    131072 words long.
 Raffenetti 2 integral format.
 Two-electron integral symmetry is turned off.
 One-electron integrals computed using PRISM.
 NBasis=   126 RedAO= T EigKep=  1.27D-04  NBF=   126
 NBsUse=   126 1.00D-06 EigRej= -1.00D+00 NBFU=   126
 Initial guess from the checkpoint file:  "/scratch/bell/zhao922/YARP/paper-example/KHP-network/pp_0/IRC-folder/Gau-59857.chk"
 B after Tr=    -0.001752   -0.000453    0.000399
         Rot=    1.000000   -0.000232    0.000004   -0.000115 Ang=  -0.03 deg.
 ExpMin= 4.38D-02 ExpMax= 5.48D+03 ExpMxC= 8.25D+02 IAcc=3 IRadAn=         5 AccDes= 0.00D+00
 Harris functional with IExCor=  402 and IRadAn=       5 diagonalized for initial guess.
 HarFok:  IExCor=  402 AccDes= 0.00D+00 IRadAn=         5 IDoV= 1 UseB2=F ITyADJ=14
 ICtDFT=  3500011 ScaDFX=  1.000000  1.000000  1.000000  1.000000
 FoFCou: FMM=F IPFlag=           0 FMFlag=      100000 FMFlg1=           0
         NFxFlg=           0 DoJE=T BraDBF=F KetDBF=T FulRan=T
         wScrn=  0.000000 ICntrl=       500 IOpCl=  0 I1Cent=   200000004 NGrid=           0
         NMat0=    1 NMatS0=      1 NMatT0=    0 NMatD0=    1 NMtDS0=    0 NMtDT0=    0
 Symmetry not used in FoFCou.
 Keep R1 ints in memory in canonical form, NReq=47237243.
 Requested convergence on RMS density matrix=1.00D-08 within 128 cycles.
 Requested convergence on MAX density matrix=1.00D-06.
 Requested convergence on             energy=1.00D-06.
 No special actions if energy rises.
 SCF Done:  E(RB3LYP) =  -343.419438798     A.U. after   12 cycles
            NFock= 12  Conv=0.29D-08     -V/T= 2.0086
 DoSCS=F DFT=T ScalE2(SS,OS)=  1.000000  1.000000
 Range of M.O.s used for correlation:     1   126
 NBasis=   126 NAE=    24 NBE=    24 NFC=     0 NFV=     0
 NROrb=    126 NOA=    24 NOB=    24 NVA=   102 NVB=   102

 **** Warning!!: The largest alpha MO coefficient is  0.28899758D+02

 Symmetrizing basis deriv contribution to polar:
 IMax=3 JMax=2 DiffMx= 0.00D+00
[...]
  26                    1.37230  -0.47600   0.31645   0.89532   1.27270
  27                    1.38984  -0.48027   0.31317   0.89543   1.27466
  28                    1.41238  -0.48359   0.31140   0.89555   1.27625
  29                    1.43748  -0.48538   0.31102   0.89576   1.27747
  30                    1.46232  -0.48517   0.31179   0.89609   1.27839
  31                    1.48455  -0.48271   0.31342   0.89652   1.27906
  32                    1.50253  -0.47788   0.31570   0.89703   1.27954
  33                    1.51528  -0.47074   0.31846   0.89761   1.27986
  34                    1.52232  -0.46141   0.32156   0.89823   1.28004
  35                    1.52362  -0.45011   0.32493   0.89887   1.28009
  36                    1.51943  -0.43710   0.32848   0.89952   1.28002
  37                    1.51024  -0.42267   0.33218   0.90019   1.27983
  38                    1.49669  -0.40710   0.33596   0.90085   1.27953
  39                    1.47943  -0.39062   0.33976   0.90152   1.27911
  40                    1.45912  -0.37340   0.34352   0.90219   1.27858
  41                    1.43631  -0.35560   0.34710   0.90285   1.27796
  42                    1.41202  -0.33762   0.35049   0.90350   1.27730
  43                    1.38650  -0.31924   0.35351   0.90414   1.27658
  44                    1.36053  -0.30060   0.35605   0.90477   1.27584
  45                    1.33476  -0.28194   0.35801   0.90536   1.27513
  46                    1.30965  -0.26357   0.35929   0.90592   1.27447
  47                    1.28548  -0.24599   0.35983   0.90644   1.27390
  48                    1.26249  -0.23036   0.35956   0.90691   1.27343
  49                    1.24168  -0.21987   0.35837   0.90729   1.27313
  50                    1.22708  -0.22140   0.35648   0.90735   1.27321
  51                    1.22092  -0.23422   0.35521   0.90673   1.27370
  52                    1.21970  -0.25005   0.35532   0.90544   1.27410
  53                    1.22169  -0.26578   0.35679   0.90360   1.27405
  54                    1.22653  -0.28077   0.35942   0.90140   1.27341
  55                    1.23407  -0.29493   0.36299   0.89900   1.27216
  56                    1.24412  -0.30827   0.36729   0.89658   1.27033
  57                    1.25641  -0.32083   0.37212   0.89431   1.26794
  58                    1.27058  -0.33268   0.37735   0.89234   1.26506
  59                    1.28622  -0.34389   0.38286   0.89084   1.26174
  60                    1.30289  -0.35453   0.38855   0.88992   1.25804
  61                    1.32014  -0.36469   0.39435   0.88972   1.25403
  62                    1.33752  -0.37441   0.40015   0.89034   1.24978
  63                    1.35463  -0.38373   0.40584   0.89185   1.24538
  64                    1.37111  -0.39262   0.41127   0.89431   1.24091
  65                    1.38667  -0.40102   0.41628   0.89770   1.23648
  66                    1.40110  -0.40886   0.42065   0.90198   1.23222
  67                    1.41425  -0.41600   0.42419   0.90705   1.22824
  68                    1.42605  -0.42232   0.42671   0.91275   1.22467
  69                    1.43648  -0.42770   0.42803   0.91893   1.22162
  70                    1.44560  -0.43206   0.42804   0.92540   1.21916
  71                    1.45348  -0.43535   0.42668   0.93202   1.21733
  72                    1.46023  -0.43755   0.42393   0.93865   1.21614
  73                    1.46597  -0.43870   0.41982   0.94519   1.21557
  74                    1.47082  -0.43886   0.41442   0.95159   1.21556
  75                    1.47493  -0.43812   0.40785   0.95782   1.21606
  76                    1.47840  -0.43659   0.40022   0.96387   1.21697
  77                    1.48134  -0.43436   0.39165   0.96975   1.21823
  78                    1.48386  -0.43155   0.38228   0.97548   1.21975
  79                    1.48606  -0.42827   0.37223   0.98110   1.22146
  80                    1.48802  -0.42461   0.36164   0.98662   1.22329
  81                    1.48983  -0.42068   0.35060   0.99210   1.22519
                          X12       Y12       Z12
   1                    0.14214   1.63065  -0.38806
   2                    0.14354   1.63805  -0.37702
   3                    0.14523   1.64539  -0.36505
   4                    0.14731   1.65265  -0.35245
   5                    0.14988   1.65979  -0.33948
   6                    0.15301   1.66680  -0.32638
   7                    0.15677   1.67368  -0.31340
   8                    0.16126   1.68041  -0.30079
   9                    0.16660   1.68701  -0.28889
  10                    0.17297   1.69348  -0.27816
  11                    0.18061   1.69987  -0.26932
  12                    0.18980   1.70619  -0.26331
  13                    0.20062   1.71243  -0.26115
  14                    0.21281   1.71864  -0.26316
  15                    0.22540   1.72516  -0.26843
  16                    0.23580   1.73282  -0.27463
  17                    0.23902   1.74200  -0.27883
  18                    0.23264   1.75151  -0.27981
  19                    0.21983   1.76024  -0.27859
  20                    0.20378   1.76804  -0.27622
  21                    0.18602   1.77507  -0.27322
  22                    0.16721   1.78146  -0.26980
  23                    0.14761   1.78731  -0.26605
  24                    0.12736   1.79266  -0.26203
  25                    0.10662   1.79752  -0.25776
  26                    0.08572   1.80186  -0.25331
  27                    0.06525   1.80566  -0.24882
  28                    0.04592   1.80893  -0.24444
  29                    0.02824   1.81172  -0.24034
  30                    0.01235   1.81413  -0.23655
  31                   -0.00191   1.81626  -0.23309
  32                   -0.01475   1.81817  -0.22991
  33                   -0.02644   1.81991  -0.22696
  34                   -0.03720   1.82147  -0.22417
  35                   -0.04722   1.82286  -0.22150
  36                   -0.05669   1.82405  -0.21888
  37                   -0.06579   1.82505  -0.21626
  38                   -0.07472   1.82586  -0.21358
  39                   -0.08364   1.82649  -0.21080
  40                   -0.09275   1.82694  -0.20786
  41                   -0.10228   1.82724  -0.20467
  42                   -0.11211   1.82745  -0.20132
  43                   -0.12262   1.82753  -0.19764
  44                   -0.13389   1.82750  -0.19361
  45                   -0.14606   1.82736  -0.18917
  46                   -0.15938   1.82709  -0.18421
  47                   -0.17438   1.82661  -0.17848
  48                   -0.19227   1.82576  -0.17142
  49                   -0.21580   1.82408  -0.16167
  50                   -0.24782   1.82070  -0.14752
  51                   -0.28390   1.81574  -0.13052
  52                   -0.31982   1.81010  -0.11271
  53                   -0.35500   1.80415  -0.09449
  54                   -0.38935   1.79801  -0.07589
  55                   -0.42280   1.79171  -0.05693
  56                   -0.45524   1.78531  -0.03766
  57                   -0.48659   1.77884  -0.01814
  58                   -0.51676   1.77239   0.00152
  59                   -0.54562   1.76606   0.02118
  60                   -0.57308   1.75997   0.04068
  61                   -0.59903   1.75427   0.05983
  62                   -0.62338   1.74912   0.07842
  63                   -0.64603   1.74468   0.09622
  64                   -0.66691   1.74110   0.11300
  65                   -0.68597   1.73852   0.12850
  66                   -0.70319   1.73704   0.14249
  67                   -0.71858   1.73669   0.15477
  68                   -0.73221   1.73750   0.16520
  69                   -0.74417   1.73942   0.17371
  70                   -0.75461   1.74236   0.18028
  71                   -0.76367   1.74621   0.18499
  72                   -0.77154   1.75086   0.18794
  73                   -0.77838   1.75620   0.18928
  74                   -0.78436   1.76210   0.18919
  75                   -0.78961   1.76848   0.18786
  76                   -0.79427   1.77524   0.18545
  77                   -0.79845   1.78231   0.18215
  78                   -0.80225   1.78962   0.17812
  79                   -0.80576   1.79713   0.17351
  80                   -0.80905   1.80477   0.16844
  81                   -0.81221   1.81252   0.16303
 --------------------------------------------------------------------------
 
 Total number of points:                   80
 Total number of gradient calculations:    81
 Total number of Hessian calculations:     81
 IRC-IRC-IRC-IRC-IRC-IRC-IRC-IRC-IRC-IRC-IRC-IRC-IRC-IRC-IRC-IRC-IRC-IRC
                          Input orientation:                          
 ---------------------------------------------------------------------
 Center     Atomic      Atomic             Coordinates (Angstroms)
 Number     Number       Type             X           Y           Z
 ---------------------------------------------------------------------
      1          6           0       -0.339870   -0.509257   -0.324389
      2          6           0        0.450697    0.718122    0.135458
      3          6           0        1.951120    0.547586    0.017098
      4          8           0       -1.595467   -0.648649    0.328765
      5          8           0       -2.435043    0.474578   -0.092035
      6          8           0        2.520263   -0.523741   -0.043550
      7          1           0       -3.214549   -0.015151   -0.410013
      8          1           0       -0.480652   -0.510342   -1.412943
      9          1           0        0.185570   -1.425653   -0.035700
     10          1           0        2.541113    1.489640    0.023706
     11          1           0        0.243942    0.898632    1.203053
     12          1           0        0.142050    1.630717   -0.388045
 ---------------------------------------------------------------------
                    Distance matrix (angstroms):
                    1          2          3          4          5
     1  C    0.000000
     2  C    1.530659   0.000000
     3  C    2.546010   1.514714   0.000000
     4  O    1.422169   2.468242   3.755848   0.000000
     5  O    2.326299   2.904921   4.388128   1.464104   0.000000
     6  O    2.873925   2.420201   1.214638   4.134423   5.055101
     7  H    2.918090   3.777467   5.213754   1.889058   0.973947
     8  H    1.097620   2.184967   3.012929   2.072556   2.556269
     9  H    1.095085   2.166878   2.648325   1.977034   3.237540
    10  H    3.523751   2.231046   1.111575   4.666544   5.079948
    11  H    2.157792   1.102312   2.108122   2.557711   3.005667
    12  H    2.194490   1.096425   2.147102   2.954368   2.840015
                    6          7          8          9         10
     6  O    0.000000
     7  H    5.768971   0.000000
     8  H    3.298622   2.953858   0.000000
     9  H    2.502858   3.700059   1.782819   0.000000
    10  H    2.014612   5.964910   3.898069   3.748472   0.000000
    11  H    2.959527   3.924046   3.058378   2.634429   2.648989
    12  H    3.227424   3.738465   2.454038   3.076920   2.438226
                   11         12
    11  H    0.000000
    12  H    1.754402   0.000000
 Symmetry turned off by external request.
 Stoichiometry    C3H6O3
 Framework group  C1[X(C3H6O3)]
 Deg. of freedom    30
 Full point group                 C1      NOp   1
 Rotational constants (GHZ):          11.8013708           1.6245934           1.4880725

 **********************************************************************

            Population analysis using the SCF Density.

 **********************************************************************

 Alpha  occ. eigenvalues --  -19.22690 -19.22394 -19.17411 -10.29883 -10.25440
 Alpha  occ. eigenvalues --  -10.21396  -1.13136  -1.06706  -0.93500  -0.78751
 Alpha  occ. eigenvalues --   -0.66800  -0.58652  -0.53903  -0.51162  -0.49742
 Alpha  occ. eigenvalues --   -0.45929  -0.45063  -0.44464  -0.40994  -0.38585
 Alpha  occ. eigenvalues --   -0.36254  -0.33298  -0.28389  -0.26986
 Alpha virt. eigenvalues --   -0.04769  -0.01247   0.00935   0.01060   0.03357
 Alpha virt. eigenvalues --    0.03961   0.05166   0.06797   0.07151   0.08772
 Alpha virt. eigenvalues --    0.09368   0.11340   0.12344   0.13076   0.15760
 Alpha virt. eigenvalues --    0.16777   0.17527   0.18507   0.19919   0.21889
 Alpha virt. eigenvalues --    0.22572   0.23133   0.24157   0.25182   0.25479
 Alpha virt. eigenvalues --    0.27650   0.28239   0.29645   0.30969   0.31520
 Alpha virt. eigenvalues --    0.33568   0.34165   0.35678   0.37763   0.38453
 Alpha virt. eigenvalues --    0.45159   0.62122   0.65020   0.66086   0.68610
 Alpha virt. eigenvalues --    0.69360   0.70751   0.76916   0.82113   0.87750
 Alpha virt. eigenvalues --    0.91359   0.93681   0.99612   1.02657   1.04554
 Alpha virt. eigenvalues --    1.04735   1.09205   1.10490   1.13525   1.17572
 Alpha virt. eigenvalues --    1.20612   1.22899   1.24740   1.25592   1.27354
 Alpha virt. eigenvalues --    1.30064   1.30777   1.40234   1.46714   1.48831
 Alpha virt. eigenvalues --    1.53545   1.56970   1.59644   1.64340   1.67070
 Alpha virt. eigenvalues --    1.69974   1.72786   1.77978   1.80022   1.85201
 Alpha virt. eigenvalues --    1.86584   1.93023   1.95476   1.98680   2.05672
 Alpha virt. eigenvalues --    2.08925   2.10123   2.25207   2.27034   2.31986
 Alpha virt. eigenvalues --    2.36923   2.45628   2.47217   2.54519   2.55837
 Alpha virt. eigenvalues --    2.57830   2.72356   2.85757   2.90023   3.05016
 Alpha virt. eigenvalues --    3.12651   3.98229   4.12624   4.18759   4.25282
 Alpha virt. eigenvalues --    4.35461   4.52799
          Condensed to atoms (all electrons):
               1          2          3          4          5          6
     1  C    5.332430  -0.126220   0.020962   0.162684  -0.072026   0.061068
     2  C   -0.126220   6.620462  -0.194705  -0.079269   0.009567  -0.202259
     3  C    0.020962  -0.194705   5.157888   0.033070   0.016702   0.471999
     4  O    0.162684  -0.079269   0.033070   8.092290   0.066054  -0.001464
     5  O   -0.072026   0.009567   0.016702   0.066054   8.331727  -0.001133
     6  O    0.061068  -0.202259   0.471999  -0.001464  -0.001133   8.096203
     7  H    0.003953   0.000232  -0.000065  -0.026368   0.182951   0.000001
     8  H    0.421870  -0.099998   0.024381  -0.045510   0.000963  -0.001319
     9  H    0.421087  -0.060326  -0.010889  -0.044805   0.008954   0.003994
    10  H    0.031807  -0.165396   0.405766  -0.000416  -0.000176  -0.063606
    11  H   -0.016858   0.333987  -0.007100  -0.000670  -0.000389  -0.003811
    12  H   -0.044464   0.381606  -0.032154  -0.000201   0.000837   0.004206
               7          8          9         10         11         12
     1  C    0.003953   0.421870   0.421087   0.031807  -0.016858  -0.044464
     2  C    0.000232  -0.099998  -0.060326  -0.165396   0.333987   0.381606
     3  C   -0.000065   0.024381  -0.010889   0.405766  -0.007100  -0.032154
     4  O   -0.026368  -0.045510  -0.044805  -0.000416  -0.000670  -0.000201
     5  O    0.182951   0.000963   0.008954  -0.000176  -0.000389   0.000837
     6  O    0.000001  -0.001319   0.003994  -0.063606  -0.003811   0.004206
     7  H    0.357153   0.001333  -0.000269  -0.000000   0.000008  -0.000013
     8  H    0.001333   0.527927  -0.028330  -0.000259   0.003294  -0.004768
     9  H   -0.000269  -0.028330   0.473531   0.000192  -0.001338   0.003489
    10  H   -0.000000  -0.000259   0.000192   0.626261   0.001140   0.002118
    11  H    0.000008   0.003294  -0.001338   0.001140   0.466490  -0.027085
    12  H   -0.000013  -0.004768   0.003489   0.002118  -0.027085   0.484400
 Mulliken charges:
               1
     1  C   -0.196294
     2  C   -0.417681
     3  C    0.114144
     4  O   -0.155396
     5  O   -0.544031
     6  O   -0.363878
     7  H    0.481083
     8  H    0.200415
     9  H    0.234709
    10  H    0.162567
    11  H    0.252332
    12  H    0.232028
 Sum of Mulliken charges =  -0.00000
 Mulliken charges with hydrogens summed into heavy atoms:
               1
     1  C    0.238831
     2  C    0.066679
     3  C    0.276711
     4  O   -0.155396
     5  O   -0.062947
     6  O   -0.363878
 APT charges:
               1
     1  C   -0.658096
     2  C   -0.612739
     3  C   -0.512290
     4  O   -0.142376
     5  O   -0.916232
     6  O   -0.206856
     7  H    0.825283
     8  H    0.412744
     9  H    0.427607
    10  H    0.525543
    11  H    0.420689
    12  H    0.436722
 Sum of APT charges =  -0.00000
 APT charges with hydrogens summed into heavy atoms:
               1
     1  C    0.182255
     2  C    0.244673
     3  C    0.013253
     4  O   -0.142376
     5  O   -0.090949
     6  O   -0.206856
 Electronic spatial extent (au):  <R**2>=            751.6956
 Charge=             -0.0000 electrons
 Dipole moment (field-independent basis, Debye):
    X=             -1.4370    Y=              1.4933    Z=             -1.0458  Tot=              2.3213
 Quadrupole moment (field-independent basis, Debye-Ang):
   XX=            -37.8170   YY=            -36.1272   ZZ=            -35.3210
   XY=              6.3067   XZ=              3.7351   YZ=              0.6845
 Traceless Quadrupole moment (field-independent basis, Debye-Ang):
   XX=             -1.3953   YY=              0.2945   ZZ=              1.1007
   XY=              6.3067   XZ=              3.7351   YZ=              0.6845
 Octapole moment (field-independent basis, Debye-Ang**2):
  XXX=            -57.2509  YYY=             -3.8663  ZZZ=              1.3743  XYY=              1.2962
  XXY=              6.0185  XXZ=             -8.0919  XZZ=             -1.2660  YZZ=             -1.2235
  YYZ=              0.1514  XYZ=             -1.1322
 Hexadecapole moment (field-independent basis, Debye-Ang**3):
 XXXX=           -652.6001 YYYY=           -132.7630 ZZZZ=            -57.3587 XXXY=             36.5434
 XXXZ=             32.2793 YYYX=             -6.7246 YYYZ=             -4.7492 ZZZX=              1.1337
 ZZZY=             -1.4632 XXYY=           -149.1734 XXZZ=           -128.8820 YYZZ=            -32.5540
 XXYZ=             -0.5065 YYXZ=              0.8969 ZZXY=             -2.1058
 N-N= 2.342559448427D+02 E-N=-1.273205311449D+03  KE= 3.403653356888D+02
  Exact polarizability:   0.000   0.000   0.000   0.000   0.000   0.000
 Approx polarizability:  72.946 -12.308  75.568   0.006  -0.835  53.018

 This type of calculation cannot be archived.


 NOBODY LOSES ALL THE TIME
 I HAD AN UNCLE NAMED
 SOL WHO WAS A BORN FAILURE AND
 NEARLY EVERYBODY SAID HE SHOULD HAVE GONE
 INTO VAUDEVILLE PERHAPS BECAUSE MY UNCLE SOL COULD
 SING MCCANN HE WAS A DIVER ON XMAS EVE LIKE HELL ITSELF WHICH
 MAY OR MAY NOT ACCOUNT FOR THE FACT THAT MY UNCLE
 SOL INDULGED IN THAT POSSIBLY MOST INEXCUSABLE
 OF ALL TO USE A HIGHFALOOTIN PHRASE
 LUXURIES THAT IS OR TO
 WIT FARMING AND BE
 IT NEEDLESSLY
 ADDED
 MY UNCLE SOL'S FARM     
 FAILED BECAUSE THE CHICKENS
 ATE THE VEGETABLES SO
 MY UNCLE SOL HAD A
 CHICKEN FARM TILL THE
 SKUNKS ATE THE CHICKENS WHEN 
 MY UNCLE SOL
 HAD A SKUNK FARM BUT
 THE SKUNKS CAUGHT COLD AND
 DIED AND SO
 MY UNCLE SOL IMITATED THE
 SKUNKS IN A SUBTLE MANNER
 OR BY DROWNING HIMSELF IN THE WATERTANK
 BUT SOMEBODY WHO'D GIVEN MY UNCLE SOL A VICTOR     
 VICTROLA AND RECORDS WHILE HE LIVED PRESENTED TO
 HIM UPON THE AUSPICIOUS OCCASION OF HIS DECEASE A
 SCRUMPTIOUS NOT TO MENTION SPLENDIFEROUS FUNERAL WITH
 TALL BOYS IN BLACK GLOVES AND FLOWERS AND EVERYTHING AND
 I REMEMBER WE ALL CRIED LIKE THE MISSOURI
 WHEN MY UNCLE SOL'S COFFIN LURCHED BECAUSE     
 SOMEBODY PRESSED A BUTTON
 (AND DOWN WENT
 MY UNCLE
 SOL
 AND STARTED A WORM FARM)
           E. E. CUMMINGS
 Job cpu time:       0 days  6 hours 11 minutes 27.0 seconds.
 Elapsed time:       0 days  0 hours 25 minutes 27.3 seconds.
 File lengths (MBytes):  RWF=     28 Int=      0 D2E=      0 Chk=      4 Scr=      1
 Normal termination of Gaussian 16 at Wed Dec 23 23:52:01 2020.
