 Entering Gaussian System, Link 0=g16
 Initial command:
 /apps/cent7/gaussian/g16-B.01/g16-haswell/g16/l1.exe "/scratch/bell/zhao922/YARP/paper-example/KHP-network/pp_0/IRC-folder/Gau-82504.inp" -scrdir="/scratch/bell/zhao922/YARP/paper-example/KHP-network/pp_0/IRC-folder/"
 Entering Link 1 = /apps/cent7/gaussian/g16-B.01/g16-haswell/g16/l1.exe PID=     82505.
  
 Copyright (c) 1988-2017, Gaussian, Inc.  All Rights Reserved.
  
 This is part of the Gaussian(R) 16 program.  It is based on
 the Gaussian(R) 09 system (copyright 2009, Gaussian, Inc.),
 the Gaussian(R) 03 system (copyright 2003, Gaussian, Inc.),
 the Gaussian(R) 98 system (copyright 1998, Gaussian, Inc.),
 the Gaussian(R) 94 system (copyright 1995, Gaussian, Inc.),
 the Gaussian 92(TM) system (copyright 1992, Gaussian, Inc.),
 the Gaussian 90(TM) system (copyright 1990, Gaussian, Inc.),
 the Gaussian 88(TM) system (copyright 1988, Gaussian, Inc.),
 the Gaussian 86(TM) system (copyright 1986, Carnegie Mellon
 University), and the Gaussian 82(TM) system (copyright 1983,
 Carnegie Mellon University). Gaussian is a federally registered
 trademark of Gaussian, Inc.
  
 This software contains proprietary and confidential information,
 including trade secrets, belonging to Gaussian, Inc.
  
 This software is provided under written license and may be
 used, copied, transmitted, or stored only in accord with that
 written license.
  
 The following legend is applicable only to US Government
 contracts under FAR:
  
                    RESTRICTED RIGHTS LEGEND
  
 Use, reproduction and disclosure by the US Government is
 subject to restrictions as set forth in subparagraphs (a)
 and (c) of the Commercial Computer Software - Restricted
 Rights clause in FAR 52.227-19.
  
 Gaussian, Inc.
 340 Quinnipiac St., Bldg. 40, Wallingford CT 06492
  
  
 ---------------------------------------------------------------
 Warning -- This program may not be used in any manner that
 competes with the business of Gaussian, Inc. or will provide
 assistance to any competitor of Gaussian, Inc.  The licensee
 of this program is prohibited from giving any competitor of
 Gaussian, Inc. access to this program.  By using this program,
 the user acknowledges that Gaussian, Inc. is engaged in the
 business of creating and licensing software in the field of
 computational chemistry and represents and warrants to the
 licensee that it is not a competitor of Gaussian, Inc. and that
 it will not use this program in any manner prohibited above.
 ---------------------------------------------------------------
  

 Cite this work as:
 Gaussian 16, Revision B.01,
 M. J. Frisch, G. W. Trucks, H. B. Schlegel, G. E. Scuseria, 
 M. A. Robb, J. R. Cheeseman, G. Scalmani, V. Barone, 
 G. A. Petersson, H. Nakatsuji, X. Li, M. Caricato, A. V. Marenich, 
 J. Bloino, B. G. Janesko, R. Gomperts, B. Mennucci, H. P. Hratchian, 
 J. V. Ortiz, A. F. Izmaylov, J. L. Sonnenberg, D. Williams-Young, 
 F. Ding, F. Lipparini, F. Egidi, J. Goings, B. Peng, A. Petrone, 
 T. Henderson, D. Ranasinghe, V. G. Zakrzewski, J. Gao, N. Rega, 
 G. Zheng, W. Liang, M. Hada, M. Ehara, K. Toyota, R. Fukuda, 
 J. Hasegawa, M. Ishida, T. Nakajima, Y. Honda, O. Kitao, H. Nakai, 
 T. Vreven, K. Throssell, J. A. Montgomery, Jr., J. E. Peralta, 
 F. Ogliaro, M. J. Bearpark, J. J. Heyd, E. N. Brothers, K. N. Kudin, 
 V. N. Staroverov, T. A. Keith, R. Kobayashi, J. Normand, 
 K. Raghavachari, A. P. Rendell, J. C. Burant, S. S. Iyengar, 
 J. Tomasi, M. Cossi, J. M. Millam, M. Klene, C. Adamo, R. Cammi, 
 J. W. Ochterski, R. L. Martin, K. Morokuma, O. Farkas, 
 J. B. Foresman, and D. J. Fox, Gaussian, Inc., Wallingford CT, 2016.
 
 ******************************************
 Gaussian 16:  ES64L-G16RevB.01 20-Dec-2017
                23-Dec-2020 
 ******************************************
 %NProcShared=16
 Will use up to   16 processors via shared memory.
 %Mem=6GB
 ----------------------------------------------------------------------
 # B3LYP/6-31+G* IRC=(CALCALL, maxpoints=40, StepSize=15, maxcyc=100, R
 eport=Cartesians)
 ----------------------------------------------------------------------
 1/6=100,10=4,18=10,26=3,38=1,39=15,42=40,44=3,71=1,129=10,172=1/1,23;
 2/12=2,17=6,18=5,29=1,40=1/2;
 3/5=1,6=6,7=11,11=2,25=1,30=1,71=2,74=-5,140=1/1,2,3;
 4//1;
 5/5=2,38=5/2;
 8/6=4,10=90,11=11/1;
 11/6=1,8=1,9=11,15=111,16=1/1,2,10;
 10/6=1,13=1/2;
 6/7=2,8=2,9=2,10=2,18=1,28=1/1;
 7/10=1,25=1/1,2,3,16;
 1/6=100,10=4,18=10,26=3,39=15,42=40,44=3,71=1,129=10/23(2);
 2/29=1/2;
 99/5=20/99;
 2/29=1/2;
 3/5=1,6=6,7=11,11=2,25=1,30=1,71=2,74=-5,140=1/1,2,3;
 4/5=5,16=3,69=1/1;
 5/5=2,38=5/2;
 8/6=4,10=90,11=11/1;
 11/6=1,8=1,9=11,15=111,16=1/1,2,10;
 10/6=1,13=1/2;
 7/10=1,25=1/1,2,3,16;
 1/6=100,10=4,18=10,26=3,39=15,42=40,44=3,71=1,129=10/23(-8);
 2/29=1/2;
 6/7=2,8=2,9=2,10=2,18=1,19=2,28=1/1;
 99/5=20/99;
 -----------
 pp_17_0 IRC
 -----------
 Symbolic Z-matrix:
 Charge =  0 Multiplicity = 1
 C                     0.72107   0.41034  -0.09067 
 C                    -0.88574  -0.95889  -0.21842 
 C                    -1.86221  -0.05088   0.41033 
 O                     1.23647  -0.75844   0.03691 
 O                     2.71939   0.50045  -0.04801 
 O                    -2.49374   0.79577  -0.20503 
 H                     2.99449   0.49244   0.89009 
 H                     0.57926   0.86516  -1.07373 
 H                     0.48842   1.02379   0.7845 
 H                    -1.99435  -0.16737   1.50503 
 H                    -0.68369  -1.8825    0.31735 
 H                    -0.91983  -1.0372   -1.30166 
 
 IRC-IRC-IRC-IRC-IRC-IRC-IRC-IRC-IRC-IRC-IRC-IRC-IRC-IRC-IRC-IRC-IRC-IRC
 ------------------------------------------------------------------------
 INPUT DATA FOR L123
 ------------------------------------------------------------------------
 GENERAL PARAMETERS:
 Follow reaction path in both directions.
 Maximum points per path      =  40
 Step size                    =   0.150 bohr
 Integration scheme           = HPC                                 
    Redo corrector integration= Yes                                 
    DWI Weight Power          =  2
    DWI will use Hessian update vectors when possible.
    Max correction cycles     = 100
 Initial Hessian              = CalcFC
 Hessian evaluation           = Analytic at all predictor steps
                              = Update at all corrector steps
 Hessian updating method      = Bofill                              
 ------------------------------------------------------------------------
 IRC-IRC-IRC-IRC-IRC-IRC-IRC-IRC-IRC-IRC-IRC-IRC-IRC-IRC-IRC-IRC-IRC-IRC
                          Input orientation:                          
 ---------------------------------------------------------------------
 Center     Atomic      Atomic             Coordinates (Angstroms)
 Number     Number       Type             X           Y           Z
 ---------------------------------------------------------------------
      1          6           0        0.721071    0.410339   -0.090672
      2          6           0       -0.885735   -0.958889   -0.218421
      3          6           0       -1.862208   -0.050882    0.410331
      4          8           0        1.236469   -0.758436    0.036914
      5          8           0        2.719389    0.500452   -0.048013
      6          8           0       -2.493744    0.795768   -0.205027
      7          1           0        2.994493    0.492435    0.890091
      8          1           0        0.579261    0.865159   -1.073727
      9          1           0        0.488419    1.023786    0.784497
     10          1           0       -1.994348   -0.167369    1.505026
     11          1           0       -0.683685   -1.882496    0.317353
     12          1           0       -0.919827   -1.037195   -1.301664
 ---------------------------------------------------------------------
                    Distance matrix (angstroms):
                    1          2          3          4          5
     1  C    0.000000
     2  C    2.114930   0.000000
     3  C    2.671528   1.474213   0.000000
     4  O    1.283724   2.146888   3.200292   0.000000
     5  O    2.000804   3.893024   4.637357   1.947065   0.000000
     6  O    3.239856   2.380062   1.222424   4.048280   5.223851
     7  H    2.477314   4.288509   4.910490   2.320181   0.977643
     8  H    1.092414   2.490966   3.000388   2.074007   2.401093
     9  H    1.093785   2.612498   2.611582   2.072384   2.438069
    10  H    3.202109   2.196770   1.108777   3.597623   5.007717
    11  H    2.719727   1.086705   2.179993   2.242576   4.170473
    12  H    2.500880   1.086605   2.189023   2.553255   4.144863
                    6          7          8          9         10
     6  O    0.000000
     7  H    5.604644   0.000000
     8  H    3.194184   3.135100   0.000000
     9  H    3.150309   2.563960   1.867193   0.000000
    10  H    2.025169   5.069716   3.786759   2.846427   0.000000
    11  H    3.274491   4.415577   3.328625   3.168363   2.463750
    12  H    2.653221   4.739774   2.432729   3.253132   3.128690
                   11         12
    11  H    0.000000
    12  H    1.841606   0.000000
 Symmetry turned off by external request.
 Stoichiometry    C3H6O3
 Framework group  C1[X(C3H6O3)]
 Deg. of freedom    30
 Full point group                 C1      NOp   1
 Rotational constants (GHZ):           9.5097872           1.5570576           1.4132779
 Standard basis: 6-31+G(d) (6D, 7F)
   126 basis functions,   216 primitive gaussians,   126 cartesian basis functions
    24 alpha electrons       24 beta electrons
       nuclear repulsion energy       227.0204581680 Hartrees.
 NAtoms=   12 NActive=   12 NUniq=   12 SFac= 1.00D+00 NAtFMM=   60 NAOKFM=F Big=F
 Integral buffers will be    131072 words long.
 Raffenetti 2 integral format.
 Two-electron integral symmetry is turned off.
 One-electron integrals computed using PRISM.
 NBasis=   126 RedAO= T EigKep=  1.63D-04  NBF=   126
 NBsUse=   126 1.00D-06 EigRej= -1.00D+00 NBFU=   126
 ExpMin= 4.38D-02 ExpMax= 5.48D+03 ExpMxC= 8.25D+02 IAcc=3 IRadAn=         5 AccDes= 0.00D+00
 Harris functional with IExCor=  402 and IRadAn=       5 diagonalized for initial guess.
 HarFok:  IExCor=  402 AccDes= 0.00D+00 IRadAn=         5 IDoV= 1 UseB2=F ITyADJ=14
 ICtDFT=  3500011 ScaDFX=  1.000000  1.000000  1.000000  1.000000
 FoFCou: FMM=F IPFlag=           0 FMFlag=      100000 FMFlg1=           0
         NFxFlg=           0 DoJE=T BraDBF=F KetDBF=T FulRan=T
         wScrn=  0.000000 ICntrl=       500 IOpCl=  0 I1Cent=   200000004 NGrid=           0
         NMat0=    1 NMatS0=      1 NMatT0=    0 NMatD0=    1 NMtDS0=    0 NMtDT0=    0
 Symmetry not used in FoFCou.
 Keep R1 ints in memory in canonical form, NReq=47237219.
 Requested convergence on RMS density matrix=1.00D-08 within 128 cycles.
 Requested convergence on MAX density matrix=1.00D-06.
 Requested convergence on             energy=1.00D-06.
 No special actions if energy rises.
 EnCoef did     1 forward-backward iterations
 EnCoef did     3 forward-backward iterations
 SCF Done:  E(RB3LYP) =  -343.390960114     A.U. after   16 cycles
            NFock= 16  Conv=0.42D-08     -V/T= 2.0092
 DoSCS=F DFT=T ScalE2(SS,OS)=  1.000000  1.000000
 Range of M.O.s used for correlation:     1   126
 NBasis=   126 NAE=    24 NBE=    24 NFC=     0 NFV=     0
 NROrb=    126 NOA=    24 NOB=    24 NVA=   102 NVB=   102

 **** Warning!!: The largest alpha MO coefficient is  0.31625415D+02

 Symmetrizing basis deriv contribution to polar:
 IMax=3 JMax=2 DiffMx= 0.00D+00
 G2DrvN: will do    13 centers at a time, making    1 passes.
 Calling FoFCou, ICntrl=  3107 FMM=F I1Cent=   0 AccDes= 0.00D+00.
 End of G2Drv F.D. properties file   721 does not exist.
 End of G2Drv F.D. properties file   722 does not exist.
 End of G2Drv F.D. properties file   788 does not exist.
          IDoAtm=111111111111
          Differentiating once with respect to nuclear coordinates.
 Keep R1 ints in memory in canonical form, NReq=47193241.
          There are    39 degrees of freedom in the 1st order CPHF.  IDoFFX=6 NUNeed=     0.
     33 vectors produced by pass  0 Test12= 6.28D-15 2.56D-09 XBig12= 4.32D-01 4.53D-01.
 AX will form    33 AO Fock derivatives at one time.
     33 vectors produced by pass  1 Test12= 6.28D-15 2.56D-09 XBig12= 2.36D-01 1.42D-01.
     33 vectors produced by pass  2 Test12= 6.28D-15 2.56D-09 XBig12= 2.90D-03 9.49D-03.
     33 vectors produced by pass  3 Test12= 6.28D-15 2.56D-09 XBig12= 2.05D-05 7.64D-04.
     33 vectors produced by pass  4 Test12= 6.28D-15 2.56D-09 XBig12= 3.65D-08 2.36D-05.
     31 vectors produced by pass  5 Test12= 6.28D-15 2.56D-09 XBig12= 3.19D-11 7.80D-07.
      4 vectors produced by pass  6 Test12= 6.28D-15 2.56D-09 XBig12= 3.15D-14 2.61D-08.
 InvSVY:  IOpt=1 It=  1 EMax= 1.89D-15
 Solved reduced A of dimension   200 with    33 vectors.
 End of Minotr F.D. properties file   721 does not exist.
 End of Minotr F.D. properties file   722 does not exist.
 End of Minotr F.D. properties file   788 does not exist.

 **********************************************************************

            Population analysis using the SCF Density.

 **********************************************************************

 Alpha  occ. eigenvalues --  -19.24970 -19.18279 -19.17112 -10.33594 -10.30925
 Alpha  occ. eigenvalues --  -10.26000  -1.10542  -1.07261  -0.95136  -0.77865
 Alpha  occ. eigenvalues --   -0.68377  -0.61125  -0.53711  -0.51553  -0.49729
 Alpha  occ. eigenvalues --   -0.49079  -0.46853  -0.43681  -0.42550  -0.40100
 Alpha  occ. eigenvalues --   -0.32813  -0.31235  -0.29186  -0.26212
 Alpha virt. eigenvalues --   -0.15382  -0.05586  -0.01678  -0.00060   0.01778
 Alpha virt. eigenvalues --    0.01971   0.02992   0.05183   0.06103   0.07200
 Alpha virt. eigenvalues --    0.07333   0.08214   0.11140   0.11715   0.13674
 Alpha virt. eigenvalues --    0.15826   0.17930   0.18612   0.18865   0.22511
 Alpha virt. eigenvalues --    0.22550   0.23234   0.23791   0.24461   0.25235
 Alpha virt. eigenvalues --    0.26195   0.26413   0.27647   0.29109   0.30151
 Alpha virt. eigenvalues --    0.31320   0.33433   0.36009   0.37107   0.38870
 Alpha virt. eigenvalues --    0.42619   0.59223   0.61816   0.64750   0.65949
 Alpha virt. eigenvalues --    0.70855   0.75764   0.77520   0.82712   0.83951
 Alpha virt. eigenvalues --    0.88942   0.91586   0.93576   0.99962   1.02408
 Alpha virt. eigenvalues --    1.05870   1.07386   1.12148   1.13813   1.16588
 Alpha virt. eigenvalues --    1.19888   1.20565   1.22115   1.23917   1.25863
 Alpha virt. eigenvalues --    1.27453   1.28552   1.35319   1.39196   1.45858
 Alpha virt. eigenvalues --    1.50117   1.54420   1.58410   1.61368   1.67591
 Alpha virt. eigenvalues --    1.70241   1.72929   1.77816   1.79497   1.80219
 Alpha virt. eigenvalues --    1.84010   1.89148   1.91488   1.92206   1.95547
 Alpha virt. eigenvalues --    2.01284   2.09457   2.13885   2.19282   2.24950
 Alpha virt. eigenvalues --    2.27350   2.36694   2.43413   2.52382   2.56145
 Alpha virt. eigenvalues --    2.57701   2.61229   2.68461   2.86717   2.93390
 Alpha virt. eigenvalues --    3.03367   4.04525   4.11221   4.19490   4.24733
 Alpha virt. eigenvalues --    4.30588   4.41486
          Condensed to atoms (all electrons):
               1          2          3          4          5          6
     1  C    5.132371   0.039672  -0.006141   0.197709   0.051718  -0.015814
     2  C    0.039672   6.042785   0.057770  -0.067875   0.044622  -0.140251
     3  C   -0.006141   0.057770   4.958057   0.011311  -0.007178   0.473285
     4  O    0.197709  -0.067875   0.011311   8.172576  -0.143971   0.000012
     5  O    0.051718   0.044622  -0.007178  -0.143971   8.620445  -0.000901
     6  O   -0.015814  -0.140251   0.473285   0.000012  -0.000901   8.089244
     7  H    0.005240  -0.001126  -0.000718   0.010011   0.164579   0.000039
     8  H    0.371204   0.006159  -0.027282  -0.030574  -0.024253   0.003127
     9  H    0.374061  -0.062805   0.037908  -0.049808  -0.025443  -0.000915
    10  H    0.002150  -0.122593   0.394420   0.000781   0.000043  -0.059407
    11  H   -0.008161   0.353491  -0.023623  -0.015922  -0.001172   0.005355
    12  H   -0.009626   0.379838  -0.048742  -0.005327  -0.001048   0.000257
               7          8          9         10         11         12
     1  C    0.005240   0.371204   0.374061   0.002150  -0.008161  -0.009626
     2  C   -0.001126   0.006159  -0.062805  -0.122593   0.353491   0.379838
     3  C   -0.000718  -0.027282   0.037908   0.394420  -0.023623  -0.048742
     4  O    0.010011  -0.030574  -0.049808   0.000781  -0.015922  -0.005327
     5  O    0.164579  -0.024253  -0.025443   0.000043  -0.001172  -0.001048
     6  O    0.000039   0.003127  -0.000915  -0.059407   0.005355   0.000257
     7  H    0.376442   0.000818   0.000610  -0.000001   0.000036  -0.000003
     8  H    0.000818   0.510192  -0.054328   0.000159   0.000859  -0.000302
     9  H    0.000610  -0.054328   0.563614  -0.000061  -0.000117   0.000562
    10  H   -0.000001   0.000159  -0.000061   0.602662   0.003092   0.003191
    11  H    0.000036   0.000859  -0.000117   0.003092   0.460375  -0.021435
    12  H   -0.000003  -0.000302   0.000562   0.003191  -0.021435   0.436910
 Mulliken charges:
               1
     1  C   -0.134384
     2  C   -0.529687
     3  C    0.180933
     4  O   -0.078923
     5  O   -0.677440
     6  O   -0.354031
     7  H    0.444073
     8  H    0.244223
     9  H    0.216723
    10  H    0.175564
    11  H    0.247221
    12  H    0.265726
 Sum of Mulliken charges =   0.00000
 Mulliken charges with hydrogens summed into heavy atoms:
               1
     1  C    0.326563
     2  C   -0.016740
     3  C    0.356498
     4  O   -0.078923
     5  O   -0.233367
     6  O   -0.354031
 APT charges:
               1
     1  C   -0.493073
     2  C   -0.848111
     3  C   -0.371880
     4  O   -0.110936
     5  O   -0.874835
     6  O   -0.176241
     7  H    0.634549
     8  H    0.448634
     9  H    0.409864
    10  H    0.438166
    11  H    0.482004
    12  H    0.461860
 Sum of APT charges =  -0.00000
 APT charges with hydrogens summed into heavy atoms:
               1
     1  C    0.365425
     2  C    0.095753
     3  C    0.066286
     4  O   -0.110936
     5  O   -0.240286
     6  O   -0.176241
 Electronic spatial extent (au):  <R**2>=            795.5922
 Charge=              0.0000 electrons
 Dipole moment (field-independent basis, Debye):
    X=             -0.8952    Y=             -1.2063    Z=              2.2029  Tot=              2.6664
 Quadrupole moment (field-independent basis, Debye-Ang):
   XX=            -49.9888   YY=            -37.0453   ZZ=            -32.7980
   XY=              5.5994   XZ=              2.6042   YZ=              1.3738
 Traceless Quadrupole moment (field-independent basis, Debye-Ang):
   XX=            -10.0448   YY=              2.8987   ZZ=              7.1461
   XY=              5.5994   XZ=              2.6042   YZ=              1.3738
 Octapole moment (field-independent basis, Debye-Ang**2):
  XXX=              9.0967  YYY=             -2.8075  ZZZ=              0.8006  XYY=              1.8957
  XXY=            -12.7659  XXZ=             22.3864  XZZ=              4.2394  YZZ=              1.1214
  YYZ=              1.0986  XYZ=              1.4298
 Hexadecapole moment (field-independent basis, Debye-Ang**3):
 XXXX=           -865.3900 YYYY=           -144.3805 ZZZZ=            -64.4645 XXXY=             18.6033
 XXXZ=             43.9229 YYYX=             -1.9565 YYYZ=             -1.5826 ZZZX=              5.3670
 ZZZY=              2.1978 XXYY=           -168.4824 XXZZ=           -124.3168 YYZZ=            -34.9260
 XXYZ=              9.8492 YYXZ=              2.1741 ZZXY=              2.9691
 N-N= 2.270204581680D+02 E-N=-1.258137628634D+03  KE= 3.402464183758D+02
  Exact polarizability:   0.000   0.000   0.000   0.000   0.000   0.000
 Approx polarizability: 385.728  56.043  95.973  11.350  -4.016  62.920
 Calling FoFJK, ICntrl=    100127 FMM=F ISym2X=0 I1Cent= 0 IOpClX= 0 NMat=1 NMatS=1 NMatT=0.
 -------------------------------------------------------------------
 Center     Atomic                   Forces (Hartrees/Bohr)
 Number     Number              X              Y              Z
 -------------------------------------------------------------------
      1        6           0.000000497   -0.000000582   -0.000000137
      2        6          -0.000000302    0.000000309    0.000000504
      3        6          -0.000000254    0.000000487   -0.000000059
      4        8          -0.000000224    0.000000435   -0.000000347
      5        8          -0.000000287   -0.000000083   -0.000000689
      6        8           0.000000461   -0.000000467    0.000001069
      7        1           0.000000273   -0.000000404    0.000000419
      8        1          -0.000000057    0.000000485    0.000000039
      9        1          -0.000000018   -0.000000199    0.000000611
     10        1           0.000000133   -0.000000383   -0.000000123
     11        1          -0.000000002   -0.000000060   -0.000000633
     12        1          -0.000000220    0.000000462   -0.000000654
 -------------------------------------------------------------------
 Cartesian Forces:  Max     0.000001069 RMS     0.000000415
 IRC-IRC-IRC-IRC-IRC-IRC-IRC-IRC-IRC-IRC-IRC-IRC-IRC-IRC-IRC-IRC-IRC-IRC
          ******** Start new reaction path calculation ********
 Supplied step size of   0.1500 bohr.
    Integration on MW PES will use step size of   0.4560 sqrt(amu)*bohr.
 Point Number:   0          Path Number:   1
 Calculating another point on the path.
 IRC-IRC-IRC-IRC-IRC-IRC-IRC-IRC-IRC-IRC-IRC-IRC-IRC-IRC-IRC-IRC-IRC-IRC
                          Input orientation:                          
 ---------------------------------------------------------------------
 Center     Atomic      Atomic             Coordinates (Angstroms)
 Number     Number       Type             X           Y           Z
 ---------------------------------------------------------------------
      1          6           0        0.678464    0.384080   -0.080827
      2          6           0       -0.878203   -0.953325   -0.206999
      3          6           0       -1.860952   -0.058274    0.421928
      4          8           0        1.273136   -0.751765    0.050064
      5          8           0        2.730955    0.481075   -0.033703
      6          8           0       -2.490426    0.789295   -0.192387
      7          1           0        3.016968    0.465175    0.901421
      8          1           0        0.577270    0.853778   -1.062407
      9          1           0        0.485111    1.011963    0.794461
     10          1           0       -1.988948   -0.173353    1.517889
     11          1           0       -0.652249   -1.869760    0.334553
     12          1           0       -0.924823   -1.046679   -1.288986
 ---------------------------------------------------------------------
                    Distance matrix (angstroms):
                    1          2          3          4          5
     1  C    0.000000
     2  C    2.056157   0.000000
     3  C    2.626227   1.470531   0.000000
     4  O    1.288763   2.175998   3.231365   0.000000
     5  O    2.055322   3.887616   4.645870   1.911059   0.000000
     6  O    3.196641   2.374069   1.221472   4.074071   5.232878
     7  H    2.537713   4.291047   4.929301   2.290567   0.978015
     8  H    1.092866   2.473003   2.996667   2.073545   2.415677
     9  H    1.094419   2.593049   2.605417   2.070229   2.451839
    10  H    3.159384   2.194846   1.109394   3.623570   5.011307
    11  H    2.650119   1.088204   2.179468   2.244539   4.136195
    12  H    2.465208   1.087007   2.186437   2.590571   4.156258
                    6          7          8          9         10
     6  O    0.000000
     7  H    5.624310   0.000000
     8  H    3.189335   3.155908   0.000000
     9  H    3.142813   2.592434   1.865871   0.000000
    10  H    2.025639   5.083988   3.781322   2.837127   0.000000
    11  H    3.275231   4.385933   3.298617   3.132001   2.462691
    12  H    2.650367   4.756186   2.432974   3.250642   3.126277
                   11         12
    11  H    0.000000
    12  H    1.840554   0.000000
 Symmetry turned off by external request.
 Stoichiometry    C3H6O3
 Framework group  C1[X(C3H6O3)]
 Deg. of freedom    30
 Full point group                 C1      NOp   1
 Rotational constants (GHZ):           9.7186115           1.5503023           1.4121929
 Standard basis: 6-31+G(d) (6D, 7F)
   126 basis functions,   216 primitive gaussians,   126 cartesian basis functions
    24 alpha electrons       24 beta electrons
       nuclear repulsion energy       227.2220013312 Hartrees.
 NAtoms=   12 NActive=   12 NUniq=   12 SFac= 1.00D+00 NAtFMM=   60 NAOKFM=F Big=F
 Integral buffers will be    131072 words long.
 Raffenetti 2 integral format.
 Two-electron integral symmetry is turned off.
 One-electron integrals computed using PRISM.
 NBasis=   126 RedAO= T EigKep=  1.61D-04  NBF=   126
 NBsUse=   126 1.00D-06 EigRej= -1.00D+00 NBFU=   126
 Initial guess from the checkpoint file:  "/scratch/bell/zhao922/YARP/paper-example/KHP-network/pp_0/IRC-folder/Gau-82505.chk"
 B after Tr=     0.010177   -0.014769    0.023359
         Rot=    1.000000    0.000062   -0.000068    0.000043 Ang=   0.01 deg.
 ExpMin= 4.38D-02 ExpMax= 5.48D+03 ExpMxC= 8.25D+02 IAcc=3 IRadAn=         5 AccDes= 0.00D+00
 Harris functional with IExCor=  402 and IRadAn=       5 diagonalized for initial guess.
 HarFok:  IExCor=  402 AccDes= 0.00D+00 IRadAn=         5 IDoV= 1 UseB2=F ITyADJ=14
 ICtDFT=  3500011 ScaDFX=  1.000000  1.000000  1.000000  1.000000
 FoFCou: FMM=F IPFlag=           0 FMFlag=      100000 FMFlg1=           0
         NFxFlg=           0 DoJE=T BraDBF=F KetDBF=T FulRan=T
         wScrn=  0.000000 ICntrl=       500 IOpCl=  0 I1Cent=   200000004 NGrid=           0
         NMat0=    1 NMatS0=      1 NMatT0=    0 NMatD0=    1 NMtDS0=    0 NMtDT0=    0
 Symmetry not used in FoFCou.
 Keep R1 ints in memory in canonical form, NReq=47237219.
 Requested convergence on RMS density matrix=1.00D-08 within 128 cycles.
 Requested convergence on MAX density matrix=1.00D-06.
 Requested convergence on             energy=1.00D-06.
 No special actions if energy rises.
 SCF Done:  E(RB3LYP) =  -343.393998627     A.U. after   14 cycles
            NFock= 14  Conv=0.57D-08     -V/T= 2.0093
 DoSCS=F DFT=T ScalE2(SS,OS)=  1.000000  1.000000
 Range of M.O.s used for correlation:     1   126
 NBasis=   126 NAE=    24 NBE=    24 NFC=     0 NFV=     0
 NROrb=    126 NOA=    24 NOB=    24 NVA=   102 NVB=   102

 **** Warning!!: The largest alpha MO coefficient is  0.31530916D+02

 Symmetrizing basis deriv contribution to polar:
 IMax=3 JMax=2 DiffMx= 0.00D+00
 G2DrvN: will do    13 centers at a time, making    1 passes.
 Calling FoFCou, ICntrl=  3107 FMM=F I1Cent=   0 AccDes= 0.00D+00.
 End of G2Drv F.D. properties file   721 does not exist.
 End of G2Drv F.D. properties file   722 does not exist.
 End of G2Drv F.D. properties file   788 does not exist.
          IDoAtm=111111111111
          Differentiating once with respect to nuclear coordinates.
 Keep R1 ints in memory in canonical form, NReq=47193241.
          There are    39 degrees of freedom in the 1st order CPHF.  IDoFFX=6 NUNeed=     0.
     33 vectors produced by pass  0 Test12= 6.28D-15 2.56D-09 XBig12= 3.73D-01 3.88D-01.
 AX will form    33 AO Fock derivatives at one time.
     33 vectors produced by pass  1 Test12= 6.28D-15 2.56D-09 XBig12= 1.66D-01 1.11D-01.
     33 vectors produced by pass  2 Test12= 6.28D-15 2.56D-09 XBig12= 2.80D-03 9.00D-03.
     33 vectors produced by pass  3 Test12= 6.28D-15 2.56D-09 XBig12= 2.00D-05 8.88D-04.
     33 vectors produced by pass  4 Test12= 6.28D-15 2.56D-09 XBig12= 3.52D-08 2.54D-05.
     31 vectors produced by pass  5 Test12= 6.28D-15 2.56D-09 XBig12= 3.57D-11 7.42D-07.
      4 vectors produced by pass  6 Test12= 6.28D-15 2.56D-09 XBig12= 3.78D-14 3.22D-08.
 InvSVY:  IOpt=1 It=  1 EMax= 1.78D-15
 Solved reduced A of dimension   200 with    33 vectors.
 End of Minotr F.D. properties file   721 does not exist.
 End of Minotr F.D. properties file   722 does not exist.
 End of Minotr F.D. properties file   788 does not exist.
 Calling FoFJK, ICntrl=    100127 FMM=F ISym2X=0 I1Cent= 0 IOpClX= 0 NMat=1 NMatS=1 NMatT=0.
 -------------------------------------------------------------------
 Center     Atomic                   Forces (Hartrees/Bohr)
 Number     Number              X              Y              Z
 -------------------------------------------------------------------
      1        6          -0.029576009   -0.012679756   -0.001869105
      2        6           0.004158783    0.009167323   -0.000613692
      3        6          -0.003241635    0.000791346   -0.000313534
      4        8           0.026949541    0.013388998    0.000760332
      5        8           0.003129577   -0.010533905    0.001545824
      6        8          -0.001512934    0.000772403    0.000444448
      7        1           0.000603584   -0.001317682   -0.000128081
      8        1          -0.000351186   -0.000311658    0.000496036
      9        1          -0.000583308   -0.000475800   -0.000556305
     10        1          -0.000017705    0.000129355    0.000014972
     11        1           0.001108404    0.001234943    0.000056892
     12        1          -0.000667113   -0.000165567    0.000162212
 -------------------------------------------------------------------
 Cartesian Forces:  Max     0.029576009 RMS     0.007801422
 IRC-IRC-IRC-IRC-IRC-IRC-IRC-IRC-IRC-IRC-IRC-IRC-IRC-IRC-IRC-IRC-IRC-IRC
 Pt  1 Step number   1 out of a maximum of 100
 Modified Bulirsch-Stoer Extrapolation Cycles:
    EPS =    0.000010000000000
      PEZero:  N= 2 I= 1 D=  1.19D-03 Err=  2.36D-03
      PEZero:  N= 3 I= 2 D=  1.19D-03 Err=  1.57D-03
      PEZero:  N= 3 I= 1 D=  2.38D-03 Err=  7.04D-07
 Maximum DWI energy   std dev =  0.000026106 at pt     1
 Maximum DWI gradient std dev =  0.023191952 at pt    27
 CORRECTOR INTEGRATION CONVERGENCE:
   Recorrection delta-x convergence threshold:    0.010000
   Delta-x Convergence NOT Met
 IRC-IRC-IRC-IRC-IRC-IRC-IRC-IRC-IRC-IRC-IRC-IRC-IRC-IRC-IRC-IRC-IRC-IRC
                          Input orientation:                          
 ---------------------------------------------------------------------
 Center     Atomic      Atomic             Coordinates (Angstroms)
 Number     Number       Type             X           Y           Z
 ---------------------------------------------------------------------
      1          6           0        0.678809    0.383807   -0.080911
      2          6           0       -0.877168   -0.952953   -0.206980
      3          6           0       -1.861125   -0.058115    0.421992
      4          8           0        1.273179   -0.751594    0.050092
      5          8           0        2.730200    0.480897   -0.033760
      6          8           0       -2.490422    0.789223   -0.192351
      7          1           0        3.015554    0.463929    0.901426
      8          1           0        0.577578    0.853837   -1.061607
      9          1           0        0.484592    1.011497    0.793715
     10          1           0       -1.989151   -0.173237    1.517924
     11          1           0       -0.653210   -1.869814    0.334106
     12          1           0       -0.925178   -1.046903   -1.288742
 ---------------------------------------------------------------------
                    Distance matrix (angstroms):
                    1          2          3          4          5
     1  C    0.000000
     2  C    2.055208   0.000000
     3  C    2.626684   1.471228   0.000000
     4  O    1.288244   2.175000   3.231576   0.000000
     5  O    2.054229   3.885747   4.645267   1.910229   0.000000
     6  O    3.196999   2.374443   1.221235   4.074014   5.232123
     7  H    2.536096   4.288287   4.927919   2.288697   0.977900
     8  H    1.092219   2.472077   2.996664   2.072956   2.414401
     9  H    1.093931   2.591301   2.604734   2.069622   2.451327
    10  H    3.159838   2.195394   1.109374   3.623786   5.010777
    11  H    2.650532   1.087918   2.179228   2.245452   4.136258
    12  H    2.465474   1.086895   2.186392   2.590841   4.155832
                    6          7          8          9         10
     6  O    0.000000
     7  H    5.622983   0.000000
     8  H    3.189421   3.154244   0.000000
     9  H    3.142044   2.591756   1.864330   0.000000
    10  H    2.025499   5.082630   3.781132   2.836808   0.000000
    11  H    3.274597   4.384979   3.298656   3.131739   2.462628
    12  H    2.650173   4.754873   2.433656   3.249783   3.126132
                   11         12
    11  H    0.000000
    12  H    1.839778   0.000000
 Symmetry turned off by external request.
 Stoichiometry    C3H6O3
 Framework group  C1[X(C3H6O3)]
 Deg. of freedom    30
 Full point group                 C1      NOp   1
 Rotational constants (GHZ):           9.7234456           1.5506867           1.4125885
 Standard basis: 6-31+G(d) (6D, 7F)
   126 basis functions,   216 primitive gaussians,   126 cartesian basis functions
    24 alpha electrons       24 beta electrons
       nuclear repulsion energy       227.2641369966 Hartrees.
 NAtoms=   12 NActive=   12 NUniq=   12 SFac= 1.00D+00 NAtFMM=   60 NAOKFM=F Big=F
 Integral buffers will be    131072 words long.
 Raffenetti 2 integral format.
 Two-electron integral symmetry is turned off.
 One-electron integrals computed using PRISM.
 NBasis=   126 RedAO= T EigKep=  1.62D-04  NBF=   126
 NBsUse=   126 1.00D-06 EigRej= -1.00D+00 NBFU=   126
 Initial guess from the checkpoint file:  "/scratch/bell/zhao922/YARP/paper-example/KHP-network/pp_0/IRC-folder/Gau-82505.chk"
 B after Tr=    -0.000061   -0.000035   -0.000002
         Rot=    1.000000   -0.000013    0.000003    0.000007 Ang=  -0.00 deg.
 ExpMin= 4.38D-02 ExpMax= 5.48D+03 ExpMxC= 8.25D+02 IAcc=3 IRadAn=         5 AccDes= 0.00D+00
 Harris functional with IExCor=  402 and IRadAn=       5 diagonalized for initial guess.
 HarFok:  IExCor=  402 AccDes= 0.00D+00 IRadAn=         5 IDoV= 1 UseB2=F ITyADJ=14
 ICtDFT=  3500011 ScaDFX=  1.000000  1.000000  1.000000  1.000000
 FoFCou: FMM=F IPFlag=           0 FMFlag=      100000 FMFlg1=           0
         NFxFlg=           0 DoJE=T BraDBF=F KetDBF=T FulRan=T
         wScrn=  0.000000 ICntrl=       500 IOpCl=  0 I1Cent=   200000004 NGrid=           0
         NMat0=    1 NMatS0=      1 NMatT0=    0 NMatD0=    1 NMtDS0=    0 NMtDT0=    0
 Symmetry not used in FoFCou.
 Keep R1 ints in memory in canonical form, NReq=47237219.
 Requested convergence on RMS density matrix=1.00D-08 within 128 cycles.
 Requested convergence on MAX density matrix=1.00D-06.
 Requested convergence on             energy=1.00D-06.
 No special actions if energy rises.
 SCF Done:  E(RB3LYP) =  -343.394007720     A.U. after   10 cycles
            NFock= 10  Conv=0.74D-08     -V/T= 2.0092
 DoSCS=F DFT=T ScalE2(SS,OS)=  1.000000  1.000000
 Range of M.O.s used for correlation:     1   126
 NBasis=   126 NAE=    24 NBE=    24 NFC=     0 NFV=     0
 NROrb=    126 NOA=    24 NOB=    24 NVA=   102 NVB=   102

 **** Warning!!: The largest alpha MO coefficient is  0.31495143D+02

 Symmetrizing basis deriv contribution to polar:
 IMax=3 JMax=2 DiffMx= 0.00D+00
 Calling FoFJK, ICntrl=      2127 FMM=F ISym2X=0 I1Cent= 0 IOpClX= 0 NMat=1 NMatS=1 NMatT=0.
 -------------------------------------------------------------------
 Center     Atomic                   Forces (Hartrees/Bohr)
 Number     Number              X              Y              Z
 -------------------------------------------------------------------
      1        6          -0.029953967   -0.012447176   -0.001787687
      2        6           0.003681127    0.009425606   -0.000519707
      3        6          -0.002850839    0.000520873   -0.000340802
      4        8           0.027208020    0.012783178    0.000756032
      5        8           0.003224413   -0.010524928    0.001515895
      6        8          -0.001654830    0.000929314    0.000328059
      7        1           0.000670265   -0.001266042   -0.000047079
      8        1          -0.000361990   -0.000191732    0.000045113
      9        1          -0.000584792   -0.000304969   -0.000232673
     10        1          -0.000035119    0.000108682    0.000034050
     11        1           0.001255087    0.001089843    0.000193184
     12        1          -0.000597376   -0.000122648    0.000055615
 -------------------------------------------------------------------
 Cartesian Forces:  Max     0.029953967 RMS     0.007824258
 IRC-IRC-IRC-IRC-IRC-IRC-IRC-IRC-IRC-IRC-IRC-IRC-IRC-IRC-IRC-IRC-IRC-IRC
 Error in corrector energy =          -0.0000000866
 Magnitude of corrector gradient =     0.0469500218
 Magnitude of analytic gradient =      0.0469455501
 Magnitude of difference =             0.0000497067
 Angle between gradients (degrees)=    0.0604
 Pt  1 Step number   2 out of a maximum of 100
 Modified Bulirsch-Stoer Extrapolation Cycles:
    EPS =    0.000010000000000
      PEZero:  N= 2 I= 1 D=  1.19D-03 Err=  2.38D-03
      PEZero:  N= 3 I= 2 D=  1.19D-03 Err=  1.59D-03
      PEZero:  N= 3 I= 1 D=  2.38D-03 Err=  3.70D-07
 Maximum DWI energy   std dev =  0.000018236 at pt     1
 Maximum DWI gradient std dev =  0.057932681 at pt     1
 CORRECTOR INTEGRATION CONVERGENCE:
   Recorrection delta-x convergence threshold:    0.010000
   Delta-x Convergence Met
 Point Number:   1          Path Number:   1
   CHANGE IN THE REACTION COORDINATE =    0.45577
   NET REACTION COORDINATE UP TO THIS POINT =    0.45577
  # OF POINTS ALONG THE PATH =   1
  # OF STEPS =   2

 Calculating another point on the path.
 IRC-IRC-IRC-IRC-IRC-IRC-IRC-IRC-IRC-IRC-IRC-IRC-IRC-IRC-IRC-IRC-IRC-IRC
                          Input orientation:                          
 ---------------------------------------------------------------------
 Center     Atomic      Atomic             Coordinates (Angstroms)
 Number     Number       Type             X           Y           Z
 ---------------------------------------------------------------------
      1          6           0        0.632708    0.364463   -0.083803
      2          6           0       -0.870376   -0.937685   -0.207629
      3          6           0       -1.865519   -0.057242    0.421496
      4          8           0        1.305082   -0.736827    0.050977
      5          8           0        2.732847    0.468363   -0.032052
      6          8           0       -2.492430    0.790265   -0.191962
      7          1           0        3.026169    0.439603    0.900698
      8          1           0        0.571076    0.850185   -1.060936
      9          1           0        0.473186    1.005514    0.789313
     10          1           0       -1.990288   -0.171453    1.518513
     11          1           0       -0.630234   -1.849589    0.337544
     12          1           0       -0.935790   -1.048830   -1.287558
 ---------------------------------------------------------------------
                    Distance matrix (angstroms):
                    1          2          3          4          5
     1  C    0.000000
     2  C    1.992531   0.000000
     3  C    2.583467   1.470132   0.000000
     4  O    1.297340   2.199963   3.263714   0.000000
     5  O    2.103345   3.871823   4.650477   1.870265   0.000000
     6  O    3.155867   2.370046   1.219679   4.100260   5.237625
     7  H    2.589120   4.278828   4.940152   2.251256   0.978206
     8  H    1.092938   2.449978   2.992996   2.072130   2.424385
     9  H    1.094863   2.564190   2.595049   2.067109   2.463583
    10  H    3.120052   2.195650   1.109981   3.651406   5.012147
    11  H    2.583521   1.089244   2.178414   2.250735   4.101197
    12  H    2.430351   1.087603   2.183691   2.628789   4.163780
                    6          7          8          9         10
     6  O    0.000000
     7  H    5.636648   0.000000
     8  H    3.184930   3.169237   0.000000
     9  H    3.131152   2.617324   1.859336   0.000000
    10  H    2.025530   5.091161   3.775961   2.825895   0.000000
    11  H    3.273681   4.350497   3.269200   3.094066   2.461824
    12  H    2.646834   4.764558   2.434801   3.243290   3.123426
                   11         12
    11  H    0.000000
    12  H    1.837264   0.000000
 Symmetry turned off by external request.
 Stoichiometry    C3H6O3
 Framework group  C1[X(C3H6O3)]
 Deg. of freedom    30
 Full point group                 C1      NOp   1
 Rotational constants (GHZ):           9.9588271           1.5452894           1.4128720
 Standard basis: 6-31+G(d) (6D, 7F)
   126 basis functions,   216 primitive gaussians,   126 cartesian basis functions
    24 alpha electrons       24 beta electrons
       nuclear repulsion energy       227.5914866649 Hartrees.
 NAtoms=   12 NActive=   12 NUniq=   12 SFac= 1.00D+00 NAtFMM=   60 NAOKFM=F Big=F
 Integral buffers will be    131072 words long.
 Raffenetti 2 integral format.
 Two-electron integral symmetry is turned off.
 One-electron integrals computed using PRISM.
 NBasis=   126 RedAO= T EigKep=  1.61D-04  NBF=   126
 NBsUse=   126 1.00D-06 EigRej= -1.00D+00 NBFU=   126
 Initial guess from the checkpoint file:  "/scratch/bell/zhao922/YARP/paper-example/KHP-network/pp_0/IRC-folder/Gau-82505.chk"
 B after Tr=     0.000080   -0.000271    0.000016
         Rot=    1.000000    0.000012   -0.000051    0.000065 Ang=   0.01 deg.
 ExpMin= 4.38D-02 ExpMax= 5.48D+03 ExpMxC= 8.25D+02 IAcc=3 IRadAn=         5 AccDes= 0.00D+00
 Harris functional with IExCor=  402 and IRadAn=       5 diagonalized for initial guess.
 HarFok:  IExCor=  402 AccDes= 0.00D+00 IRadAn=         5 IDoV= 1 UseB2=F ITyADJ=14
 ICtDFT=  3500011 ScaDFX=  1.000000  1.000000  1.000000  1.000000
 FoFCou: FMM=F IPFlag=           0 FMFlag=      100000 FMFlg1=           0
         NFxFlg=           0 DoJE=T BraDBF=F KetDBF=T FulRan=T
         wScrn=  0.000000 ICntrl=       500 IOpCl=  0 I1Cent=   200000004 NGrid=           0
         NMat0=    1 NMatS0=      1 NMatT0=    0 NMatD0=    1 NMtDS0=    0 NMtDT0=    0
 Symmetry not used in FoFCou.
 Keep R1 ints in memory in canonical form, NReq=47237219.
 Requested convergence on RMS density matrix=1.00D-08 within 128 cycles.
 Requested convergence on MAX density matrix=1.00D-06.
 Requested convergence on             energy=1.00D-06.
 No special actions if energy rises.
 SCF Done:  E(RB3LYP) =  -343.402279224     A.U. after   13 cycles
            NFock= 13  Conv=0.95D-08     -V/T= 2.0093
 DoSCS=F DFT=T ScalE2(SS,OS)=  1.000000  1.000000
 Range of M.O.s used for correlation:     1   126
 NBasis=   126 NAE=    24 NBE=    24 NFC=     0 NFV=     0
 NROrb=    126 NOA=    24 NOB=    24 NVA=   102 NVB=   102

 **** Warning!!: The largest alpha MO coefficient is  0.31074681D+02

 Symmetrizing basis deriv contribution to polar:
 IMax=3 JMax=2 DiffMx= 0.00D+00
 G2DrvN: will do    13 centers at a time, making    1 passes.
 Calling FoFCou, ICntrl=  3107 FMM=F I1Cent=   0 AccDes= 0.00D+00.
 End of G2Drv F.D. properties file   721 does not exist.
 End of G2Drv F.D. properties file   722 does not exist.
 End of G2Drv F.D. properties file   788 does not exist.
          IDoAtm=111111111111
          Differentiating once with respect to nuclear coordinates.
 Keep R1 ints in memory in canonical form, NReq=47193241.
          There are    39 degrees of freedom in the 1st order CPHF.  IDoFFX=6 NUNeed=     0.
     33 vectors produced by pass  0 Test12= 6.28D-15 2.56D-09 XBig12= 2.93D-01 2.86D-01.
 AX will form    33 AO Fock derivatives at one time.
     33 vectors produced by pass  1 Test12= 6.28D-15 2.56D-09 XBig12= 1.34D-01 8.93D-02.
     33 vectors produced by pass  2 Test12= 6.28D-15 2.56D-09 XBig12= 2.24D-03 8.21D-03.
     33 vectors produced by pass  3 Test12= 6.28D-15 2.56D-09 XBig12= 1.47D-05 6.72D-04.
     33 vectors produced by pass  4 Test12= 6.28D-15 2.56D-09 XBig12= 2.73D-08 2.70D-05.
     30 vectors produced by pass  5 Test12= 6.28D-15 2.56D-09 XBig12= 2.86D-11 7.38D-07.
      5 vectors produced by pass  6 Test12= 6.28D-15 2.56D-09 XBig12= 2.96D-14 2.77D-08.
 InvSVY:  IOpt=1 It=  1 EMax= 1.44D-15
 Solved reduced A of dimension   200 with    33 vectors.
 End of Minotr F.D. properties file   721 does not exist.
 End of Minotr F.D. properties file   722 does not exist.
 End of Minotr F.D. properties file   788 does not exist.
 Calling FoFJK, ICntrl=    100127 FMM=F ISym2X=0 I1Cent= 0 IOpClX= 0 NMat=1 NMatS=1 NMatT=0.
 -------------------------------------------------------------------
 Center     Atomic                   Forces (Hartrees/Bohr)
 Number     Number              X              Y              Z
 -------------------------------------------------------------------
      1        6          -0.050219233   -0.022987938   -0.003567372
      2        6           0.009738189    0.018119893   -0.000793166
      3        6          -0.005375750    0.001200066   -0.000362447
      4        8           0.048106803    0.023626714    0.001277589
      5        8           0.001539477   -0.019611111    0.002519659
      6        8          -0.003134163    0.001493467    0.000642334
      7        1           0.000695096   -0.002424650   -0.000170565
      8        1          -0.000720433   -0.000512254    0.000588761
      9        1          -0.001342749   -0.000823267   -0.000731820
     10        1          -0.000172375    0.000179509    0.000038654
     11        1           0.001940227    0.001956412    0.000209810
     12        1          -0.001055091   -0.000216839    0.000348563
 -------------------------------------------------------------------
 Cartesian Forces:  Max     0.050219233 RMS     0.013760673
 IRC-IRC-IRC-IRC-IRC-IRC-IRC-IRC-IRC-IRC-IRC-IRC-IRC-IRC-IRC-IRC-IRC-IRC
 Pt  2 Step number   1 out of a maximum of 100
 Modified Bulirsch-Stoer Extrapolation Cycles:
    EPS =    0.000010000000000
      PEZero:  N= 2 I= 1 D=  2.37D-03 Err=  1.57D-04
      PEZero:  N= 3 I= 2 D=  2.37D-03 Err=  1.04D-04
      PEZero:  N= 3 I= 1 D=  4.75D-03 Err=  1.95D-07
 Maximum DWI energy   std dev =  0.000038785 at pt    27
 Maximum DWI gradient std dev =  0.012093902 at pt    24
 CORRECTOR INTEGRATION CONVERGENCE:
   Recorrection delta-x convergence threshold:    0.010000
   Delta-x Convergence Met
 Point Number:   2          Path Number:   1
   CHANGE IN THE REACTION COORDINATE =    0.45572
   NET REACTION COORDINATE UP TO THIS POINT =    0.91149
  # OF POINTS ALONG THE PATH =   2
  # OF STEPS =   1

 Calculating another point on the path.
 IRC-IRC-IRC-IRC-IRC-IRC-IRC-IRC-IRC-IRC-IRC-IRC-IRC-IRC-IRC-IRC-IRC-IRC
                          Input orientation:                          
 ---------------------------------------------------------------------
 Center     Atomic      Atomic             Coordinates (Angstroms)
 Number     Number       Type             X           Y           Z
 ---------------------------------------------------------------------
      1          6           0        0.589149    0.343972   -0.086966
      2          6           0       -0.860593   -0.920921   -0.208061
      3          6           0       -1.870270   -0.056148    0.421218
      4          8           0        1.337285   -0.721259    0.051828
      5          8           0        2.732437    0.455026   -0.030520
      6          8           0       -2.494615    0.791247   -0.191537
      7          1           0        3.031491    0.413522    0.900030
      8          1           0        0.563416    0.845843   -1.057921
      9          1           0        0.457839    0.996961    0.783131
     10          1           0       -1.992881   -0.169862    1.519064
     11          1           0       -0.610340   -1.829763    0.339942
     12          1           0       -0.946590   -1.050892   -1.285125
 ---------------------------------------------------------------------
                    Distance matrix (angstroms):
                    1          2          3          4          5
     1  C    0.000000
     2  C    1.927788   0.000000
     3  C    2.543047   1.470807   0.000000
     4  O    1.309080   2.222178   3.296548   0.000000
     5  O    2.146905   3.851572   4.652985   1.826711   0.000000
     6  O    3.117786   2.366816   1.217930   4.126786   5.240328
     7  H    2.635153   4.261093   4.947434   2.208507   0.978304
     8  H    1.093293   2.423122   2.987352   2.070320   2.431654
     9  H    1.095768   2.529624   2.580719   2.064100   2.475786
    10  H    3.083867   2.197528   1.110509   3.680602   5.012018
    11  H    2.519156   1.090380   2.177094   2.259433   4.065914
    12  H    2.395772   1.088280   2.180437   2.666869   4.168580
                    6          7          8          9         10
     6  O    0.000000
     7  H    5.645533   0.000000
     8  H    3.178862   3.179916   0.000000
     9  H    3.115972   2.641543   1.850259   0.000000
    10  H    2.025246   5.095866   3.769240   2.812313   0.000000
    11  H    3.271491   4.313810   3.238919   3.054143   2.461101
    12  H    2.643065   4.769123   2.435025   3.231688   3.120002
                   11         12
    11  H    0.000000
    12  H    1.833180   0.000000
 Symmetry turned off by external request.
 Stoichiometry    C3H6O3
 Framework group  C1[X(C3H6O3)]
 Deg. of freedom    30
 Full point group                 C1      NOp   1
 Rotational constants (GHZ):          10.2222682           1.5407894           1.4141113
 Standard basis: 6-31+G(d) (6D, 7F)
   126 basis functions,   216 primitive gaussians,   126 cartesian basis functions
    24 alpha electrons       24 beta electrons
       nuclear repulsion energy       228.0482441731 Hartrees.
 NAtoms=   12 NActive=   12 NUniq=   12 SFac= 1.00D+00 NAtFMM=   60 NAOKFM=F Big=F
 Integral buffers will be    131072 words long.
 Raffenetti 2 integral format.
 Two-electron integral symmetry is turned off.
 One-electron integrals computed using PRISM.
 NBasis=   126 RedAO= T EigKep=  1.61D-04  NBF=   126
 NBsUse=   126 1.00D-06 EigRej= -1.00D+00 NBFU=   126
 Initial guess from the checkpoint file:  "/scratch/bell/zhao922/YARP/paper-example/KHP-network/pp_0/IRC-folder/Gau-82505.chk"
 B after Tr=    -0.000215   -0.000380    0.000032
         Rot=    1.000000   -0.000018   -0.000036    0.000071 Ang=  -0.01 deg.
 ExpMin= 4.38D-02 ExpMax= 5.48D+03 ExpMxC= 8.25D+02 IAcc=3 IRadAn=         5 AccDes= 0.00D+00
 Harris functional with IExCor=  402 and IRadAn=       5 diagonalized for initial guess.
 HarFok:  IExCor=  402 AccDes= 0.00D+00 IRadAn=         5 IDoV= 1 UseB2=F ITyADJ=14
 ICtDFT=  3500011 ScaDFX=  1.000000  1.000000  1.000000  1.000000
 FoFCou: FMM=F IPFlag=           0 FMFlag=      100000 FMFlg1=           0
         NFxFlg=           0 DoJE=T BraDBF=F KetDBF=T FulRan=T
         wScrn=  0.000000 ICntrl=       500 IOpCl=  0 I1Cent=   200000004 NGrid=           0
         NMat0=    1 NMatS0=      1 NMatT0=    0 NMatD0=    1 NMtDS0=    0 NMtDT0=    0
 Symmetry not used in FoFCou.
 Keep R1 ints in memory in canonical form, NReq=47237219.
 Requested convergence on RMS density matrix=1.00D-08 within 128 cycles.
 Requested convergence on MAX density matrix=1.00D-06.
 Requested convergence on             energy=1.00D-06.
 No special actions if energy rises.
 SCF Done:  E(RB3LYP) =  -343.414261466     A.U. after   13 cycles
            NFock= 13  Conv=0.59D-08     -V/T= 2.0094
 DoSCS=F DFT=T ScalE2(SS,OS)=  1.000000  1.000000
 Range of M.O.s used for correlation:     1   126
 NBasis=   126 NAE=    24 NBE=    24 NFC=     0 NFV=     0
 NROrb=    126 NOA=    24 NOB=    24 NVA=   102 NVB=   102

 **** Warning!!: The largest alpha MO coefficient is  0.30299723D+02

 Symmetrizing basis deriv contribution to polar:
 IMax=3 JMax=2 DiffMx= 0.00D+00
 G2DrvN: will do    13 centers at a time, making    1 passes.
 Calling FoFCou, ICntrl=  3107 FMM=F I1Cent=   0 AccDes= 0.00D+00.
 End of G2Drv F.D. properties file   721 does not exist.
 End of G2Drv F.D. properties file   722 does not exist.
 End of G2Drv F.D. properties file   788 does not exist.
          IDoAtm=111111111111
          Differentiating once with respect to nuclear coordinates.
 Keep R1 ints in memory in canonical form, NReq=47193241.
          There are    39 degrees of freedom in the 1st order CPHF.  IDoFFX=6 NUNeed=     0.
     33 vectors produced by pass  0 Test12= 6.28D-15 2.56D-09 XBig12= 2.28D-01 1.86D-01.
 AX will form    33 AO Fock derivatives at one time.
     33 vectors produced by pass  1 Test12= 6.28D-15 2.56D-09 XBig12= 8.35D-02 7.66D-02.
     33 vectors produced by pass  2 Test12= 6.28D-15 2.56D-09 XBig12= 1.28D-03 6.60D-03.
     33 vectors produced by pass  3 Test12= 6.28D-15 2.56D-09 XBig12= 7.34D-06 5.15D-04.
     33 vectors produced by pass  4 Test12= 6.28D-15 2.56D-09 XBig12= 1.47D-08 1.66D-05.
     30 vectors produced by pass  5 Test12= 6.28D-15 2.56D-09 XBig12= 1.64D-11 6.88D-07.
      5 vectors produced by pass  6 Test12= 6.28D-15 2.56D-09 XBig12= 1.53D-14 2.01D-08.
 InvSVY:  IOpt=1 It=  1 EMax= 1.55D-15
 Solved reduced A of dimension   200 with    33 vectors.
 End of Minotr F.D. properties file   721 does not exist.
 End of Minotr F.D. properties file   722 does not exist.
 End of Minotr F.D. properties file   788 does not exist.
 Calling FoFJK, ICntrl=    100127 FMM=F ISym2X=0 I1Cent= 0 IOpClX= 0 NMat=1 NMatS=1 NMatT=0.
 -------------------------------------------------------------------
 Center     Atomic                   Forces (Hartrees/Bohr)
 Number     Number              X              Y              Z
 -------------------------------------------------------------------
      1        6          -0.060979690   -0.030799457   -0.004909695
      2        6           0.015937237    0.025340876   -0.000564138
      3        6          -0.007060747    0.001595381   -0.000210385
      4        8           0.062481367    0.031393605    0.001515563
      5        8          -0.003467858   -0.026661363    0.002971408
      6        8          -0.004542155    0.001981629    0.000787966
      7        1           0.000389416   -0.003235207   -0.000189177
      8        1          -0.001119010   -0.000706561    0.000731014
      9        1          -0.002176458   -0.001288015   -0.000941690
     10        1          -0.000423022    0.000165363    0.000048739
     11        1           0.002254635    0.002445735    0.000224370
     12        1          -0.001293716   -0.000231986    0.000536025
 -------------------------------------------------------------------
 Cartesian Forces:  Max     0.062481367 RMS     0.017734424
 IRC-IRC-IRC-IRC-IRC-IRC-IRC-IRC-IRC-IRC-IRC-IRC-IRC-IRC-IRC-IRC-IRC-IRC
 Pt  3 Step number   1 out of a maximum of 100
 Modified Bulirsch-Stoer Extrapolation Cycles:
    EPS =    0.000010000000000
      PEZero:  N= 2 I= 1 D=  2.37D-03 Err=  1.59D-04
      PEZero:  N= 3 I= 2 D=  2.37D-03 Err=  1.06D-04
      PEZero:  N= 3 I= 1 D=  4.75D-03 Err=  1.68D-07
 Maximum DWI energy   std dev =  0.000035020 at pt    19
 Maximum DWI gradient std dev =  0.007069472 at pt    35
 CORRECTOR INTEGRATION CONVERGENCE:
   Recorrection delta-x convergence threshold:    0.010000
   Delta-x Convergence Met
 Point Number:   3          Path Number:   1
   CHANGE IN THE REACTION COORDINATE =    0.45575
   NET REACTION COORDINATE UP TO THIS POINT =    1.36724
  # OF POINTS ALONG THE PATH =   3
  # OF STEPS =   1

 Calculating another point on the path.
 IRC-IRC-IRC-IRC-IRC-IRC-IRC-IRC-IRC-IRC-IRC-IRC-IRC-IRC-IRC-IRC-IRC-IRC
                          Input orientation:                          
 ---------------------------------------------------------------------
 Center     Atomic      Atomic             Coordinates (Angstroms)
 Number     Number       Type             X           Y           Z
 ---------------------------------------------------------------------
      1          6           0        0.548424    0.322538   -0.090375
      2          6           0       -0.848641   -0.902886   -0.208187
      3          6           0       -1.875158   -0.055018    0.421107
      4          8           0        1.369696   -0.704977    0.052576
      5          8           0        2.729250    0.440949   -0.029093
      6          8           0       -2.497073    0.792265   -0.191124
      7          1           0        3.033022    0.386893    0.899263
      8          1           0        0.553899    0.840597   -1.053726
      9          1           0        0.438758    0.985957    0.776175
     10          1           0       -1.997228   -0.168915    1.519483
     11          1           0       -0.592657   -1.810249    0.341807
     12          1           0       -0.956865   -1.052592   -1.281543
 ---------------------------------------------------------------------
                    Distance matrix (angstroms):
                    1          2          3          4          5
     1  C    0.000000
     2  C    1.862079   0.000000
     3  C    2.505576   1.472626   0.000000
     4  O    1.323145   2.242361   3.329765   0.000000
     5  O    2.184898   3.826131   4.652874   1.779946   0.000000
     6  O    3.083154   2.364562   1.216344   4.153676   5.240623
     7  H    2.675211   4.237604   4.951176   2.162340   0.978287
     8  H    1.093828   2.392026   2.979526   2.068388   2.437570
     9  H    1.096841   2.488794   2.562012   2.061432   2.488342
    10  H    3.051805   2.200638   1.110992   3.711517   5.010950
    11  H    2.457158   1.091479   2.175301   2.270706   4.029954
    12  H    2.361305   1.089137   2.176564   2.704366   4.169741
                    6          7          8          9         10
     6  O    0.000000
     7  H    5.651125   0.000000
     8  H    3.170937   3.188427   0.000000
     9  H    3.097141   2.665377   1.839273   0.000000
    10  H    2.024817   5.098726   3.761485   2.796474   0.000000
    11  H    3.268622   4.275948   3.207660   3.011853   2.460430
    12  H    2.639081   4.769406   2.432791   3.215221   3.115925
                   11         12
    11  H    0.000000
    12  H    1.828102   0.000000
 Symmetry turned off by external request.
 Stoichiometry    C3H6O3
 Framework group  C1[X(C3H6O3)]
 Deg. of freedom    30
 Full point group                 C1      NOp   1
 Rotational constants (GHZ):          10.5127049           1.5369639           1.4160755
 Standard basis: 6-31+G(d) (6D, 7F)
   126 basis functions,   216 primitive gaussians,   126 cartesian basis functions
    24 alpha electrons       24 beta electrons
       nuclear repulsion energy       228.6196388877 Hartrees.
 NAtoms=   12 NActive=   12 NUniq=   12 SFac= 1.00D+00 NAtFMM=   60 NAOKFM=F Big=F
 Integral buffers will be    131072 words long.
 Raffenetti 2 integral format.
 Two-electron integral symmetry is turned off.
 One-electron integrals computed using PRISM.
 NBasis=   126 RedAO= T EigKep=  1.62D-04  NBF=   126
 NBsUse=   126 1.00D-06 EigRej= -1.00D+00 NBFU=   126
 Initial guess from the checkpoint file:  "/scratch/bell/zhao922/YARP/paper-example/KHP-network/pp_0/IRC-folder/Gau-82505.chk"
 B after Tr=    -0.000465   -0.000467    0.000048
         Rot=    1.000000   -0.000041   -0.000025    0.000069 Ang=  -0.01 deg.
 ExpMin= 4.38D-02 ExpMax= 5.48D+03 ExpMxC= 8.25D+02 IAcc=3 IRadAn=         5 AccDes= 0.00D+00
 Harris functional with IExCor=  402 and IRadAn=       5 diagonalized for initial guess.
 HarFok:  IExCor=  402 AccDes= 0.00D+00 IRadAn=         5 IDoV= 1 UseB2=F ITyADJ=14
 ICtDFT=  3500011 ScaDFX=  1.000000  1.000000  1.000000  1.000000
 FoFCou: FMM=F IPFlag=           0 FMFlag=      100000 FMFlg1=           0
         NFxFlg=           0 DoJE=T BraDBF=F KetDBF=T FulRan=T
         wScrn=  0.000000 ICntrl=       500 IOpCl=  0 I1Cent=   200000004 NGrid=           0
         NMat0=    1 NMatS0=      1 NMatT0=    0 NMatD0=    1 NMtDS0=    0 NMtDT0=    0
 Symmetry not used in FoFCou.
 Keep R1 ints in memory in canonical form, NReq=47237219.
 Requested convergence on RMS density matrix=1.00D-08 within 128 cycles.
 Requested convergence on MAX density matrix=1.00D-06.
 Requested convergence on             energy=1.00D-06.
 No special actions if energy rises.
 SCF Done:  E(RB3LYP) =  -343.428548103     A.U. after   13 cycles
            NFock= 13  Conv=0.40D-08     -V/T= 2.0095
 DoSCS=F DFT=T ScalE2(SS,OS)=  1.000000  1.000000
 Range of M.O.s used for correlation:     1   126
 NBasis=   126 NAE=    24 NBE=    24 NFC=     0 NFV=     0
 NROrb=    126 NOA=    24 NOB=    24 NVA=   102 NVB=   102

 **** Warning!!: The largest alpha MO coefficient is  0.29108724D+02

 Symmetrizing basis deriv contribution to polar:
 IMax=3 JMax=2 DiffMx= 0.00D+00
 G2DrvN: will do    13 centers at a time, making    1 passes.
 Calling FoFCou, ICntrl=  3107 FMM=F I1Cent=   0 AccDes= 0.00D+00.
 End of G2Drv F.D. properties file   721 does not exist.
 End of G2Drv F.D. properties file   722 does not exist.
 End of G2Drv F.D. properties file   788 does not exist.
          IDoAtm=111111111111
          Differentiating once with respect to nuclear coordinates.
 Keep R1 ints in memory in canonical form, NReq=47193241.
          There are    39 degrees of freedom in the 1st order CPHF.  IDoFFX=6 NUNeed=     0.
     33 vectors produced by pass  0 Test12= 6.28D-15 2.56D-09 XBig12= 1.82D-01 1.59D-01.
 AX will form    33 AO Fock derivatives at one time.
     33 vectors produced by pass  1 Test12= 6.28D-15 2.56D-09 XBig12= 3.43D-02 4.31D-02.
     33 vectors produced by pass  2 Test12= 6.28D-15 2.56D-09 XBig12= 5.42D-04 3.66D-03.
     33 vectors produced by pass  3 Test12= 6.28D-15 2.56D-09 XBig12= 3.12D-06 3.21D-04.
     33 vectors produced by pass  4 Test12= 6.28D-15 2.56D-09 XBig12= 5.63D-09 1.20D-05.
     29 vectors produced by pass  5 Test12= 6.28D-15 2.56D-09 XBig12= 6.54D-12 4.38D-07.
      5 vectors produced by pass  6 Test12= 6.28D-15 2.56D-09 XBig12= 6.13D-15 1.15D-08.
 InvSVY:  IOpt=1 It=  1 EMax= 1.55D-15
 Solved reduced A of dimension   199 with    33 vectors.
 End of Minotr F.D. properties file   721 does not exist.
 End of Minotr F.D. properties file   722 does not exist.
 End of Minotr F.D. properties file   788 does not exist.
 Calling FoFJK, ICntrl=    100127 FMM=F ISym2X=0 I1Cent= 0 IOpClX= 0 NMat=1 NMatS=1 NMatT=0.
 -------------------------------------------------------------------
 Center     Atomic                   Forces (Hartrees/Bohr)
 Number     Number              X              Y              Z
 -------------------------------------------------------------------
      1        6          -0.063826931   -0.036065721   -0.005918493
      2        6           0.021041079    0.030441013   -0.000123299
      3        6          -0.008070651    0.001816473    0.000002914
      4        8           0.070702712    0.036793908    0.001441948
      5        8          -0.009846990   -0.031622026    0.003182407
      6        8          -0.005765869    0.002335510    0.000840859
      7        1          -0.000006458   -0.003647824   -0.000239732
      8        1          -0.001511357   -0.000880458    0.000870474
      9        1          -0.002912874   -0.001745349   -0.001068355
     10        1          -0.000741458    0.000069581    0.000031754
     11        1           0.002278912    0.002687525    0.000217328
     12        1          -0.001340114   -0.000182631    0.000762195
 -------------------------------------------------------------------
 Cartesian Forces:  Max     0.070702712 RMS     0.019995800
 IRC-IRC-IRC-IRC-IRC-IRC-IRC-IRC-IRC-IRC-IRC-IRC-IRC-IRC-IRC-IRC-IRC-IRC
 Pt  4 Step number   1 out of a maximum of 100
 Modified Bulirsch-Stoer Extrapolation Cycles:
    EPS =    0.000010000000000
      PEZero:  N= 2 I= 1 D=  2.37D-03 Err=  1.53D-04
      PEZero:  N= 3 I= 2 D=  2.37D-03 Err=  1.02D-04
      PEZero:  N= 3 I= 1 D=  4.75D-03 Err=  1.85D-07
 Maximum DWI energy   std dev =  0.000031713 at pt    29
 Maximum DWI gradient std dev =  0.005236618 at pt    47
 CORRECTOR INTEGRATION CONVERGENCE:
   Recorrection delta-x convergence threshold:    0.010000
   Delta-x Convergence Met
 Point Number:   4          Path Number:   1
   CHANGE IN THE REACTION COORDINATE =    0.45576
   NET REACTION COORDINATE UP TO THIS POINT =    1.82299
  # OF POINTS ALONG THE PATH =   4
  # OF STEPS =   1

 Calculating another point on the path.
 IRC-IRC-IRC-IRC-IRC-IRC-IRC-IRC-IRC-IRC-IRC-IRC-IRC-IRC-IRC-IRC-IRC-IRC
                          Input orientation:                          
 ---------------------------------------------------------------------
 Center     Atomic      Atomic             Coordinates (Angstroms)
 Number     Number       Type             X           Y           Z
 ---------------------------------------------------------------------
      1          6           0        0.510829    0.300237   -0.094028
      2          6           0       -0.835018   -0.883824   -0.207989
      3          6           0       -1.880117   -0.053877    0.421132
      4          8           0        1.402214   -0.687906    0.053173
      5          8           0        2.723425    0.426128   -0.027710
      6          8           0       -2.499859    0.793342   -0.190735
      7          1           0        3.031888    0.360521    0.898152
      8          1           0        0.542379    0.834523   -1.048637
      9          1           0        0.416429    0.972536    0.768876
     10          1           0       -2.003643   -0.168975    1.519651
     11          1           0       -0.576863   -1.791020    0.343400
     12          1           0       -0.966213   -1.053713   -1.276737
 ---------------------------------------------------------------------
                    Distance matrix (angstroms):
                    1          2          3          4          5
     1  C    0.000000
     2  C    1.796188   0.000000
     3  C    2.471317   1.475411   0.000000
     4  O    1.338904   2.260928   3.363195   0.000000
     5  O    2.217167   3.796181   4.650211   1.730091   0.000000
     6  O    3.052335   2.363235   1.215007   4.180880   5.238714
     7  H    2.709943   4.210095   4.952480   2.114007   0.978097
     8  H    1.094411   2.357250   2.969506   2.066662   2.442548
     9  H    1.097953   2.442633   2.539404   2.059386   2.501069
    10  H    3.024349   2.204866   1.111417   3.744289   5.009355
    11  H    2.397451   1.092556   2.173057   2.284258   3.993165
    12  H    2.326721   1.090090   2.172015   2.740788   4.166944
                    6          7          8          9         10
     6  O    0.000000
     7  H    5.654488   0.000000
     8  H    3.161156   3.195672   0.000000
     9  H    3.075337   2.689219   1.827093   0.000000
    10  H    2.024279   5.101293   3.753044   2.779111   0.000000
    11  H    3.265293   4.237919   3.175523   2.967305   2.459734
    12  H    2.634973   4.766026   2.427615   3.194044   3.111077
                   11         12
    11  H    0.000000
    12  H    1.822103   0.000000
 Symmetry turned off by external request.
 Stoichiometry    C3H6O3
 Framework group  C1[X(C3H6O3)]
 Deg. of freedom    30
 Full point group                 C1      NOp   1
 Rotational constants (GHZ):          10.8309821           1.5336889           1.4186289
 Standard basis: 6-31+G(d) (6D, 7F)
   126 basis functions,   216 primitive gaussians,   126 cartesian basis functions
    24 alpha electrons       24 beta electrons
       nuclear repulsion energy       229.3107153730 Hartrees.
 NAtoms=   12 NActive=   12 NUniq=   12 SFac= 1.00D+00 NAtFMM=   60 NAOKFM=F Big=F
 Integral buffers will be    131072 words long.
 Raffenetti 2 integral format.
 Two-electron integral symmetry is turned off.
 One-electron integrals computed using PRISM.
 NBasis=   126 RedAO= T EigKep=  1.62D-04  NBF=   126
 NBsUse=   126 1.00D-06 EigRej= -1.00D+00 NBFU=   126
 Initial guess from the checkpoint file:  "/scratch/bell/zhao922/YARP/paper-example/KHP-network/pp_0/IRC-folder/Gau-82505.chk"
 B after Tr=    -0.000679   -0.000539    0.000066
         Rot=    1.000000   -0.000064   -0.000015    0.000064 Ang=  -0.01 deg.
 ExpMin= 4.38D-02 ExpMax= 5.48D+03 ExpMxC= 8.25D+02 IAcc=3 IRadAn=         5 AccDes= 0.00D+00
 Harris functional with IExCor=  402 and IRadAn=       5 diagonalized for initial guess.
 HarFok:  IExCor=  402 AccDes= 0.00D+00 IRadAn=         5 IDoV= 1 UseB2=F ITyADJ=14
 ICtDFT=  3500011 ScaDFX=  1.000000  1.000000  1.000000  1.000000
 FoFCou: FMM=F IPFlag=           0 FMFlag=      100000 FMFlg1=           0
         NFxFlg=           0 DoJE=T BraDBF=F KetDBF=T FulRan=T
         wScrn=  0.000000 ICntrl=       500 IOpCl=  0 I1Cent=   200000004 NGrid=           0
         NMat0=    1 NMatS0=      1 NMatT0=    0 NMatD0=    1 NMtDS0=    0 NMtDT0=    0
 Symmetry not used in FoFCou.
 Keep R1 ints in memory in canonical form, NReq=47237219.
 Requested convergence on RMS density matrix=1.00D-08 within 128 cycles.
 Requested convergence on MAX density matrix=1.00D-06.
 Requested convergence on             energy=1.00D-06.
 No special actions if energy rises.
 SCF Done:  E(RB3LYP) =  -343.443903607     A.U. after   12 cycles
            NFock= 12  Conv=0.98D-08     -V/T= 2.0095
 DoSCS=F DFT=T ScalE2(SS,OS)=  1.000000  1.000000
 Range of M.O.s used for correlation:     1   126
 NBasis=   126 NAE=    24 NBE=    24 NFC=     0 NFV=     0
 NROrb=    126 NOA=    24 NOB=    24 NVA=   102 NVB=   102

 **** Warning!!: The largest alpha MO coefficient is  0.28776789D+02

 Symmetrizing basis deriv contribution to polar:
 IMax=3 JMax=2 DiffMx= 0.00D+00
 G2DrvN: will do    13 centers at a time, making    1 passes.
 Calling FoFCou, ICntrl=  3107 FMM=F I1Cent=   0 AccDes= 0.00D+00.
 End of G2Drv F.D. properties file   721 does not exist.
 End of G2Drv F.D. properties file   722 does not exist.
 End of G2Drv F.D. properties file   788 does not exist.
          IDoAtm=111111111111
          Differentiating once with respect to nuclear coordinates.
 Keep R1 ints in memory in canonical form, NReq=47193241.
          There are    39 degrees of freedom in the 1st order CPHF.  IDoFFX=6 NUNeed=     0.
     33 vectors produced by pass  0 Test12= 6.28D-15 2.56D-09 XBig12= 1.51D-01 1.06D-01.
 AX will form    33 AO Fock derivatives at one time.
     33 vectors produced by pass  1 Test12= 6.28D-15 2.56D-09 XBig12= 2.55D-02 4.48D-02.
     33 vectors produced by pass  2 Test12= 6.28D-15 2.56D-09 XBig12= 6.45D-04 3.68D-03.
     33 vectors produced by pass  3 Test12= 6.28D-15 2.56D-09 XBig12= 3.51D-06 3.15D-04.
     33 vectors produced by pass  4 Test12= 6.28D-15 2.56D-09 XBig12= 3.71D-09 9.07D-06.
     28 vectors produced by pass  5 Test12= 6.28D-15 2.56D-09 XBig12= 3.09D-12 2.61D-07.
      4 vectors produced by pass  6 Test12= 6.28D-15 2.56D-09 XBig12= 2.98D-15 8.30D-09.
 InvSVY:  IOpt=1 It=  1 EMax= 1.11D-15
 Solved reduced A of dimension   197 with    33 vectors.
 End of Minotr F.D. properties file   721 does not exist.
 End of Minotr F.D. properties file   722 does not exist.
 End of Minotr F.D. properties file   788 does not exist.
 Calling FoFJK, ICntrl=    100127 FMM=F ISym2X=0 I1Cent= 0 IOpClX= 0 NMat=1 NMatS=1 NMatT=0.
 -------------------------------------------------------------------
 Center     Atomic                   Forces (Hartrees/Bohr)
 Number     Number              X              Y              Z
 -------------------------------------------------------------------
      1        6          -0.060403736   -0.038458744   -0.006502198
      2        6           0.024073894    0.032825376    0.000413454
      3        6          -0.008417734    0.001962805    0.000215675
      4        8           0.073196135    0.039728916    0.001093734
      5        8          -0.015872292   -0.034332431    0.003265861
      6        8          -0.006799729    0.002550843    0.000812271
      7        1          -0.000294180   -0.003681143   -0.000316023
      8        1          -0.001859242   -0.001009254    0.000948478
      9        1          -0.003436125   -0.002134443   -0.001088024
     10        1          -0.001088174   -0.000108426   -0.000019482
     11        1           0.002114957    0.002740226    0.000212928
     12        1          -0.001213776   -0.000083726    0.000963326
 -------------------------------------------------------------------
 Cartesian Forces:  Max     0.073196135 RMS     0.020673529
 IRC-IRC-IRC-IRC-IRC-IRC-IRC-IRC-IRC-IRC-IRC-IRC-IRC-IRC-IRC-IRC-IRC-IRC
 Pt  5 Step number   1 out of a maximum of 100
 Modified Bulirsch-Stoer Extrapolation Cycles:
    EPS =    0.000010000000000
      PEZero:  N= 2 I= 1 D=  2.37D-03 Err=  1.41D-04
      PEZero:  N= 3 I= 2 D=  2.37D-03 Err=  9.40D-05
      PEZero:  N= 3 I= 1 D=  4.75D-03 Err=  2.06D-07
 Maximum DWI energy   std dev =  0.000031559 at pt    19
 Maximum DWI gradient std dev =  0.004243655 at pt    47
 CORRECTOR INTEGRATION CONVERGENCE:
   Recorrection delta-x convergence threshold:    0.010000
   Delta-x Convergence Met
 Point Number:   5          Path Number:   1
   CHANGE IN THE REACTION COORDINATE =    0.45577
   NET REACTION COORDINATE UP TO THIS POINT =    2.27876
  # OF POINTS ALONG THE PATH =   5
  # OF STEPS =   1

 Calculating another point on the path.
 IRC-IRC-IRC-IRC-IRC-IRC-IRC-IRC-IRC-IRC-IRC-IRC-IRC-IRC-IRC-IRC-IRC-IRC
                          Input orientation:                          
 ---------------------------------------------------------------------
 Center     Atomic      Atomic             Coordinates (Angstroms)
 Number     Number       Type             X           Y           Z
 ---------------------------------------------------------------------
      1          6           0        0.476612    0.277248   -0.097913
      2          6           0       -0.820234   -0.864104   -0.207461
      3          6           0       -1.885132   -0.052656    0.421268
      4          8           0        1.434829   -0.669949    0.053562
      5          8           0        2.715166    0.410524   -0.026304
      6          8           0       -2.503087    0.794495   -0.190373
      7          1           0        3.029362    0.334906    0.896450
      8          1           0        0.528643    0.827683   -1.042989
      9          1           0        0.391255    0.956652    0.761655
     10          1           0       -2.012546   -0.170525    1.519391
     11          1           0       -0.562672   -1.771979    0.345040
     12          1           0       -0.974277   -1.054129   -1.270739
 ---------------------------------------------------------------------
                    Distance matrix (angstroms):
                    1          2          3          4          5
     1  C    0.000000
     2  C    1.731039   0.000000
     3  C    2.440537   1.479107   0.000000
     4  O    1.355841   2.278407   3.396822   0.000000
     5  O    2.243660   3.762519   4.645169   1.677219   0.000000
     6  O    3.025674   2.362888   1.213935   4.208477   5.234932
     7  H    2.740185   4.180387   4.952601   2.064638   0.977707
     8  H    1.094923   2.319423   2.957255   2.065551   2.447152
     9  H    1.098969   2.392080   2.513266   2.058221   2.513900
    10  H    3.002013   2.210131   1.111756   3.779216   5.007799
    11  H    2.340010   1.093541   2.170434   2.299878   3.955431
    12  H    2.291978   1.091054   2.166909   2.775816   4.160026
                    6          7          8          9         10
     6  O    0.000000
     7  H    5.656889   0.000000
     8  H    3.149515   3.202788   0.000000
     9  H    3.051208   2.713733   1.814456   0.000000
    10  H    2.023657   5.105326   3.744310   2.760970   0.000000
    11  H    3.261697   4.200681   3.142584   2.920440   2.458839
    12  H    2.630943   4.759753   2.419060   3.168366   3.105412
                   11         12
    11  H    0.000000
    12  H    1.815343   0.000000
 Symmetry turned off by external request.
 Stoichiometry    C3H6O3
 Framework group  C1[X(C3H6O3)]
 Deg. of freedom    30
 Full point group                 C1      NOp   1
 Rotational constants (GHZ):          11.1773902           1.5307637           1.4215593
 Standard basis: 6-31+G(d) (6D, 7F)
   126 basis functions,   216 primitive gaussians,   126 cartesian basis functions
    24 alpha electrons       24 beta electrons
       nuclear repulsion energy       230.1217734888 Hartrees.
 NAtoms=   12 NActive=   12 NUniq=   12 SFac= 1.00D+00 NAtFMM=   60 NAOKFM=F Big=F
 Integral buffers will be    131072 words long.
 Raffenetti 2 integral format.
 Two-electron integral symmetry is turned off.
 One-electron integrals computed using PRISM.
 NBasis=   126 RedAO= T EigKep=  1.60D-04  NBF=   126
 NBsUse=   126 1.00D-06 EigRej= -1.00D+00 NBFU=   126
 Initial guess from the checkpoint file:  "/scratch/bell/zhao922/YARP/paper-example/KHP-network/pp_0/IRC-folder/Gau-82505.chk"
 B after Tr=    -0.000860   -0.000605    0.000083
         Rot=    1.000000   -0.000089   -0.000007    0.000056 Ang=  -0.01 deg.
 ExpMin= 4.38D-02 ExpMax= 5.48D+03 ExpMxC= 8.25D+02 IAcc=3 IRadAn=         5 AccDes= 0.00D+00
 Harris functional with IExCor=  402 and IRadAn=       5 diagonalized for initial guess.
 HarFok:  IExCor=  402 AccDes= 0.00D+00 IRadAn=         5 IDoV= 1 UseB2=F ITyADJ=14
 ICtDFT=  3500011 ScaDFX=  1.000000  1.000000  1.000000  1.000000
 FoFCou: FMM=F IPFlag=           0 FMFlag=      100000 FMFlg1=           0
         NFxFlg=           0 DoJE=T BraDBF=F KetDBF=T FulRan=T
         wScrn=  0.000000 ICntrl=       500 IOpCl=  0 I1Cent=   200000004 NGrid=           0
         NMat0=    1 NMatS0=      1 NMatT0=    0 NMatD0=    1 NMtDS0=    0 NMtDT0=    0
 Symmetry not used in FoFCou.
 Keep R1 ints in memory in canonical form, NReq=47237219.
 Requested convergence on RMS density matrix=1.00D-08 within 128 cycles.
 Requested convergence on MAX density matrix=1.00D-06.
 Requested convergence on             energy=1.00D-06.
 No special actions if energy rises.
 SCF Done:  E(RB3LYP) =  -343.459124373     A.U. after   12 cycles
            NFock= 12  Conv=0.67D-08     -V/T= 2.0095
 DoSCS=F DFT=T ScalE2(SS,OS)=  1.000000  1.000000
 Range of M.O.s used for correlation:     1   126
 NBasis=   126 NAE=    24 NBE=    24 NFC=     0 NFV=     0
 NROrb=    126 NOA=    24 NOB=    24 NVA=   102 NVB=   102

 **** Warning!!: The largest alpha MO coefficient is  0.30295129D+02

 Symmetrizing basis deriv contribution to polar:
 IMax=3 JMax=2 DiffMx= 0.00D+00
 G2DrvN: will do    13 centers at a time, making    1 passes.
 Calling FoFCou, ICntrl=  3107 FMM=F I1Cent=   0 AccDes= 0.00D+00.
 End of G2Drv F.D. properties file   721 does not exist.
 End of G2Drv F.D. properties file   722 does not exist.
 End of G2Drv F.D. properties file   788 does not exist.
          IDoAtm=111111111111
          Differentiating once with respect to nuclear coordinates.
 Keep R1 ints in memory in canonical form, NReq=47193241.
          There are    39 degrees of freedom in the 1st order CPHF.  IDoFFX=6 NUNeed=     0.
     33 vectors produced by pass  0 Test12= 6.28D-15 2.56D-09 XBig12= 1.30D-01 1.03D-01.
 AX will form    33 AO Fock derivatives at one time.
     33 vectors produced by pass  1 Test12= 6.28D-15 2.56D-09 XBig12= 2.78D-02 5.26D-02.
     33 vectors produced by pass  2 Test12= 6.28D-15 2.56D-09 XBig12= 7.49D-04 3.47D-03.
     33 vectors produced by pass  3 Test12= 6.28D-15 2.56D-09 XBig12= 3.87D-06 3.22D-04.
     33 vectors produced by pass  4 Test12= 6.28D-15 2.56D-09 XBig12= 4.34D-09 1.11D-05.
     28 vectors produced by pass  5 Test12= 6.28D-15 2.56D-09 XBig12= 3.56D-12 2.52D-07.
      3 vectors produced by pass  6 Test12= 6.28D-15 2.56D-09 XBig12= 3.41D-15 8.41D-09.
 InvSVY:  IOpt=1 It=  1 EMax= 1.11D-15
 Solved reduced A of dimension   196 with    33 vectors.
 End of Minotr F.D. properties file   721 does not exist.
[...]
  13                   -1.09852   0.71464   1.19745   0.66392  -1.68593
  14                   -1.07597   0.72172   1.16379   0.69634  -1.76351
  15                   -1.05770   0.72800   1.13159   0.72124  -1.84067
  16                   -1.04291   0.73185   1.10436   0.74030  -1.90588
  17                   -1.03310   0.72990   1.08857   0.75216  -1.94395
  18                   -1.02786   0.71979   1.07996   0.75914  -1.96219
  19                   -1.02564   0.70139   1.07295   0.76455  -1.97269
  20                   -1.02598   0.67626   1.06601   0.76969  -1.97946
  21                   -1.02838   0.64752   1.05894   0.77488  -1.98399
  22                   -1.03221   0.61806   1.05189   0.78004  -1.98704
  23                   -1.03692   0.58992   1.04504   0.78501  -1.98902
  24                   -1.04206   0.56451   1.03862   0.78958  -1.99017
  25                   -1.04728   0.54278   1.03281   0.79352  -1.99066
  26                   -1.05219   0.52528   1.02777   0.79652  -1.99059
  27                   -1.05644   0.51203   1.02353   0.79826  -1.99014
  28                   -1.05949   0.50231   1.01987   0.79834  -1.98950
  29                   -1.06138   0.49362   1.01604   0.79684  -1.98915
  30                   -1.06153   0.48422   1.01130   0.79358  -1.98930
  31                   -1.06030   0.47266   1.00512   0.78890  -1.99043
  32                   -1.05746   0.45734   0.99662   0.78287  -1.99301
  33                   -1.05338   0.43837   0.98569   0.77602  -1.99735
  34                   -1.04837   0.41610   0.97230   0.76880  -2.00376
  35                   -1.04279   0.39096   0.95642   0.76163  -2.01268
  36                   -1.03697   0.36349   0.93793   0.75500  -2.02477
  37                   -1.03122   0.33471   0.91666   0.74958  -2.04143
  38                   -1.02569   0.30783   0.89231   0.74661  -2.06691
  39                   -1.02013   0.30435   0.87109   0.74971  -2.11499
  40                   -1.00747   0.33192   0.86192   0.76537  -2.17373
  41                   -0.97604   0.36102   0.84877   0.80087  -2.21796
  42                   -0.92697   0.38647   0.82620   0.85252  -2.24059
  43                   -0.86768   0.40948   0.79465   0.91093  -2.24688
  44                   -0.80371   0.43172   0.75714   0.96998  -2.24292
  45                   -0.73832   0.45395   0.71662   1.02664  -2.23253
  46                   -0.67371   0.47633   0.67546   1.07926  -2.21763
  47                   -0.61227   0.49844   0.63596   1.12633  -2.19842
  48                   -0.55731   0.51928   0.60077   1.16594  -2.17403
  49                   -0.51285   0.53758   0.57287   1.19597  -2.14409
  50                   -0.48158   0.55251   0.55426   1.21545  -2.11004
  51                   -0.46286   0.56423   0.54468   1.22563  -2.07442
  52                   -0.45384   0.57350   0.54221   1.22894  -2.03923
                          Y10       Z10       X11       Y11       Z11
   1                    0.35542   1.44034  -0.97015  -1.85295  -0.18291
   2                    0.29952   1.46139  -0.96102  -1.86990  -0.17067
   3                    0.24380   1.47967  -0.95186  -1.88715  -0.15961
   4                    0.18816   1.49523  -0.94263  -1.90468  -0.14979
   5                    0.13296   1.50800  -0.93338  -1.92243  -0.14105
   6                    0.07899   1.51785  -0.92426  -1.94035  -0.13301
   7                    0.02782   1.52472  -0.91563  -1.95831  -0.12493
   8                   -0.01888   1.52873  -0.90804  -1.97607  -0.11638
   9                   -0.05701   1.53020  -0.90252  -1.99331  -0.10553
  10                   -0.08160   1.53010  -0.90032  -2.00939  -0.09025
  11                   -0.08917   1.53069  -0.90199  -2.02318  -0.06550
  12                   -0.08873   1.53638  -0.90569  -2.03195  -0.02232
  13                   -0.10044   1.54363  -0.90824  -2.03322   0.03207
  14                   -0.12432   1.54451  -0.90818  -2.02958   0.08709
  15                   -0.15255   1.53839  -0.90453  -2.02392   0.13967
  16                   -0.17419   1.52940  -0.89896  -2.02045   0.18323
  17                   -0.18131   1.52390  -0.89795  -2.02189   0.20980
  18                   -0.18164   1.52159  -0.89976  -2.02437   0.22528
  19                   -0.18085   1.52040  -0.89895  -2.02483   0.23745
  20                   -0.18019   1.51955  -0.89308  -2.02239   0.24877
  21                   -0.17982   1.51884  -0.88171  -2.01697   0.25983
  22                   -0.17965   1.51820  -0.86531  -2.00876   0.27073
  23                   -0.17958   1.51763  -0.84451  -1.99784   0.28140
  24                   -0.17949   1.51715  -0.82005  -1.98431   0.29166
  25                   -0.17927   1.51680  -0.79282  -1.96837   0.30129
  26                   -0.17880   1.51662  -0.76391  -1.95040   0.31005
  27                   -0.17797   1.51666  -0.73450  -1.93097   0.31776
  28                   -0.17667   1.51694  -0.70576  -1.91076   0.32428
  29                   -0.17512   1.51737  -0.67849  -1.89024   0.32970
  30                   -0.17324   1.51794  -0.65356  -1.86988   0.33398
  31                   -0.17142   1.51851  -0.63075  -1.84965   0.33735
  32                   -0.16987   1.51905  -0.61066  -1.82979   0.33984
  33                   -0.16894   1.51947  -0.59286  -1.81026   0.34176
  34                   -0.16903   1.51962  -0.57699  -1.79101   0.34339
  35                   -0.17061   1.51934  -0.56275  -1.77195   0.34506
  36                   -0.17439   1.51836  -0.54996  -1.75301   0.34725
  37                   -0.18155   1.51614  -0.53876  -1.73423   0.35091
  38                   -0.19505   1.51112  -0.53057  -1.71582   0.35870
  39                   -0.22132   1.49760  -0.53562  -1.69898   0.38137
  40                   -0.24818   1.48033  -0.54742  -1.68039   0.41455
  41                   -0.26078   1.46836  -0.55174  -1.66113   0.44443
  42                   -0.25363   1.46421  -0.55501  -1.64642   0.46768
  43                   -0.23027   1.46621  -0.56158  -1.63718   0.48353
  44                   -0.19581   1.47170  -0.57139  -1.63131   0.49358
  45                   -0.15407   1.47864  -0.58316  -1.62664   0.49930
  46                   -0.10723   1.48577  -0.59576  -1.62161   0.50128
  47                   -0.05602   1.49246  -0.60834  -1.61514   0.49929
  48                   -0.00045   1.49828  -0.62018  -1.60655   0.49254
  49                    0.05876   1.50266  -0.63056  -1.59549   0.48060
  50                    0.11951   1.50482  -0.63894  -1.58213   0.46421
  51                    0.17963   1.50424  -0.64528  -1.56702   0.44490
  52                    0.23821   1.50080  -0.65000  -1.55076   0.42399
                          X12       Y12       Z12
   1                   -0.74421  -0.60854  -1.42897
   2                   -0.74415  -0.62725  -1.42240
   3                   -0.74341  -0.64571  -1.41636
   4                   -0.74200  -0.66389  -1.41089
   5                   -0.73998  -0.68191  -1.40600
   6                   -0.73749  -0.70008  -1.40166
   7                   -0.73483  -0.71899  -1.39778
   8                   -0.73236  -0.73891  -1.39435
   9                   -0.73096  -0.76113  -1.39101
  10                   -0.73226  -0.78680  -1.38723
  11                   -0.74092  -0.81785  -1.38096
  12                   -0.76680  -0.85476  -1.36635
  13                   -0.80103  -0.89126  -1.34473
  14                   -0.82686  -0.92777  -1.32321
  15                   -0.84211  -0.96475  -1.30320
  16                   -0.84908  -0.99761  -1.28642
  17                   -0.85260  -1.01893  -1.27811
  18                   -0.85546  -1.03022  -1.27712
  19                   -0.85810  -1.03642  -1.27859
  20                   -0.86076  -1.03983  -1.28059
  21                   -0.86367  -1.04157  -1.28249
  22                   -0.86703  -1.04230  -1.28413
  23                   -0.87099  -1.04243  -1.28552
  24                   -0.87572  -1.04225  -1.28669
  25                   -0.88136  -1.04203  -1.28768
  26                   -0.88806  -1.04201  -1.28849
  27                   -0.89589  -1.04245  -1.28910
  28                   -0.90496  -1.04354  -1.28940
  29                   -0.91463  -1.04494  -1.28932
  30                   -0.92522  -1.04692  -1.28868
  31                   -0.93593  -1.04894  -1.28728
  32                   -0.94665  -1.05094  -1.28487
  33                   -0.95686  -1.05260  -1.28128
  34                   -0.96617  -1.05370  -1.27648
  35                   -0.97421  -1.05410  -1.27049
  36                   -0.98068  -1.05389  -1.26341
  37                   -0.98535  -1.05361  -1.25537
  38                   -0.98801  -1.05541  -1.24610
  39                   -0.98529  -1.06691  -1.23248
  40                   -0.97309  -1.07605  -1.21323
  41                   -0.95590  -1.07420  -1.19329
  42                   -0.93649  -1.06457  -1.17696
  43                   -0.91848  -1.04929  -1.16511
  44                   -0.90270  -1.02997  -1.15659
  45                   -0.88877  -1.00757  -1.15035
  46                   -0.87623  -0.98233  -1.14602
  47                   -0.86501  -0.95414  -1.14391
  48                   -0.85554  -0.92296  -1.14480
  49                   -0.84846  -0.88949  -1.14939
  50                   -0.84409  -0.85526  -1.15757
  51                   -0.84207  -0.82162  -1.16841
  52                   -0.84171  -0.78905  -1.18094
 --------------------------------------------------------------------------
 
 Total number of points:                   51
 Total number of gradient calculations:    74
 Total number of Hessian calculations:     52
 IRC-IRC-IRC-IRC-IRC-IRC-IRC-IRC-IRC-IRC-IRC-IRC-IRC-IRC-IRC-IRC-IRC-IRC
                          Input orientation:                          
 ---------------------------------------------------------------------
 Center     Atomic      Atomic             Coordinates (Angstroms)
 Number     Number       Type             X           Y           Z
 ---------------------------------------------------------------------
      1          6           0        1.335278    0.468328   -0.323650
      2          6           0       -0.664390   -0.812227   -0.350103
      3          6           0       -1.635347    0.081909    0.411763
      4          8           0        0.666646   -0.709824    0.121077
      5          8           0        2.645172    0.447518    0.136642
      6          8           0       -2.701068    0.448905   -0.032559
      7          1           0        2.636569    0.418369    1.107487
      8          1           0        1.388772    0.484467   -1.419445
      9          1           0        0.786654    1.358079    0.033313
     10          1           0       -1.310721    0.356101    1.440164
     11          1           0       -0.970093   -1.853127   -0.181780
     12          1           0       -0.744248   -0.609511   -1.428649
 ---------------------------------------------------------------------
                    Distance matrix (angstroms):
                    1          2          3          4          5
     1  C    0.000000
     2  C    2.374699   0.000000
     3  C    3.084602   1.524033   0.000000
     4  O    1.425795   1.415681   2.451634   0.000000
     5  O    1.388569   3.574504   4.304905   2.292215   0.000000
     6  O    4.046876   2.416474   1.211556   3.564793   5.348917
     7  H    1.934943   3.812514   4.341256   2.475161   0.971321
     8  H    1.097218   2.653372   3.558184   2.078702   2.000328
     9  H    1.104567   2.638705   2.763680   2.073240   2.072169
    10  H    3.181973   2.233337   1.112732   2.605027   4.166128
    11  H    3.274755   1.097843   2.130544   2.019351   4.297035
    12  H    2.589824   1.100333   2.158526   2.098173   3.880156
                    6          7          8          9         10
     6  O    0.000000
     7  H    5.458113   0.000000
     8  H    4.318739   2.818998   0.000000
     9  H    3.604878   2.336469   1.798957   0.000000
    10  H    2.027459   3.961773   3.934603   2.717016   0.000000
    11  H    2.884076   4.453079   3.544066   3.666643   2.761778
    12  H    2.626491   4.349534   2.397216   2.890053   3.079511
                   11         12
    11  H    0.000000
    12  H    1.775463   0.000000
 Symmetry turned off by external request.
 Stoichiometry    C3H6O3
 Framework group  C1[X(C3H6O3)]
 Deg. of freedom    30
 Full point group                 C1      NOp   1
 Rotational constants (GHZ):          11.5361210           1.5798083           1.4901589

 **********************************************************************

            Population analysis using the SCF Density.

 **********************************************************************

 Alpha  occ. eigenvalues --  -19.18938 -19.18714 -19.18269 -10.30777 -10.30282
 Alpha  occ. eigenvalues --  -10.26871  -1.09598  -1.07496  -1.03594  -0.76409
 Alpha  occ. eigenvalues --   -0.68845  -0.61372  -0.55799  -0.53629  -0.50866
 Alpha  occ. eigenvalues --   -0.47968  -0.46360  -0.45573  -0.40071  -0.38240
 Alpha  occ. eigenvalues --   -0.36744  -0.32732  -0.30765  -0.27143
 Alpha virt. eigenvalues --   -0.05883  -0.00468   0.00897   0.01923   0.02436
 Alpha virt. eigenvalues --    0.04541   0.05824   0.06408   0.07019   0.08375
 Alpha virt. eigenvalues --    0.10649   0.11162   0.13469   0.15261   0.16209
 Alpha virt. eigenvalues --    0.17606   0.19025   0.19502   0.20514   0.21497
 Alpha virt. eigenvalues --    0.21812   0.22840   0.24077   0.25566   0.26215
 Alpha virt. eigenvalues --    0.27277   0.27883   0.28760   0.29804   0.30426
 Alpha virt. eigenvalues --    0.32620   0.33545   0.35221   0.36285   0.38619
 Alpha virt. eigenvalues --    0.44724   0.60250   0.63916   0.64448   0.66408
 Alpha virt. eigenvalues --    0.72666   0.75644   0.77431   0.79764   0.86366
 Alpha virt. eigenvalues --    0.89480   0.90873   0.93606   0.99402   1.01890
 Alpha virt. eigenvalues --    1.04604   1.08346   1.11301   1.15835   1.16610
 Alpha virt. eigenvalues --    1.22036   1.25318   1.25616   1.27600   1.28144
 Alpha virt. eigenvalues --    1.31870   1.33094   1.43926   1.45077   1.49618
 Alpha virt. eigenvalues --    1.51339   1.52527   1.60540   1.65080   1.70398
 Alpha virt. eigenvalues --    1.72323   1.73087   1.76616   1.78014   1.85018
 Alpha virt. eigenvalues --    1.94933   1.98756   2.00895   2.04412   2.06445
 Alpha virt. eigenvalues --    2.08927   2.14016   2.21636   2.22355   2.31108
 Alpha virt. eigenvalues --    2.37511   2.39474   2.47955   2.57566   2.60657
 Alpha virt. eigenvalues --    2.66478   2.72077   2.87345   2.93185   3.00207
 Alpha virt. eigenvalues --    3.07483   4.05621   4.13854   4.18221   4.26772
 Alpha virt. eigenvalues --    4.37807   4.46833
          Condensed to atoms (all electrons):
               1          2          3          4          5          6
     1  C    4.946593  -0.134038  -0.004344   0.141196   0.223405  -0.002866
     2  C   -0.134038   5.664693   0.061779   0.124070  -0.005832  -0.099333
     3  C   -0.004344   0.061779   5.112885  -0.047485   0.010447   0.417144
     4  O    0.141196   0.124070  -0.047485   8.415276  -0.047059   0.004558
     5  O    0.223405  -0.005832   0.010447  -0.047059   8.347576  -0.000040
     6  O   -0.002866  -0.099333   0.417144   0.004558  -0.000040   8.079797
     7  H    0.002131   0.008754  -0.009373  -0.002367   0.188550   0.000032
     8  H    0.427402   0.020792  -0.030185  -0.056201  -0.066797   0.000625
     9  H    0.375711  -0.018365   0.033623  -0.067695  -0.044297  -0.001212
    10  H    0.010124  -0.134260   0.389139   0.012372  -0.000153  -0.056811
    11  H    0.002840   0.370679  -0.010380  -0.052398  -0.000639  -0.001963
    12  H   -0.001932   0.433479  -0.096477  -0.045207  -0.000702   0.004581
               7          8          9         10         11         12
     1  C    0.002131   0.427402   0.375711   0.010124   0.002840  -0.001932
     2  C    0.008754   0.020792  -0.018365  -0.134260   0.370679   0.433479
     3  C   -0.009373  -0.030185   0.033623   0.389139  -0.010380  -0.096477
     4  O   -0.002367  -0.056201  -0.067695   0.012372  -0.052398  -0.045207
     5  O    0.188550  -0.066797  -0.044297  -0.000153  -0.000639  -0.000702
     6  O    0.000032   0.000625  -0.001212  -0.056811  -0.001963   0.004581
     7  H    0.351632   0.007706  -0.009704   0.000037  -0.000003   0.000042
     8  H    0.007706   0.562131  -0.060591   0.000170  -0.000067   0.008569
     9  H   -0.009704  -0.060591   0.632048  -0.001123  -0.000349  -0.001880
    10  H    0.000037   0.000170  -0.001123   0.602785   0.001473   0.003637
    11  H   -0.000003  -0.000067  -0.000349   0.001473   0.485756  -0.026249
    12  H    0.000042   0.008569  -0.001880   0.003637  -0.026249   0.505456
 Mulliken charges:
               1
     1  C    0.013779
     2  C   -0.292417
     3  C    0.173227
     4  O   -0.379059
     5  O   -0.604457
     6  O   -0.344511
     7  H    0.462564
     8  H    0.186447
     9  H    0.163834
    10  H    0.172611
    11  H    0.231299
    12  H    0.216684
 Sum of Mulliken charges =   0.00000
 Mulliken charges with hydrogens summed into heavy atoms:
               1
     1  C    0.364059
     2  C    0.155566
     3  C    0.345838
     4  O   -0.379059
     5  O   -0.141893
     6  O   -0.344511
 APT charges:
               1
     1  C   -0.478622
     2  C   -0.767615
     3  C   -0.366219
     4  O   -0.304364
     5  O   -0.743853
     6  O   -0.007253
     7  H    0.656249
     8  H    0.426096
     9  H    0.308566
    10  H    0.338053
    11  H    0.537148
    12  H    0.401815
 Sum of APT charges =   0.00000
 APT charges with hydrogens summed into heavy atoms:
               1
     1  C    0.256040
     2  C    0.171347
     3  C   -0.028166
     4  O   -0.304364
     5  O   -0.087604
     6  O   -0.007253
 Electronic spatial extent (au):  <R**2>=            762.3032
 Charge=              0.0000 electrons
 Dipole moment (field-independent basis, Debye):
    X=              0.6663    Y=             -0.1067    Z=              0.9397  Tot=              1.1568
 Quadrupole moment (field-independent basis, Debye-Ang):
   XX=            -50.5127   YY=            -36.0240   ZZ=            -31.9687
   XY=              4.4236   XZ=              1.7173   YZ=              1.2657
 Traceless Quadrupole moment (field-independent basis, Debye-Ang):
   XX=            -11.0109   YY=              3.4778   ZZ=              7.5331
   XY=              4.4236   XZ=              1.7173   YZ=              1.2657
 Octapole moment (field-independent basis, Debye-Ang**2):
  XXX=             17.6111  YYY=             -2.5278  ZZZ=              3.5491  XYY=             -3.3112
  XXY=             -9.3759  XXZ=             14.4465  XZZ=              7.2638  YZZ=              1.6854
  YYZ=              0.5746  XYZ=              1.6633
 Hexadecapole moment (field-independent basis, Debye-Ang**3):
 XXXX=           -889.4076 YYYY=           -114.5469 ZZZZ=            -71.6644 XXXY=             -4.1981
 XXXZ=             32.8500 YYYX=            -12.8126 YYYZ=             -4.9204 ZZZX=              9.6771
 ZZZY=             -2.9636 XXYY=           -150.3472 XXZZ=           -115.1602 YYZZ=            -33.1965
 XXYZ=              1.9698 YYXZ=              2.2507 ZZXY=             -2.2261
 N-N= 2.361036694683D+02 E-N=-1.276592273712D+03  KE= 3.404594391851D+02
  Exact polarizability:   0.000   0.000   0.000   0.000   0.000   0.000
 Approx polarizability:  74.586  -4.368  55.383   7.748  -0.176  61.340

 This type of calculation cannot be archived.


 LOGIC IS A SYSTEMATIC METHOD OF COMING TO THE
 WRONG CONCLUSION WITH CONFIDENCE.
 Job cpu time:       0 days  4 hours  8 minutes 31.3 seconds.
 Elapsed time:       0 days  0 hours 17 minutes  1.0 seconds.
 File lengths (MBytes):  RWF=     28 Int=      0 D2E=      0 Chk=      4 Scr=      1
 Normal termination of Gaussian 16 at Wed Dec 23 22:33:45 2020.
