 Entering Gaussian System, Link 0=g16
 Initial command:
 /apps/cent7/gaussian/g16-B.01/g16-haswell/g16/l1.exe "/scratch/bell/zhao922/YARP/paper-example/KHP-network/pp_0/IRC-folder/Gau-116248.inp" -scrdir="/scratch/bell/zhao922/YARP/paper-example/KHP-network/pp_0/IRC-folder/"
 Entering Link 1 = /apps/cent7/gaussian/g16-B.01/g16-haswell/g16/l1.exe PID=    116250.
  
 Copyright (c) 1988-2017, Gaussian, Inc.  All Rights Reserved.
  
 This is part of the Gaussian(R) 16 program.  It is based on
 the Gaussian(R) 09 system (copyright 2009, Gaussian, Inc.),
 the Gaussian(R) 03 system (copyright 2003, Gaussian, Inc.),
 the Gaussian(R) 98 system (copyright 1998, Gaussian, Inc.),
 the Gaussian(R) 94 system (copyright 1995, Gaussian, Inc.),
 the Gaussian 92(TM) system (copyright 1992, Gaussian, Inc.),
 the Gaussian 90(TM) system (copyright 1990, Gaussian, Inc.),
 the Gaussian 88(TM) system (copyright 1988, Gaussian, Inc.),
 the Gaussian 86(TM) system (copyright 1986, Carnegie Mellon
 University), and the Gaussian 82(TM) system (copyright 1983,
 Carnegie Mellon University). Gaussian is a federally registered
 trademark of Gaussian, Inc.
  
 This software contains proprietary and confidential information,
 including trade secrets, belonging to Gaussian, Inc.
  
 This software is provided under written license and may be
 used, copied, transmitted, or stored only in accord with that
 written license.
  
 The following legend is applicable only to US Government
 contracts under FAR:
  
                    RESTRICTED RIGHTS LEGEND
  
 Use, reproduction and disclosure by the US Government is
 subject to restrictions as set forth in subparagraphs (a)
 and (c) of the Commercial Computer Software - Restricted
 Rights clause in FAR 52.227-19.
  
 Gaussian, Inc.
 340 Quinnipiac St., Bldg. 40, Wallingford CT 06492
  
  
 ---------------------------------------------------------------
 Warning -- This program may not be used in any manner that
 competes with the business of Gaussian, Inc. or will provide
 assistance to any competitor of Gaussian, Inc.  The licensee
 of this program is prohibited from giving any competitor of
 Gaussian, Inc. access to this program.  By using this program,
 the user acknowledges that Gaussian, Inc. is engaged in the
 business of creating and licensing software in the field of
 computational chemistry and represents and warrants to the
 licensee that it is not a competitor of Gaussian, Inc. and that
 it will not use this program in any manner prohibited above.
 ---------------------------------------------------------------
  

 Cite this work as:
 Gaussian 16, Revision B.01,
 M. J. Frisch, G. W. Trucks, H. B. Schlegel, G. E. Scuseria, 
 M. A. Robb, J. R. Cheeseman, G. Scalmani, V. Barone, 
 G. A. Petersson, H. Nakatsuji, X. Li, M. Caricato, A. V. Marenich, 
 J. Bloino, B. G. Janesko, R. Gomperts, B. Mennucci, H. P. Hratchian, 
 J. V. Ortiz, A. F. Izmaylov, J. L. Sonnenberg, D. Williams-Young, 
 F. Ding, F. Lipparini, F. Egidi, J. Goings, B. Peng, A. Petrone, 
 T. Henderson, D. Ranasinghe, V. G. Zakrzewski, J. Gao, N. Rega, 
 G. Zheng, W. Liang, M. Hada, M. Ehara, K. Toyota, R. Fukuda, 
 J. Hasegawa, M. Ishida, T. Nakajima, Y. Honda, O. Kitao, H. Nakai, 
 T. Vreven, K. Throssell, J. A. Montgomery, Jr., J. E. Peralta, 
 F. Ogliaro, M. J. Bearpark, J. J. Heyd, E. N. Brothers, K. N. Kudin, 
 V. N. Staroverov, T. A. Keith, R. Kobayashi, J. Normand, 
 K. Raghavachari, A. P. Rendell, J. C. Burant, S. S. Iyengar, 
 J. Tomasi, M. Cossi, J. M. Millam, M. Klene, C. Adamo, R. Cammi, 
 J. W. Ochterski, R. L. Martin, K. Morokuma, O. Farkas, 
 J. B. Foresman, and D. J. Fox, Gaussian, Inc., Wallingford CT, 2016.
 
 ******************************************
 Gaussian 16:  ES64L-G16RevB.01 20-Dec-2017
                23-Dec-2020 
 ******************************************
 %NProcShared=16
 Will use up to   16 processors via shared memory.
 %Mem=6GB
 ----------------------------------------------------------------------
 # B3LYP/6-31+G* IRC=(CALCALL, maxpoints=40, StepSize=15, maxcyc=100, R
 eport=Cartesians)
 ----------------------------------------------------------------------
 1/6=100,10=4,18=10,26=3,38=1,39=15,42=40,44=3,71=1,129=10,172=1/1,23;
 2/12=2,17=6,18=5,29=1,40=1/2;
 3/5=1,6=6,7=11,11=2,25=1,30=1,71=2,74=-5,140=1/1,2,3;
 4//1;
 5/5=2,38=5/2;
 8/6=4,10=90,11=11/1;
 11/6=1,8=1,9=11,15=111,16=1/1,2,10;
 10/6=1,13=1/2;
 6/7=2,8=2,9=2,10=2,18=1,28=1/1;
 7/10=1,25=1/1,2,3,16;
 1/6=100,10=4,18=10,26=3,39=15,42=40,44=3,71=1,129=10/23(2);
 2/29=1/2;
 99/5=20/99;
 2/29=1/2;
 3/5=1,6=6,7=11,11=2,25=1,30=1,71=2,74=-5,140=1/1,2,3;
 4/5=5,16=3,69=1/1;
 5/5=2,38=5/2;
 8/6=4,10=90,11=11/1;
 11/6=1,8=1,9=11,15=111,16=1/1,2,10;
 10/6=1,13=1/2;
 7/10=1,25=1/1,2,3,16;
 1/6=100,10=4,18=10,26=3,39=15,42=40,44=3,71=1,129=10/23(-8);
 2/29=1/2;
 6/7=2,8=2,9=2,10=2,18=1,19=2,28=1/1;
 99/5=20/99;
 -----------
 pp_10_0 IRC
 -----------
 Symbolic Z-matrix:
 Charge =  0 Multiplicity = 1
 C                     0.46961  -1.71658  -0.59151 
 C                     1.71448   0.31987   0.4342 
 C                     0.44282   0.71177   0.06914 
 O                    -0.52905  -0.3803    0.62528 
 O                    -1.8612   -0.10764   0.19838 
 O                    -0.10489   1.55374  -0.61822 
 H                    -1.7043    0.70701  -0.35413 
 H                    -0.5515   -1.90254  -0.90656 
 H                     0.85803  -2.33776   0.20561 
 H                     1.16939  -1.41954  -1.35972 
 H                     2.56347   0.81398  -0.0235 
 H                     1.86459  -0.27799   1.32379 
 
 IRC-IRC-IRC-IRC-IRC-IRC-IRC-IRC-IRC-IRC-IRC-IRC-IRC-IRC-IRC-IRC-IRC-IRC
 ------------------------------------------------------------------------
 INPUT DATA FOR L123
 ------------------------------------------------------------------------
 GENERAL PARAMETERS:
 Follow reaction path in both directions.
 Maximum points per path      =  40
 Step size                    =   0.150 bohr
 Integration scheme           = HPC                                 
    Redo corrector integration= Yes                                 
    DWI Weight Power          =  2
    DWI will use Hessian update vectors when possible.
    Max correction cycles     = 100
 Initial Hessian              = CalcFC
 Hessian evaluation           = Analytic at all predictor steps
                              = Update at all corrector steps
 Hessian updating method      = Bofill                              
 ------------------------------------------------------------------------
 IRC-IRC-IRC-IRC-IRC-IRC-IRC-IRC-IRC-IRC-IRC-IRC-IRC-IRC-IRC-IRC-IRC-IRC
                          Input orientation:                          
 ---------------------------------------------------------------------
 Center     Atomic      Atomic             Coordinates (Angstroms)
 Number     Number       Type             X           Y           Z
 ---------------------------------------------------------------------
      1          6           0        0.469614   -1.716575   -0.591511
      2          6           0        1.714476    0.319871    0.434195
      3          6           0        0.442817    0.711769    0.069140
      4          8           0       -0.529047   -0.380297    0.625284
      5          8           0       -1.861203   -0.107640    0.198381
      6          8           0       -0.104891    1.553742   -0.618219
      7          1           0       -1.704297    0.707012   -0.354133
      8          1           0       -0.551499   -1.902535   -0.906561
      9          1           0        0.858032   -2.337755    0.205606
     10          1           0        1.169389   -1.419540   -1.359715
     11          1           0        2.563473    0.813981   -0.023500
     12          1           0        1.864593   -0.277990    1.323786
 ---------------------------------------------------------------------
                    Distance matrix (angstroms):
                    1          2          3          4          5
     1  C    0.000000
     2  C    2.597858   0.000000
     3  C    2.516750   1.379843   0.000000
     4  O    2.064837   2.357996   1.564105   0.000000
     5  O    2.940291   3.608858   2.448804   1.425211   0.000000
     6  O    3.320503   2.437234   1.217113   2.338101   2.551795
     7  H    3.264355   3.529780   2.188443   1.876889   0.996769
     8  H    1.084670   3.445484   2.962304   2.159690   2.481505
     9  H    1.082649   2.801558   3.080685   2.435520   3.516775
    10  H    1.080765   2.557496   2.666835   2.811571   3.651470
    11  H    3.333256   1.083709   2.125138   3.378002   4.525083
    12  H    2.771977   1.082287   2.138973   2.495573   3.895781
                    6          7          8          9         10
     6  O    0.000000
     7  H    1.828877   0.000000
     8  H    3.496920   2.905831   0.000000
     9  H    4.092635   4.018637   1.847460   0.000000
    10  H    3.318736   3.713690   1.843933   1.841275   0.000000
    11  H    2.832155   4.281895   4.226382   3.590885   2.952551
    12  H    3.317453   4.064802   3.667573   2.550710   2.997936
                   11         12
    11  H    0.000000
    12  H    1.869763   0.000000
 Symmetry turned off by external request.
 Stoichiometry    C3H6O3
 Framework group  C1[X(C3H6O3)]
 Deg. of freedom    30
 Full point group                 C1      NOp   1
 Rotational constants (GHZ):           4.2194535           3.6104954           2.3866009
 Standard basis: 6-31+G(d) (6D, 7F)
   126 basis functions,   216 primitive gaussians,   126 cartesian basis functions
    24 alpha electrons       24 beta electrons
       nuclear repulsion energy       246.3704244990 Hartrees.
 NAtoms=   12 NActive=   12 NUniq=   12 SFac= 1.00D+00 NAtFMM=   60 NAOKFM=F Big=F
 Integral buffers will be    131072 words long.
 Raffenetti 2 integral format.
 Two-electron integral symmetry is turned off.
 One-electron integrals computed using PRISM.
 NBasis=   126 RedAO= T EigKep=  6.49D-05  NBF=   126
 NBsUse=   126 1.00D-06 EigRej= -1.00D+00 NBFU=   126
 ExpMin= 4.38D-02 ExpMax= 5.48D+03 ExpMxC= 8.25D+02 IAcc=3 IRadAn=         5 AccDes= 0.00D+00
 Harris functional with IExCor=  402 and IRadAn=       5 diagonalized for initial guess.
 HarFok:  IExCor=  402 AccDes= 0.00D+00 IRadAn=         5 IDoV= 1 UseB2=F ITyADJ=14
 ICtDFT=  3500011 ScaDFX=  1.000000  1.000000  1.000000  1.000000
 FoFCou: FMM=F IPFlag=           0 FMFlag=      100000 FMFlg1=           0
         NFxFlg=           0 DoJE=T BraDBF=F KetDBF=T FulRan=T
         wScrn=  0.000000 ICntrl=       500 IOpCl=  0 I1Cent=   200000004 NGrid=           0
         NMat0=    1 NMatS0=      1 NMatT0=    0 NMatD0=    1 NMtDS0=    0 NMtDT0=    0
 Symmetry not used in FoFCou.
 Keep R1 ints in memory in canonical form, NReq=47237219.
 Requested convergence on RMS density matrix=1.00D-08 within 128 cycles.
 Requested convergence on MAX density matrix=1.00D-06.
 Requested convergence on             energy=1.00D-06.
 No special actions if energy rises.
 EnCoef did     2 forward-backward iterations
 SCF Done:  E(RB3LYP) =  -343.373027630     A.U. after   16 cycles
            NFock= 16  Conv=0.23D-08     -V/T= 2.0092
 DoSCS=F DFT=T ScalE2(SS,OS)=  1.000000  1.000000
 Range of M.O.s used for correlation:     1   126
 NBasis=   126 NAE=    24 NBE=    24 NFC=     0 NFV=     0
 NROrb=    126 NOA=    24 NOB=    24 NVA=   102 NVB=   102

 **** Warning!!: The largest alpha MO coefficient is  0.30299265D+02


 **** Warning!!: The smallest alpha delta epsilon is  0.91477742D-01

 Symmetrizing basis deriv contribution to polar:
 IMax=3 JMax=2 DiffMx= 0.00D+00
 G2DrvN: will do    13 centers at a time, making    1 passes.
 Calling FoFCou, ICntrl=  3107 FMM=F I1Cent=   0 AccDes= 0.00D+00.
 End of G2Drv F.D. properties file   721 does not exist.
 End of G2Drv F.D. properties file   722 does not exist.
 End of G2Drv F.D. properties file   788 does not exist.
          IDoAtm=111111111111
          Differentiating once with respect to nuclear coordinates.
 Keep R1 ints in memory in canonical form, NReq=47193241.
          There are    39 degrees of freedom in the 1st order CPHF.  IDoFFX=6 NUNeed=     0.
     33 vectors produced by pass  0 Test12= 6.28D-15 2.56D-09 XBig12= 1.96D-01 2.57D-01.
 AX will form    33 AO Fock derivatives at one time.
     33 vectors produced by pass  1 Test12= 6.28D-15 2.56D-09 XBig12= 4.10D-02 4.84D-02.
     33 vectors produced by pass  2 Test12= 6.28D-15 2.56D-09 XBig12= 6.06D-04 3.82D-03.
     33 vectors produced by pass  3 Test12= 6.28D-15 2.56D-09 XBig12= 3.27D-06 2.94D-04.
     33 vectors produced by pass  4 Test12= 6.28D-15 2.56D-09 XBig12= 6.09D-09 1.31D-05.
     30 vectors produced by pass  5 Test12= 6.28D-15 2.56D-09 XBig12= 6.68D-12 3.04D-07.
      6 vectors produced by pass  6 Test12= 6.28D-15 2.56D-09 XBig12= 6.87D-15 9.40D-09.
 InvSVY:  IOpt=1 It=  1 EMax= 1.78D-15
 Solved reduced A of dimension   201 with    33 vectors.
 End of Minotr F.D. properties file   721 does not exist.
 End of Minotr F.D. properties file   722 does not exist.
 End of Minotr F.D. properties file   788 does not exist.

 **********************************************************************

            Population analysis using the SCF Density.

 **********************************************************************

 Alpha  occ. eigenvalues --  -19.25615 -19.23064 -19.16826 -10.32406 -10.29396
 Alpha  occ. eigenvalues --  -10.19282  -1.15906  -1.06117  -0.91484  -0.75273
 Alpha  occ. eigenvalues --   -0.73411  -0.60062  -0.52526  -0.49895  -0.49133
 Alpha  occ. eigenvalues --   -0.47369  -0.45579  -0.44183  -0.43396  -0.39076
 Alpha  occ. eigenvalues --   -0.38068  -0.31676  -0.30348  -0.21786
 Alpha virt. eigenvalues --   -0.12638  -0.00491  -0.00074   0.01807   0.03256
 Alpha virt. eigenvalues --    0.03744   0.04685   0.06361   0.07128   0.07427
 Alpha virt. eigenvalues --    0.08702   0.09413   0.10727   0.11983   0.12611
 Alpha virt. eigenvalues --    0.14994   0.15555   0.17505   0.18611   0.19470
 Alpha virt. eigenvalues --    0.20147   0.22221   0.23936   0.24807   0.25904
 Alpha virt. eigenvalues --    0.27117   0.29685   0.29993   0.31065   0.32628
 Alpha virt. eigenvalues --    0.34344   0.36619   0.38162   0.42566   0.44547
 Alpha virt. eigenvalues --    0.48748   0.60733   0.64272   0.64488   0.68947
 Alpha virt. eigenvalues --    0.70968   0.75229   0.77427   0.81619   0.89240
 Alpha virt. eigenvalues --    0.92969   0.96543   0.98812   1.03595   1.03967
 Alpha virt. eigenvalues --    1.05405   1.05897   1.10718   1.14857   1.15974
 Alpha virt. eigenvalues --    1.20634   1.20805   1.24521   1.28062   1.30180
 Alpha virt. eigenvalues --    1.30722   1.34106   1.34484   1.41630   1.45743
 Alpha virt. eigenvalues --    1.52246   1.56506   1.60940   1.64212   1.65710
 Alpha virt. eigenvalues --    1.71090   1.71811   1.76599   1.79129   1.82185
 Alpha virt. eigenvalues --    1.90859   1.94168   1.96608   2.00097   2.06292
 Alpha virt. eigenvalues --    2.08524   2.15738   2.19459   2.21916   2.25182
 Alpha virt. eigenvalues --    2.27939   2.35538   2.36520   2.47190   2.52098
 Alpha virt. eigenvalues --    2.68286   2.69846   2.88175   3.00769   3.14629
 Alpha virt. eigenvalues --    3.25424   3.94933   4.17809   4.23838   4.31434
 Alpha virt. eigenvalues --    4.40833   4.59506
          Condensed to atoms (all electrons):
               1          2          3          4          5          6
     1  C    5.433556   0.119283  -0.123936  -0.048506   0.022134  -0.006110
     2  C    0.119283   6.399051  -0.377077  -0.297644  -0.003518  -0.078478
     3  C   -0.123936  -0.377077   5.697975   0.144727   0.005522   0.351537
     4  O   -0.048506  -0.297644   0.144727   8.445299  -0.086566  -0.034073
     5  O    0.022134  -0.003518   0.005522  -0.086566   8.489661  -0.043152
     6  O   -0.006110  -0.078478   0.351537  -0.034073  -0.043152   8.281033
     7  H   -0.004689   0.039690  -0.033465  -0.035176   0.139728   0.070461
     8  H    0.374272   0.011113   0.000141  -0.087728   0.031748  -0.000625
     9  H    0.365925  -0.014128   0.005830  -0.009504   0.000076  -0.000304
    10  H    0.369185  -0.030212  -0.011441   0.007809  -0.001367   0.001686
    11  H   -0.003340   0.404810  -0.060828   0.005341  -0.001242  -0.001670
    12  H    0.001947   0.379432  -0.052447   0.010095   0.001645   0.004927
               7          8          9         10         11         12
     1  C   -0.004689   0.374272   0.365925   0.369185  -0.003340   0.001947
     2  C    0.039690   0.011113  -0.014128  -0.030212   0.404810   0.379432
     3  C   -0.033465   0.000141   0.005830  -0.011441  -0.060828  -0.052447
     4  O   -0.035176  -0.087728  -0.009504   0.007809   0.005341   0.010095
     5  O    0.139728   0.031748   0.000076  -0.001367  -0.001242   0.001645
     6  O    0.070461  -0.000625  -0.000304   0.001686  -0.001670   0.004927
     7  H    0.333025  -0.001165  -0.000030   0.000214  -0.000008  -0.000110
     8  H   -0.001165   0.461847  -0.021043  -0.029687  -0.000034   0.000095
     9  H   -0.000030  -0.021043   0.437282  -0.024546   0.000213  -0.000754
    10  H    0.000214  -0.029687  -0.024546   0.447540   0.000280  -0.000181
    11  H   -0.000008  -0.000034   0.000213   0.000280   0.465508  -0.023079
    12  H   -0.000110   0.000095  -0.000754  -0.000181  -0.023079   0.464219
 Mulliken charges:
               1
     1  C   -0.499721
     2  C   -0.552322
     3  C    0.453465
     4  O   -0.014074
     5  O   -0.554667
     6  O   -0.545232
     7  H    0.491524
     8  H    0.261066
     9  H    0.260983
    10  H    0.270721
    11  H    0.214048
    12  H    0.214211
 Sum of Mulliken charges =  -0.00000
 Mulliken charges with hydrogens summed into heavy atoms:
               1
     1  C    0.293049
     2  C   -0.124063
     3  C    0.453465
     4  O   -0.014074
     5  O   -0.063144
     6  O   -0.545232
 APT charges:
               1
     1  C   -1.220226
     2  C   -0.975748
     3  C    0.184500
     4  O    0.061088
     5  O   -0.579656
     6  O   -0.466553
     7  H    0.545255
     8  H    0.416868
     9  H    0.531729
    10  H    0.468879
    11  H    0.582565
    12  H    0.451298
 Sum of APT charges =  -0.00000
 APT charges with hydrogens summed into heavy atoms:
               1
     1  C    0.197250
     2  C    0.058115
     3  C    0.184500
     4  O    0.061088
     5  O   -0.034401
     6  O   -0.466553
 Electronic spatial extent (au):  <R**2>=            560.1878
 Charge=             -0.0000 electrons
 Dipole moment (field-independent basis, Debye):
    X=              1.7452    Y=             -3.1544    Z=             -1.0186  Tot=              3.7461
 Quadrupole moment (field-independent basis, Debye-Ang):
   XX=            -36.6352   YY=            -35.7790   ZZ=            -36.8381
   XY=             -3.1394   XZ=              1.4827   YZ=              2.4038
 Traceless Quadrupole moment (field-independent basis, Debye-Ang):
   XX=             -0.2177   YY=              0.6384   ZZ=             -0.4207
   XY=             -3.1394   XZ=              1.4827   YZ=              2.4038
 Octapole moment (field-independent basis, Debye-Ang**2):
  XXX=             -4.6142  YYY=            -16.3895  ZZZ=             -1.2528  XYY=             -2.4185
  XXY=              5.1248  XXZ=             -5.2422  XZZ=             -1.7534  YZZ=             -3.4939
  YYZ=              1.3389  XYZ=             -1.1144
 Hexadecapole moment (field-independent basis, Debye-Ang**3):
 XXXX=           -335.5470 YYYY=           -282.9147 ZZZZ=           -100.3862 XXXY=             -6.9278
 XXXZ=              2.7524 YYYX=             -7.5501 YYYZ=              0.4990 ZZZX=             -3.0926
 ZZZY=             -2.8194 XXYY=            -98.1870 XXZZ=            -71.6659 YYZZ=            -65.1486
 XXYZ=             -6.6412 YYXZ=             -1.2389 ZZXY=             -4.8682
 N-N= 2.463704244990D+02 E-N=-1.296911675307D+03  KE= 3.402487835453D+02
  Exact polarizability:   0.000   0.000   0.000   0.000   0.000   0.000
 Approx polarizability: 132.020  17.809 150.386  11.567  12.461  68.537
 Calling FoFJK, ICntrl=    100127 FMM=F ISym2X=0 I1Cent= 0 IOpClX= 0 NMat=1 NMatS=1 NMatT=0.
 -------------------------------------------------------------------
 Center     Atomic                   Forces (Hartrees/Bohr)
 Number     Number              X              Y              Z
 -------------------------------------------------------------------
      1        6          -0.000000338   -0.000000627    0.000000911
      2        6          -0.000000645   -0.000000366    0.000000115
      3        6          -0.000000382    0.000000570   -0.000000485
      4        8           0.000000520    0.000000374    0.000000090
      5        8          -0.000000307   -0.000000295    0.000000296
      6        8           0.000000032   -0.000000632   -0.000000158
      7        1          -0.000000014   -0.000000142   -0.000000004
      8        1           0.000000084   -0.000000203    0.000000564
      9        1           0.000000187    0.000000196    0.000000266
     10        1           0.000000230   -0.000000087   -0.000000228
     11        1           0.000000447    0.000000547   -0.000000911
     12        1           0.000000186    0.000000665   -0.000000454
 -------------------------------------------------------------------
 Cartesian Forces:  Max     0.000000911 RMS     0.000000421
 IRC-IRC-IRC-IRC-IRC-IRC-IRC-IRC-IRC-IRC-IRC-IRC-IRC-IRC-IRC-IRC-IRC-IRC
          ******** Start new reaction path calculation ********
 Supplied step size of   0.1500 bohr.
    Integration on MW PES will use step size of   0.2839 sqrt(amu)*bohr.
 Point Number:   0          Path Number:   1
 Calculating another point on the path.
 IRC-IRC-IRC-IRC-IRC-IRC-IRC-IRC-IRC-IRC-IRC-IRC-IRC-IRC-IRC-IRC-IRC-IRC
                          Input orientation:                          
 ---------------------------------------------------------------------
 Center     Atomic      Atomic             Coordinates (Angstroms)
 Number     Number       Type             X           Y           Z
 ---------------------------------------------------------------------
      1          6           0        0.494502   -1.763583   -0.595425
      2          6           0        1.763723    0.281255    0.427348
      3          6           0        0.502996    0.673437    0.055414
      4          8           0       -0.479543   -0.444155    0.602697
      5          8           0       -1.811666   -0.158286    0.186601
      6          8           0       -0.061060    1.505234   -0.631527
      7          1           0       -1.647507    0.655957   -0.367205
      8          1           0       -0.515136   -1.989627   -0.924295
      9          1           0        0.901120   -2.381366    0.195687
     10          1           0        1.190818   -1.427416   -1.351666
     11          1           0        2.615327    0.779224   -0.021210
     12          1           0        1.910218   -0.333414    1.306234
 ---------------------------------------------------------------------
                    Distance matrix (angstroms):
                    1          2          3          4          5
     1  C    0.000000
     2  C    2.615023   0.000000
     3  C    2.522445   1.371704   0.000000
     4  O    2.031047   2.364151   1.585533   0.000000
     5  O    2.916668   3.610341   2.463054   1.424573   0.000000
     6  O    3.315888   2.439092   1.217347   2.344900   2.549756
     7  H    3.239516   3.522528   2.191707   1.874859   0.998319
     8  H    1.085643   3.489561   3.014686   2.172890   2.503774
     9  H    1.082983   2.808434   3.083829   2.413436   3.507331
    10  H    1.081557   2.532325   2.620412   2.752535   3.604424
    11  H    3.360579   1.083701   2.116366   3.385874   4.529943
    12  H    2.768744   1.082460   2.135082   2.493629   3.890587
                    6          7          8          9         10
     6  O    0.000000
     7  H    1.818778   0.000000
     8  H    3.536375   2.931165   0.000000
     9  H    4.088488   4.004708   1.847593   0.000000
    10  H    3.268981   3.655914   1.846350   1.840720   0.000000
    11  H    2.839476   4.278629   4.275734   3.602067   2.944249
    12  H    3.319861   4.054216   3.687905   2.538839   2.962906
                   11         12
    11  H    0.000000
    12  H    1.870094   0.000000
 Symmetry turned off by external request.
 Stoichiometry    C3H6O3
 Framework group  C1[X(C3H6O3)]
 Deg. of freedom    30
 Full point group                 C1      NOp   1
 Rotational constants (GHZ):           4.2268148           3.6165972           2.3848524
 Standard basis: 6-31+G(d) (6D, 7F)
   126 basis functions,   216 primitive gaussians,   126 cartesian basis functions
    24 alpha electrons       24 beta electrons
       nuclear repulsion energy       246.3834464076 Hartrees.
 NAtoms=   12 NActive=   12 NUniq=   12 SFac= 1.00D+00 NAtFMM=   60 NAOKFM=F Big=F
 Integral buffers will be    131072 words long.
 Raffenetti 2 integral format.
 Two-electron integral symmetry is turned off.
 One-electron integrals computed using PRISM.
 NBasis=   126 RedAO= T EigKep=  6.29D-05  NBF=   126
 NBsUse=   126 1.00D-06 EigRej= -1.00D+00 NBFU=   126
 Initial guess from the checkpoint file:  "/scratch/bell/zhao922/YARP/paper-example/KHP-network/pp_0/IRC-folder/Gau-116250.chk"
 B after Tr=     0.086770   -0.091638   -0.022687
         Rot=    1.000000   -0.000061    0.000063   -0.000056 Ang=  -0.01 deg.
 ExpMin= 4.38D-02 ExpMax= 5.48D+03 ExpMxC= 8.25D+02 IAcc=3 IRadAn=         5 AccDes= 0.00D+00
 Harris functional with IExCor=  402 and IRadAn=       5 diagonalized for initial guess.
 HarFok:  IExCor=  402 AccDes= 0.00D+00 IRadAn=         5 IDoV= 1 UseB2=F ITyADJ=14
 ICtDFT=  3500011 ScaDFX=  1.000000  1.000000  1.000000  1.000000
 FoFCou: FMM=F IPFlag=           0 FMFlag=      100000 FMFlg1=           0
         NFxFlg=           0 DoJE=T BraDBF=F KetDBF=T FulRan=T
         wScrn=  0.000000 ICntrl=       500 IOpCl=  0 I1Cent=   200000004 NGrid=           0
         NMat0=    1 NMatS0=      1 NMatT0=    0 NMatD0=    1 NMtDS0=    0 NMtDT0=    0
 Symmetry not used in FoFCou.
 Keep R1 ints in memory in canonical form, NReq=47237219.
 Requested convergence on RMS density matrix=1.00D-08 within 128 cycles.
 Requested convergence on MAX density matrix=1.00D-06.
 Requested convergence on             energy=1.00D-06.
 No special actions if energy rises.
 SCF Done:  E(RB3LYP) =  -343.373715407     A.U. after   13 cycles
            NFock= 13  Conv=0.36D-08     -V/T= 2.0092
 DoSCS=F DFT=T ScalE2(SS,OS)=  1.000000  1.000000
 Range of M.O.s used for correlation:     1   126
 NBasis=   126 NAE=    24 NBE=    24 NFC=     0 NFV=     0
 NROrb=    126 NOA=    24 NOB=    24 NVA=   102 NVB=   102

 **** Warning!!: The largest alpha MO coefficient is  0.32070424D+02


 **** Warning!!: The smallest alpha delta epsilon is  0.90466223D-01

 Symmetrizing basis deriv contribution to polar:
 IMax=3 JMax=2 DiffMx= 0.00D+00
 G2DrvN: will do    13 centers at a time, making    1 passes.
 Calling FoFCou, ICntrl=  3107 FMM=F I1Cent=   0 AccDes= 0.00D+00.
 End of G2Drv F.D. properties file   721 does not exist.
 End of G2Drv F.D. properties file   722 does not exist.
 End of G2Drv F.D. properties file   788 does not exist.
          IDoAtm=111111111111
          Differentiating once with respect to nuclear coordinates.
 Keep R1 ints in memory in canonical form, NReq=47193241.
          There are    39 degrees of freedom in the 1st order CPHF.  IDoFFX=6 NUNeed=     0.
     33 vectors produced by pass  0 Test12= 6.28D-15 2.56D-09 XBig12= 1.87D-01 2.60D-01.
 AX will form    33 AO Fock derivatives at one time.
     33 vectors produced by pass  1 Test12= 6.28D-15 2.56D-09 XBig12= 4.35D-02 5.64D-02.
     33 vectors produced by pass  2 Test12= 6.28D-15 2.56D-09 XBig12= 6.99D-04 4.69D-03.
     33 vectors produced by pass  3 Test12= 6.28D-15 2.56D-09 XBig12= 3.37D-06 3.07D-04.
     33 vectors produced by pass  4 Test12= 6.28D-15 2.56D-09 XBig12= 6.76D-09 1.61D-05.
     31 vectors produced by pass  5 Test12= 6.28D-15 2.56D-09 XBig12= 7.57D-12 3.82D-07.
      7 vectors produced by pass  6 Test12= 6.28D-15 2.56D-09 XBig12= 7.68D-15 1.20D-08.
 InvSVY:  IOpt=1 It=  1 EMax= 2.22D-15
 Solved reduced A of dimension   203 with    33 vectors.
 End of Minotr F.D. properties file   721 does not exist.
 End of Minotr F.D. properties file   722 does not exist.
 End of Minotr F.D. properties file   788 does not exist.
 Calling FoFJK, ICntrl=    100127 FMM=F ISym2X=0 I1Cent= 0 IOpClX= 0 NMat=1 NMatS=1 NMatT=0.
 -------------------------------------------------------------------
 Center     Atomic                   Forces (Hartrees/Bohr)
 Number     Number              X              Y              Z
 -------------------------------------------------------------------
      1        6          -0.008517561    0.000853256    0.003044867
      2        6           0.001239153    0.003484804    0.002090572
      3        6           0.005048126    0.004271142   -0.000524201
      4        8           0.002088041   -0.007861252   -0.005382839
      5        8           0.001811966   -0.001147689    0.000100735
      6        8          -0.001128160   -0.000106944   -0.000501701
      7        1           0.000353892   -0.000050532    0.000010840
      8        1           0.000334316   -0.001084871   -0.000076546
      9        1          -0.000143543    0.000235031    0.000020166
     10        1          -0.001231028    0.001111376    0.001002611
     11        1           0.000151736    0.000462315    0.000514751
     12        1          -0.000006939   -0.000166636   -0.000299253
 -------------------------------------------------------------------
 Cartesian Forces:  Max     0.008517561 RMS     0.002644456
 IRC-IRC-IRC-IRC-IRC-IRC-IRC-IRC-IRC-IRC-IRC-IRC-IRC-IRC-IRC-IRC-IRC-IRC
 Pt  1 Step number   1 out of a maximum of 100
 Modified Bulirsch-Stoer Extrapolation Cycles:
    EPS =    0.000010000000000
      PEZero:  N= 2 I= 1 D=  7.39D-04 Err=  1.10D-03
      PEZero:  N= 3 I= 2 D=  7.39D-04 Err=  7.35D-04
      PEZero:  N= 3 I= 1 D=  1.48D-03 Err=  1.02D-07
 Maximum DWI energy   std dev =  0.000000600 at pt     1
 Maximum DWI gradient std dev =  0.040733776 at pt    21
 CORRECTOR INTEGRATION CONVERGENCE:
   Recorrection delta-x convergence threshold:    0.010000
   Delta-x Convergence Met
 Point Number:   1          Path Number:   1
   CHANGE IN THE REACTION COORDINATE =    0.28388
   NET REACTION COORDINATE UP TO THIS POINT =    0.28388
  # OF POINTS ALONG THE PATH =   1
  # OF STEPS =   1

 Calculating another point on the path.
 IRC-IRC-IRC-IRC-IRC-IRC-IRC-IRC-IRC-IRC-IRC-IRC-IRC-IRC-IRC-IRC-IRC-IRC
                          Input orientation:                          
 ---------------------------------------------------------------------
 Center     Atomic      Atomic             Coordinates (Angstroms)
 Number     Number       Type             X           Y           Z
 ---------------------------------------------------------------------
      1          6           0        0.472931   -1.761054   -0.586371
      2          6           0        1.766612    0.290261    0.432270
      3          6           0        0.516367    0.684102    0.054400
      4          8           0       -0.475450   -0.459329    0.592192
      5          8           0       -1.808025   -0.160646    0.186694
      6          8           0       -0.063411    1.505235   -0.632599
      7          1           0       -1.636869    0.654348   -0.366731
      8          1           0       -0.522195   -2.026303   -0.930176
      9          1           0        0.897164   -2.375473    0.198439
     10          1           0        1.164042   -1.388207   -1.330223
     11          1           0        2.620449    0.793727   -0.005813
     12          1           0        1.910060   -0.340814    1.299958
 ---------------------------------------------------------------------
                    Distance matrix (angstroms):
                    1          2          3          4          5
     1  C    0.000000
     2  C    2.630425   0.000000
     3  C    2.528095   1.364188   0.000000
     4  O    1.995727   2.369452   1.606348   0.000000
     5  O    2.891660   3.611323   2.476671   1.424568   0.000000
     6  O    3.310354   2.441125   1.217526   2.351468   2.547563
     7  H    3.214602   3.514917   2.194233   1.873153   0.999894
     8  H    1.085741   3.530066   3.065011   2.185222   2.526150
     9  H    1.083241   2.813673   3.086544   2.389711   3.496233
    10  H    1.081649   2.507335   2.575098   2.691919   3.555436
    11  H    3.387593   1.083712   2.107796   3.392985   4.534233
    12  H    2.764174   1.082459   2.131725   2.491112   3.885354
                    6          7          8          9         10
     6  O    0.000000
     7  H    1.808442   0.000000
     8  H    3.573625   2.957340   0.000000
     9  H    4.083286   3.990057   1.846692   0.000000
    10  H    3.219523   3.597979   1.846780   1.839218   0.000000
    11  H    2.846438   4.274861   4.322409   3.613206   2.938711
    12  H    3.322238   4.043378   3.705433   2.525696   2.927700
                   11         12
    11  H    0.000000
    12  H    1.869993   0.000000
 Symmetry turned off by external request.
 Stoichiometry    C3H6O3
 Framework group  C1[X(C3H6O3)]
 Deg. of freedom    30
 Full point group                 C1      NOp   1
 Rotational constants (GHZ):           4.2406044           3.6210339           2.3837533
 Standard basis: 6-31+G(d) (6D, 7F)
   126 basis functions,   216 primitive gaussians,   126 cartesian basis functions
    24 alpha electrons       24 beta electrons
       nuclear repulsion energy       246.4533192092 Hartrees.
 NAtoms=   12 NActive=   12 NUniq=   12 SFac= 1.00D+00 NAtFMM=   60 NAOKFM=F Big=F
 Integral buffers will be    131072 words long.
 Raffenetti 2 integral format.
 Two-electron integral symmetry is turned off.
 One-electron integrals computed using PRISM.
 NBasis=   126 RedAO= T EigKep=  6.11D-05  NBF=   126
 NBsUse=   126 1.00D-06 EigRej= -1.00D+00 NBFU=   126
 Initial guess from the checkpoint file:  "/scratch/bell/zhao922/YARP/paper-example/KHP-network/pp_0/IRC-folder/Gau-116250.chk"
 B after Tr=    -0.000445    0.000258    0.000545
         Rot=    1.000000   -0.000063    0.000061   -0.000053 Ang=  -0.01 deg.
 ExpMin= 4.38D-02 ExpMax= 5.48D+03 ExpMxC= 8.25D+02 IAcc=3 IRadAn=         5 AccDes= 0.00D+00
 Harris functional with IExCor=  402 and IRadAn=       5 diagonalized for initial guess.
 HarFok:  IExCor=  402 AccDes= 0.00D+00 IRadAn=         5 IDoV= 1 UseB2=F ITyADJ=14
 ICtDFT=  3500011 ScaDFX=  1.000000  1.000000  1.000000  1.000000
 FoFCou: FMM=F IPFlag=           0 FMFlag=      100000 FMFlg1=           0
         NFxFlg=           0 DoJE=T BraDBF=F KetDBF=T FulRan=T
         wScrn=  0.000000 ICntrl=       500 IOpCl=  0 I1Cent=   200000004 NGrid=           0
         NMat0=    1 NMatS0=      1 NMatT0=    0 NMatD0=    1 NMtDS0=    0 NMtDT0=    0
 Symmetry not used in FoFCou.
 Keep R1 ints in memory in canonical form, NReq=47237219.
 Requested convergence on RMS density matrix=1.00D-08 within 128 cycles.
 Requested convergence on MAX density matrix=1.00D-06.
 Requested convergence on             energy=1.00D-06.
 No special actions if energy rises.
 SCF Done:  E(RB3LYP) =  -343.375765991     A.U. after   13 cycles
            NFock= 13  Conv=0.40D-08     -V/T= 2.0092
 DoSCS=F DFT=T ScalE2(SS,OS)=  1.000000  1.000000
 Range of M.O.s used for correlation:     1   126
 NBasis=   126 NAE=    24 NBE=    24 NFC=     0 NFV=     0
 NROrb=    126 NOA=    24 NOB=    24 NVA=   102 NVB=   102

 **** Warning!!: The largest alpha MO coefficient is  0.32735535D+02


 **** Warning!!: The smallest alpha delta epsilon is  0.90934841D-01

 Symmetrizing basis deriv contribution to polar:
 IMax=3 JMax=2 DiffMx= 0.00D+00
 G2DrvN: will do    13 centers at a time, making    1 passes.
 Calling FoFCou, ICntrl=  3107 FMM=F I1Cent=   0 AccDes= 0.00D+00.
 End of G2Drv F.D. properties file   721 does not exist.
 End of G2Drv F.D. properties file   722 does not exist.
 End of G2Drv F.D. properties file   788 does not exist.
          IDoAtm=111111111111
          Differentiating once with respect to nuclear coordinates.
 Keep R1 ints in memory in canonical form, NReq=47193241.
          There are    39 degrees of freedom in the 1st order CPHF.  IDoFFX=6 NUNeed=     0.
     33 vectors produced by pass  0 Test12= 6.28D-15 2.56D-09 XBig12= 1.76D-01 2.55D-01.
 AX will form    33 AO Fock derivatives at one time.
     33 vectors produced by pass  1 Test12= 6.28D-15 2.56D-09 XBig12= 4.25D-02 5.98D-02.
     33 vectors produced by pass  2 Test12= 6.28D-15 2.56D-09 XBig12= 6.60D-04 4.90D-03.
     33 vectors produced by pass  3 Test12= 6.28D-15 2.56D-09 XBig12= 2.73D-06 2.58D-04.
     33 vectors produced by pass  4 Test12= 6.28D-15 2.56D-09 XBig12= 5.86D-09 1.71D-05.
     30 vectors produced by pass  5 Test12= 6.28D-15 2.56D-09 XBig12= 6.85D-12 3.92D-07.
      7 vectors produced by pass  6 Test12= 6.28D-15 2.56D-09 XBig12= 6.98D-15 1.20D-08.
 InvSVY:  IOpt=1 It=  1 EMax= 1.78D-15
 Solved reduced A of dimension   202 with    33 vectors.
 End of Minotr F.D. properties file   721 does not exist.
 End of Minotr F.D. properties file   722 does not exist.
 End of Minotr F.D. properties file   788 does not exist.
 Calling FoFJK, ICntrl=    100127 FMM=F ISym2X=0 I1Cent= 0 IOpClX= 0 NMat=1 NMatS=1 NMatT=0.
 -------------------------------------------------------------------
 Center     Atomic                   Forces (Hartrees/Bohr)
 Number     Number              X              Y              Z
 -------------------------------------------------------------------
      1        6          -0.016839856    0.002104823    0.006696655
      2        6           0.002447165    0.006655554    0.003809436
      3        6           0.009652167    0.008272735   -0.000880784
      4        8           0.004490635   -0.015409215   -0.010653982
      5        8           0.003747889   -0.002455826   -0.000083185
      6        8          -0.002244678   -0.000124204   -0.000978478
      7        1           0.000665524   -0.000118121    0.000065698
      8        1           0.000140578   -0.002187433   -0.000264661
      9        1          -0.000295936    0.000438306    0.000128126
     10        1          -0.002048888    0.002310426    0.001648789
     11        1           0.000299221    0.000928007    0.001035912
     12        1          -0.000013821   -0.000415051   -0.000523526
 -------------------------------------------------------------------
 Cartesian Forces:  Max     0.016839856 RMS     0.005211103
 IRC-IRC-IRC-IRC-IRC-IRC-IRC-IRC-IRC-IRC-IRC-IRC-IRC-IRC-IRC-IRC-IRC-IRC
 Pt  2 Step number   1 out of a maximum of 100
 Modified Bulirsch-Stoer Extrapolation Cycles:
    EPS =    0.000010000000000
      PEZero:  N= 2 I= 1 D=  1.48D-03 Err=  2.83D-05
      PEZero:  N= 3 I= 2 D=  1.48D-03 Err=  1.88D-05
      PEZero:  N= 3 I= 1 D=  2.96D-03 Err=  6.71D-08
 Maximum DWI energy   std dev =  0.000002963 at pt    26
 Maximum DWI gradient std dev =  0.022901418 at pt    23
 CORRECTOR INTEGRATION CONVERGENCE:
   Recorrection delta-x convergence threshold:    0.010000
   Delta-x Convergence Met
 Point Number:   2          Path Number:   1
   CHANGE IN THE REACTION COORDINATE =    0.28379
   NET REACTION COORDINATE UP TO THIS POINT =    0.56767
  # OF POINTS ALONG THE PATH =   2
  # OF STEPS =   1

 Calculating another point on the path.
 IRC-IRC-IRC-IRC-IRC-IRC-IRC-IRC-IRC-IRC-IRC-IRC-IRC-IRC-IRC-IRC-IRC-IRC
                          Input orientation:                          
 ---------------------------------------------------------------------
 Center     Atomic      Atomic             Coordinates (Angstroms)
 Number     Number       Type             X           Y           Z
 ---------------------------------------------------------------------
      1          6           0        0.451017   -1.757979   -0.576948
      2          6           0        1.769612    0.298897    0.436976
      3          6           0        0.529057    0.694732    0.053485
      4          8           0       -0.470850   -0.474431    0.581660
      5          8           0       -1.804271   -0.163204    0.186503
      6          8           0       -0.065680    1.505205   -0.633617
      7          1           0       -1.626522    0.652962   -0.365690
      8          1           0       -0.527597   -2.061893   -0.936308
      9          1           0        0.892583   -2.369016    0.201394
     10          1           0        1.136176   -1.350228   -1.308277
     11          1           0        2.625456    0.808719    0.010294
     12          1           0        1.910071   -0.348519    1.293025
 ---------------------------------------------------------------------
                    Distance matrix (angstroms):
                    1          2          3          4          5
     1  C    0.000000
     2  C    2.645274   0.000000
     3  C    2.533640   1.357471   0.000000
     4  O    1.959517   2.374582   1.626569   0.000000
     5  O    2.865744   3.612328   2.489613   1.425140   0.000000
     6  O    3.304324   2.443286   1.217656   2.357969   2.545366
     7  H    3.189583   3.507615   2.196355   1.871915   1.001319
     8  H    1.085904   3.568811   3.113710   2.197154   2.548651
     9  H    1.083588   2.818233   3.088783   2.364953   3.484085
    10  H    1.081919   2.483296   2.530780   2.630858   3.505656
    11  H    3.414818   1.083718   2.099940   3.400006   4.538520
    12  H    2.759025   1.082449   2.128857   2.488108   3.880087
                    6          7          8          9         10
     6  O    0.000000
     7  H    1.798425   0.000000
     8  H    3.609595   2.983904   0.000000
     9  H    4.077388   3.974900   1.845428   0.000000
    10  H    3.170665   3.540303   1.847423   1.837491   0.000000
    11  H    2.853406   4.271410   4.367861   3.624550   2.935580
    12  H    3.324430   4.032591   3.721264   2.511842   2.892941
                   11         12
    11  H    0.000000
    12  H    1.869859   0.000000
 Symmetry turned off by external request.
 Stoichiometry    C3H6O3
 Framework group  C1[X(C3H6O3)]
 Deg. of freedom    30
 Full point group                 C1      NOp   1
 Rotational constants (GHZ):           4.2597256           3.6227573           2.3827525
 Standard basis: 6-31+G(d) (6D, 7F)
   126 basis functions,   216 primitive gaussians,   126 cartesian basis functions
    24 alpha electrons       24 beta electrons
       nuclear repulsion energy       246.5517013743 Hartrees.
 NAtoms=   12 NActive=   12 NUniq=   12 SFac= 1.00D+00 NAtFMM=   60 NAOKFM=F Big=F
 Integral buffers will be    131072 words long.
 Raffenetti 2 integral format.
 Two-electron integral symmetry is turned off.
 One-electron integrals computed using PRISM.
 NBasis=   126 RedAO= T EigKep=  5.97D-05  NBF=   126
 NBsUse=   126 1.00D-06 EigRej= -1.00D+00 NBFU=   126
 Initial guess from the checkpoint file:  "/scratch/bell/zhao922/YARP/paper-example/KHP-network/pp_0/IRC-folder/Gau-116250.chk"
 B after Tr=    -0.000451    0.000275    0.000566
         Rot=    1.000000   -0.000063    0.000062   -0.000052 Ang=  -0.01 deg.
 ExpMin= 4.38D-02 ExpMax= 5.48D+03 ExpMxC= 8.25D+02 IAcc=3 IRadAn=         5 AccDes= 0.00D+00
 Harris functional with IExCor=  402 and IRadAn=       5 diagonalized for initial guess.
 HarFok:  IExCor=  402 AccDes= 0.00D+00 IRadAn=         5 IDoV= 1 UseB2=F ITyADJ=14
 ICtDFT=  3500011 ScaDFX=  1.000000  1.000000  1.000000  1.000000
 FoFCou: FMM=F IPFlag=           0 FMFlag=      100000 FMFlg1=           0
         NFxFlg=           0 DoJE=T BraDBF=F KetDBF=T FulRan=T
         wScrn=  0.000000 ICntrl=       500 IOpCl=  0 I1Cent=   200000004 NGrid=           0
         NMat0=    1 NMatS0=      1 NMatT0=    0 NMatD0=    1 NMtDS0=    0 NMtDT0=    0
 Symmetry not used in FoFCou.
 Keep R1 ints in memory in canonical form, NReq=47237219.
 Requested convergence on RMS density matrix=1.00D-08 within 128 cycles.
 Requested convergence on MAX density matrix=1.00D-06.
 Requested convergence on             energy=1.00D-06.
 No special actions if energy rises.
 SCF Done:  E(RB3LYP) =  -343.379094319     A.U. after   13 cycles
            NFock= 13  Conv=0.40D-08     -V/T= 2.0093
 DoSCS=F DFT=T ScalE2(SS,OS)=  1.000000  1.000000
 Range of M.O.s used for correlation:     1   126
 NBasis=   126 NAE=    24 NBE=    24 NFC=     0 NFV=     0
 NROrb=    126 NOA=    24 NOB=    24 NVA=   102 NVB=   102

 **** Warning!!: The largest alpha MO coefficient is  0.32649852D+02


 **** Warning!!: The smallest alpha delta epsilon is  0.93252659D-01

 Symmetrizing basis deriv contribution to polar:
 IMax=3 JMax=2 DiffMx= 0.00D+00
 G2DrvN: will do    13 centers at a time, making    1 passes.
 Calling FoFCou, ICntrl=  3107 FMM=F I1Cent=   0 AccDes= 0.00D+00.
 End of G2Drv F.D. properties file   721 does not exist.
 End of G2Drv F.D. properties file   722 does not exist.
 End of G2Drv F.D. properties file   788 does not exist.
          IDoAtm=111111111111
          Differentiating once with respect to nuclear coordinates.
 Keep R1 ints in memory in canonical form, NReq=47193241.
          There are    39 degrees of freedom in the 1st order CPHF.  IDoFFX=6 NUNeed=     0.
     33 vectors produced by pass  0 Test12= 6.28D-15 2.56D-09 XBig12= 1.64D-01 2.39D-01.
 AX will form    33 AO Fock derivatives at one time.
     33 vectors produced by pass  1 Test12= 6.28D-15 2.56D-09 XBig12= 3.74D-02 5.75D-02.
     33 vectors produced by pass  2 Test12= 6.28D-15 2.56D-09 XBig12= 5.62D-04 4.97D-03.
     33 vectors produced by pass  3 Test12= 6.28D-15 2.56D-09 XBig12= 2.15D-06 2.43D-04.
     33 vectors produced by pass  4 Test12= 6.28D-15 2.56D-09 XBig12= 4.83D-09 1.46D-05.
     30 vectors produced by pass  5 Test12= 6.28D-15 2.56D-09 XBig12= 5.72D-12 3.53D-07.
      5 vectors produced by pass  6 Test12= 6.28D-15 2.56D-09 XBig12= 5.58D-15 1.20D-08.
 InvSVY:  IOpt=1 It=  1 EMax= 2.00D-15
 Solved reduced A of dimension   200 with    33 vectors.
 End of Minotr F.D. properties file   721 does not exist.
 End of Minotr F.D. properties file   722 does not exist.
 End of Minotr F.D. properties file   788 does not exist.
 Calling FoFJK, ICntrl=    100127 FMM=F ISym2X=0 I1Cent= 0 IOpClX= 0 NMat=1 NMatS=1 NMatT=0.
 -------------------------------------------------------------------
 Center     Atomic                   Forces (Hartrees/Bohr)
 Number     Number              X              Y              Z
 -------------------------------------------------------------------
      1        6          -0.024665336    0.003721652    0.010320383
      2        6           0.003677756    0.009277931    0.005221100
      3        6           0.013189357    0.011833517   -0.001144396
      4        8           0.007241694   -0.022192689   -0.015465128
      5        8           0.005641041   -0.003876210   -0.000582584
      6        8          -0.003121802   -0.000164258   -0.001337660
      7        1           0.000914910   -0.000177422    0.000161577
      8        1           0.000058426   -0.003075498   -0.000438375
      9        1          -0.000484097    0.000660470    0.000235336
     10        1          -0.002878094    0.003253993    0.002247084
     11        1           0.000431496    0.001395345    0.001562727
     12        1          -0.000005352   -0.000656829   -0.000780063
 -------------------------------------------------------------------
 Cartesian Forces:  Max     0.024665336 RMS     0.007554604
 IRC-IRC-IRC-IRC-IRC-IRC-IRC-IRC-IRC-IRC-IRC-IRC-IRC-IRC-IRC-IRC-IRC-IRC
 Pt  3 Step number   1 out of a maximum of 100
 Modified Bulirsch-Stoer Extrapolation Cycles:
    EPS =    0.000010000000000
      PEZero:  N= 2 I= 1 D=  1.48D-03 Err=  3.03D-05
      PEZero:  N= 3 I= 2 D=  1.48D-03 Err=  2.02D-05
      PEZero:  N= 3 I= 1 D=  2.96D-03 Err=  7.44D-08
 Maximum DWI energy   std dev =  0.000005426 at pt    27
 Maximum DWI gradient std dev =  0.013292573 at pt    24
 CORRECTOR INTEGRATION CONVERGENCE:
   Recorrection delta-x convergence threshold:    0.010000
   Delta-x Convergence Met
 Point Number:   3          Path Number:   1
   CHANGE IN THE REACTION COORDINATE =    0.28380
   NET REACTION COORDINATE UP TO THIS POINT =    0.85147
  # OF POINTS ALONG THE PATH =   3
  # OF STEPS =   1

 Calculating another point on the path.
 IRC-IRC-IRC-IRC-IRC-IRC-IRC-IRC-IRC-IRC-IRC-IRC-IRC-IRC-IRC-IRC-IRC-IRC
                          Input orientation:                          
 ---------------------------------------------------------------------
 Center     Atomic      Atomic             Coordinates (Angstroms)
 Number     Number       Type             X           Y           Z
 ---------------------------------------------------------------------
      1          6           0        0.428662   -1.754266   -0.567100
      2          6           0        1.772844    0.307254    0.441495
      3          6           0        0.540900    0.705249    0.052608
      4          8           0       -0.465687   -0.489489    0.571102
      5          8           0       -1.800377   -0.166012    0.185986
      6          8           0       -0.067807    1.505169   -0.634548
      7          1           0       -1.616715    0.651639   -0.364070
      8          1           0       -0.531590   -2.095879   -0.942428
      9          1           0        0.887189   -2.362021    0.204559
     10          1           0        1.107279   -1.314354   -1.286326
     11          1           0        2.630460    0.824337    0.027295
     12          1           0        1.910244   -0.356531    1.285344
 ---------------------------------------------------------------------
                    Distance matrix (angstroms):
                    1          2          3          4          5
     1  C    0.000000
     2  C    2.659691   0.000000
     3  C    2.538868   1.351783   0.000000
     4  O    1.922245   2.379626   1.646042   0.000000
     5  O    2.838716   3.613471   2.501692   1.426306   0.000000
     6  O    3.297718   2.445581   1.217612   2.364437   2.543211
     7  H    3.164359   3.500949   2.198135   1.871252   1.002420
     8  H    1.086119   3.605649   3.160166   2.208077   2.570511
     9  H    1.084007   2.822331   3.090493   2.339017   3.470708
    10  H    1.082280   2.461291   2.488438   2.569954   3.455555
    11  H    3.442442   1.083716   2.093103   3.407050   4.542938
    12  H    2.753234   1.082391   2.126527   2.484526   3.874738
                    6          7          8          9         10
     6  O    0.000000
     7  H    1.789075   0.000000
     8  H    3.643821   3.010124   0.000000
     9  H    4.070783   3.959169   1.843731   0.000000
    10  H    3.123356   3.483651   1.847955   1.835425   0.000000
    11  H    2.860456   4.268662   4.412094   3.636384   2.935928
    12  H    3.326349   4.021991   3.735084   2.497343   2.859312
                   11         12
    11  H    0.000000
    12  H    1.869719   0.000000
 Symmetry turned off by external request.
 Stoichiometry    C3H6O3
 Framework group  C1[X(C3H6O3)]
 Deg. of freedom    30
 Full point group                 C1      NOp   1
 Rotational constants (GHZ):           4.2841411           3.6219817           2.3818621
 Standard basis: 6-31+G(d) (6D, 7F)
   126 basis functions,   216 primitive gaussians,   126 cartesian basis functions
    24 alpha electrons       24 beta electrons
       nuclear repulsion energy       246.6814615644 Hartrees.
 NAtoms=   12 NActive=   12 NUniq=   12 SFac= 1.00D+00 NAtFMM=   60 NAOKFM=F Big=F
 Integral buffers will be    131072 words long.
 Raffenetti 2 integral format.
 Two-electron integral symmetry is turned off.
 One-electron integrals computed using PRISM.
 NBasis=   126 RedAO= T EigKep=  5.85D-05  NBF=   126
 NBsUse=   126 1.00D-06 EigRej= -1.00D+00 NBFU=   126
 Initial guess from the checkpoint file:  "/scratch/bell/zhao922/YARP/paper-example/KHP-network/pp_0/IRC-folder/Gau-116250.chk"
 B after Tr=    -0.000466    0.000283    0.000584
         Rot=    1.000000   -0.000063    0.000062   -0.000048 Ang=  -0.01 deg.
 ExpMin= 4.38D-02 ExpMax= 5.48D+03 ExpMxC= 8.25D+02 IAcc=3 IRadAn=         5 AccDes= 0.00D+00
 Harris functional with IExCor=  402 and IRadAn=       5 diagonalized for initial guess.
 HarFok:  IExCor=  402 AccDes= 0.00D+00 IRadAn=         5 IDoV= 1 UseB2=F ITyADJ=14
 ICtDFT=  3500011 ScaDFX=  1.000000  1.000000  1.000000  1.000000
 FoFCou: FMM=F IPFlag=           0 FMFlag=      100000 FMFlg1=           0
         NFxFlg=           0 DoJE=T BraDBF=F KetDBF=T FulRan=T
         wScrn=  0.000000 ICntrl=       500 IOpCl=  0 I1Cent=   200000004 NGrid=           0
         NMat0=    1 NMatS0=      1 NMatT0=    0 NMatD0=    1 NMtDS0=    0 NMtDT0=    0
 Symmetry not used in FoFCou.
 Keep R1 ints in memory in canonical form, NReq=47237219.
 Requested convergence on RMS density matrix=1.00D-08 within 128 cycles.
 Requested convergence on MAX density matrix=1.00D-06.
 Requested convergence on             energy=1.00D-06.
 No special actions if energy rises.
 SCF Done:  E(RB3LYP) =  -343.383521002     A.U. after   13 cycles
            NFock= 13  Conv=0.34D-08     -V/T= 2.0093
 DoSCS=F DFT=T ScalE2(SS,OS)=  1.000000  1.000000
 Range of M.O.s used for correlation:     1   126
 NBasis=   126 NAE=    24 NBE=    24 NFC=     0 NFV=     0
 NROrb=    126 NOA=    24 NOB=    24 NVA=   102 NVB=   102

 **** Warning!!: The largest alpha MO coefficient is  0.32206140D+02


 **** Warning!!: The smallest alpha delta epsilon is  0.98018651D-01

 Symmetrizing basis deriv contribution to polar:
 IMax=3 JMax=2 DiffMx= 0.00D+00
 G2DrvN: will do    13 centers at a time, making    1 passes.
 Calling FoFCou, ICntrl=  3107 FMM=F I1Cent=   0 AccDes= 0.00D+00.
 End of G2Drv F.D. properties file   721 does not exist.
 End of G2Drv F.D. properties file   722 does not exist.
 End of G2Drv F.D. properties file   788 does not exist.
          IDoAtm=111111111111
          Differentiating once with respect to nuclear coordinates.
 Keep R1 ints in memory in canonical form, NReq=47193241.
          There are    39 degrees of freedom in the 1st order CPHF.  IDoFFX=6 NUNeed=     0.
     33 vectors produced by pass  0 Test12= 6.28D-15 2.56D-09 XBig12= 1.59D-01 2.10D-01.
 AX will form    33 AO Fock derivatives at one time.
     33 vectors produced by pass  1 Test12= 6.28D-15 2.56D-09 XBig12= 2.83D-02 4.84D-02.
     33 vectors produced by pass  2 Test12= 6.28D-15 2.56D-09 XBig12= 4.70D-04 4.64D-03.
     33 vectors produced by pass  3 Test12= 6.28D-15 2.56D-09 XBig12= 1.83D-06 2.25D-04.
     33 vectors produced by pass  4 Test12= 6.28D-15 2.56D-09 XBig12= 4.21D-09 1.06D-05.
     30 vectors produced by pass  5 Test12= 6.28D-15 2.56D-09 XBig12= 5.04D-12 3.45D-07.
      4 vectors produced by pass  6 Test12= 6.28D-15 2.56D-09 XBig12= 4.93D-15 1.24D-08.
 InvSVY:  IOpt=1 It=  1 EMax= 1.89D-15
 Solved reduced A of dimension   199 with    33 vectors.
 End of Minotr F.D. properties file   721 does not exist.
 End of Minotr F.D. properties file   722 does not exist.
 End of Minotr F.D. properties file   788 does not exist.
 Calling FoFJK, ICntrl=    100127 FMM=F ISym2X=0 I1Cent= 0 IOpClX= 0 NMat=1 NMatS=1 NMatT=0.
 -------------------------------------------------------------------
 Center     Atomic                   Forces (Hartrees/Bohr)
 Number     Number              X              Y              Z
 -------------------------------------------------------------------
      1        6          -0.031361429    0.005571914    0.013610524
      2        6           0.004969833    0.011319063    0.006280106
      3        6           0.015281860    0.014530128   -0.001424869
      4        8           0.010015715   -0.027683879   -0.019377793
      5        8           0.007315109   -0.005314439   -0.001334950
      6        8          -0.003586543   -0.000158276   -0.001481668
      7        1           0.001059496   -0.000243560    0.000273004
      8        1           0.000042595   -0.003646296   -0.000548571
      9        1          -0.000693543    0.000865034    0.000321582
     10        1          -0.003603969    0.003807787    0.002667727
     11        1           0.000550579    0.001812185    0.002053025
     12        1           0.000010295   -0.000859662   -0.001038117
 -------------------------------------------------------------------
 Cartesian Forces:  Max     0.031361429 RMS     0.009486867
 IRC-IRC-IRC-IRC-IRC-IRC-IRC-IRC-IRC-IRC-IRC-IRC-IRC-IRC-IRC-IRC-IRC-IRC
 Pt  4 Step number   1 out of a maximum of 100
 Modified Bulirsch-Stoer Extrapolation Cycles:
    EPS =    0.000010000000000
      PEZero:  N= 2 I= 1 D=  1.48D-03 Err=  3.30D-05
      PEZero:  N= 3 I= 2 D=  1.48D-03 Err=  2.20D-05
      PEZero:  N= 3 I= 1 D=  2.96D-03 Err=  8.93D-08
 Maximum DWI energy   std dev =  0.000007822 at pt    27
 Maximum DWI gradient std dev =  0.009818389 at pt    24
 CORRECTOR INTEGRATION CONVERGENCE:
   Recorrection delta-x convergence threshold:    0.010000
   Delta-x Convergence Met
 Point Number:   4          Path Number:   1
   CHANGE IN THE REACTION COORDINATE =    0.28381
   NET REACTION COORDINATE UP TO THIS POINT =    1.13528
  # OF POINTS ALONG THE PATH =   4
  # OF STEPS =   1

 Calculating another point on the path.
 IRC-IRC-IRC-IRC-IRC-IRC-IRC-IRC-IRC-IRC-IRC-IRC-IRC-IRC-IRC-IRC-IRC-IRC
                          Input orientation:                          
 ---------------------------------------------------------------------
 Center     Atomic      Atomic             Coordinates (Angstroms)
 Number     Number       Type             X           Y           Z
 ---------------------------------------------------------------------
      1          6           0        0.405814   -1.749838   -0.556790
      2          6           0        1.776433    0.315478    0.445892
      3          6           0        0.551796    0.715569    0.051662
      4          8           0       -0.459988   -0.504564    0.560509
      5          8           0       -1.796341   -0.169110    0.185133
      6          8           0       -0.069715    1.505168   -0.635345
      7          1           0       -1.607714    0.650145   -0.361957
      8          1           0       -0.534603   -2.127656   -0.948052
      9          1           0        0.880928   -2.354631    0.207784
     10          1           0        1.077447   -1.281596   -1.265148
     11          1           0        2.635626    0.840542    0.045257
     12          1           0        1.910540   -0.364705    1.276936
 ---------------------------------------------------------------------
                    Distance matrix (angstroms):
                    1          2          3          4          5
     1  C    0.000000
     2  C    2.673854   0.000000
     3  C    2.543571   1.347303   0.000000
     4  O    1.883794   2.384781   1.664739   0.000000
     5  O    2.810451   3.614904   2.512811   1.428032   0.000000
     6  O    3.290496   2.447999   1.217260   2.370950   2.541186
     7  H    3.138817   3.495293   2.199738   1.871249   1.003028
     8  H    1.086377   3.640449   3.203688   2.217149   2.590750
     9  H    1.084474   2.826324   3.091736   2.311973   3.456122
    10  H    1.082641   2.442721   2.449278   2.510082   3.405817
    11  H    3.470531   1.083704   2.087583   3.414325   4.547668
    12  H    2.746879   1.082250   2.124729   2.480369   3.869270
                    6          7          8          9         10
     6  O    0.000000
     7  H    1.780800   0.000000
     8  H    3.675774   3.035004   0.000000
     9  H    4.063575   3.942921   1.841522   0.000000
    10  H    3.078748   3.428916   1.847992   1.832909   0.000000
    11  H    2.867720   4.267084   4.455021   3.648905   2.940842
    12  H    3.327860   4.011733   3.746637   2.482538   2.827883
                   11         12
    11  H    0.000000
    12  H    1.869599   0.000000
 Symmetry turned off by external request.
 Stoichiometry    C3H6O3
 Framework group  C1[X(C3H6O3)]
 Deg. of freedom    30
 Full point group                 C1      NOp   1
 Rotational constants (GHZ):           4.3136961           3.6188026           2.3810147
 Standard basis: 6-31+G(d) (6D, 7F)
   126 basis functions,   216 primitive gaussians,   126 cartesian basis functions
    24 alpha electrons       24 beta electrons
       nuclear repulsion energy       246.8427025422 Hartrees.
 NAtoms=   12 NActive=   12 NUniq=   12 SFac= 1.00D+00 NAtFMM=   60 NAOKFM=F Big=F
 Integral buffers will be    131072 words long.
 Raffenetti 2 integral format.
 Two-electron integral symmetry is turned off.
 One-electron integrals computed using PRISM.
 NBasis=   126 RedAO= T EigKep=  5.77D-05  NBF=   126
 NBsUse=   126 1.00D-06 EigRej= -1.00D+00 NBFU=   126
 Initial guess from the checkpoint file:  "/scratch/bell/zhao922/YARP/paper-example/KHP-network/pp_0/IRC-folder/Gau-116250.chk"
 B after Tr=    -0.000491    0.000280    0.000594
         Rot=    1.000000   -0.000060    0.000058   -0.000041 Ang=  -0.01 deg.
 ExpMin= 4.38D-02 ExpMax= 5.48D+03 ExpMxC= 8.25D+02 IAcc=3 IRadAn=         5 AccDes= 0.00D+00
 Harris functional with IExCor=  402 and IRadAn=       5 diagonalized for initial guess.
 HarFok:  IExCor=  402 AccDes= 0.00D+00 IRadAn=         5 IDoV= 1 UseB2=F ITyADJ=14
 ICtDFT=  3500011 ScaDFX=  1.000000  1.000000  1.000000  1.000000
 FoFCou: FMM=F IPFlag=           0 FMFlag=      100000 FMFlg1=           0
         NFxFlg=           0 DoJE=T BraDBF=F KetDBF=T FulRan=T
         wScrn=  0.000000 ICntrl=       500 IOpCl=  0 I1Cent=   200000004 NGrid=           0
         NMat0=    1 NMatS0=      1 NMatT0=    0 NMatD0=    1 NMtDS0=    0 NMtDT0=    0
 Symmetry not used in FoFCou.
 Keep R1 ints in memory in canonical form, NReq=47237219.
 Requested convergence on RMS density matrix=1.00D-08 within 128 cycles.
 Requested convergence on MAX density matrix=1.00D-06.
 Requested convergence on             energy=1.00D-06.
 No special actions if energy rises.
 SCF Done:  E(RB3LYP) =  -343.388767214     A.U. after   12 cycles
            NFock= 12  Conv=0.46D-08     -V/T= 2.0093
 DoSCS=F DFT=T ScalE2(SS,OS)=  1.000000  1.000000
 Range of M.O.s used for correlation:     1   126
 NBasis=   126 NAE=    24 NBE=    24 NFC=     0 NFV=     0
 NROrb=    126 NOA=    24 NOB=    24 NVA=   102 NVB=   102

 **** Warning!!: The largest alpha MO coefficient is  0.32490938D+02

 Symmetrizing basis deriv contribution to polar:
 IMax=3 JMax=2 DiffMx= 0.00D+00
 G2DrvN: will do    13 centers at a time, making    1 passes.
 Calling FoFCou, ICntrl=  3107 FMM=F I1Cent=   0 AccDes= 0.00D+00.
 End of G2Drv F.D. properties file   721 does not exist.
 End of G2Drv F.D. properties file   722 does not exist.
 End of G2Drv F.D. properties file   788 does not exist.
          IDoAtm=111111111111
          Differentiating once with respect to nuclear coordinates.
 Keep R1 ints in memory in canonical form, NReq=47193241.
          There are    39 degrees of freedom in the 1st order CPHF.  IDoFFX=6 NUNeed=     0.
     33 vectors produced by pass  0 Test12= 6.28D-15 2.56D-09 XBig12= 1.54D-01 1.71D-01.
 AX will form    33 AO Fock derivatives at one time.
     33 vectors produced by pass  1 Test12= 6.28D-15 2.56D-09 XBig12= 1.88D-02 3.48D-02.
     33 vectors produced by pass  2 Test12= 6.28D-15 2.56D-09 XBig12= 4.07D-04 4.01D-03.
     33 vectors produced by pass  3 Test12= 6.28D-15 2.56D-09 XBig12= 1.70D-06 2.46D-04.
     33 vectors produced by pass  4 Test12= 6.28D-15 2.56D-09 XBig12= 3.87D-09 8.81D-06.
     30 vectors produced by pass  5 Test12= 6.28D-15 2.56D-09 XBig12= 5.36D-12 4.40D-07.
      4 vectors produced by pass  6 Test12= 6.28D-15 2.56D-09 XBig12= 5.70D-15 1.45D-08.
 InvSVY:  IOpt=1 It=  1 EMax= 1.78D-15
 Solved reduced A of dimension   199 with    33 vectors.
 End of Minotr F.D. properties file   721 does not exist.
 End of Minotr F.D. properties file   722 does not exist.
 End of Minotr F.D. properties file   788 does not exist.
 Calling FoFJK, ICntrl=    100127 FMM=F ISym2X=0 I1Cent= 0 IOpClX= 0 NMat=1 NMatS=1 NMatT=0.
 -------------------------------------------------------------------
 Center     Atomic                   Forces (Hartrees/Bohr)
 Number     Number              X              Y              Z
 -------------------------------------------------------------------
      1        6          -0.036287865    0.007515626    0.016280309
      2        6           0.006192741    0.012746959    0.006957657
      3        6           0.015980846    0.016114685   -0.001779426
      4        8           0.012345031   -0.031546588   -0.022094127
      5        8           0.008589318   -0.006701885   -0.002193535
      6        8          -0.003581108   -0.000032619   -0.001369811
      7        1           0.001087666   -0.000311279    0.000364947
      8        1           0.000013601   -0.003799343   -0.000522466
      9        1          -0.000896815    0.001013624    0.000361480
     10        1          -0.004126707    0.003860848    0.002796691
     11        1           0.000655373    0.002120787    0.002444238
     12        1           0.000027920   -0.000980816   -0.001245957
 -------------------------------------------------------------------
 Cartesian Forces:  Max     0.036287865 RMS     0.010866645
 IRC-IRC-IRC-IRC-IRC-IRC-IRC-IRC-IRC-IRC-IRC-IRC-IRC-IRC-IRC-IRC-IRC-IRC
 Pt  5 Step number   1 out of a maximum of 100
 Modified Bulirsch-Stoer Extrapolation Cycles:
    EPS =    0.000010000000000
      PEZero:  N= 2 I= 1 D=  1.48D-03 Err=  4.14D-05
      PEZero:  N= 3 I= 2 D=  1.48D-03 Err=  2.75D-05
      PEZero:  N= 3 I= 1 D=  2.96D-03 Err=  9.28D-08
 Maximum DWI energy   std dev =  0.000008496 at pt    28
 Maximum DWI gradient std dev =  0.007742212 at pt    24
 CORRECTOR INTEGRATION CONVERGENCE:
   Recorrection delta-x convergence threshold:    0.010000
   Delta-x Convergence Met
 Point Number:   5          Path Number:   1
   CHANGE IN THE REACTION COORDINATE =    0.28380
   NET REACTION COORDINATE UP TO THIS POINT =    1.41908
  # OF POINTS ALONG THE PATH =   5
  # OF STEPS =   1

 Calculating another point on the path.
 IRC-IRC-IRC-IRC-IRC-IRC-IRC-IRC-IRC-IRC-IRC-IRC-IRC-IRC-IRC-IRC-IRC-IRC
                          Input orientation:                          
 ---------------------------------------------------------------------
 Center     Atomic      Atomic             Coordinates (Angstroms)
 Number     Number       Type             X           Y           Z
 ---------------------------------------------------------------------
      1          6           0        0.382480   -1.744582   -0.545972
      2          6           0        1.780429    0.323692    0.450225
      3          6           0        0.561817    0.725656    0.050536
      4          8           0       -0.453856   -0.519753    0.549862
      5          8           0       -1.792172   -0.172570    0.183952
      6          8           0       -0.071352    1.505255   -0.635960
      7          1           0       -1.599663    0.648293   -0.359484
      8          1           0       -0.537410   -2.156279   -0.952353
      9          1           0        0.873796   -2.347055    0.210847
     10          1           0        1.046936   -1.253190   -1.245778
     11          1           0        2.641073    0.857135    0.064066
     12          1           0        1.910925   -0.372706    1.268007
 ---------------------------------------------------------------------
                    Distance matrix (angstroms):
                    1          2          3          4          5
     1  C    0.000000
     2  C    2.687828   0.000000
     3  C    2.547559   1.344002   0.000000
     4  O    1.844049   2.390262   1.682843   0.000000
     5  O    2.780849   3.616719   2.523068   1.430216   0.000000
     6  O    3.282606   2.450506   1.216534   2.377634   2.539405
     7  H    3.112799   3.490847   2.201385   1.871928   1.003095
     8  H    1.086664   3.672854   3.243399   2.223028   2.607820
     9  H    1.084961   2.830579   3.092666   2.283993   3.440421
    10  H    1.082912   2.429196   2.414871   2.452475   3.357440
    11  H    3.498903   1.083693   2.083453   3.422047   4.552838
    12  H    2.740202   1.082020   2.123376   2.475792   3.863698
                    6          7          8          9         10
     6  O    0.000000
     7  H    1.773854   0.000000
     8  H    3.704612   3.057042   0.000000
     9  H    4.055944   3.926243   1.838731   0.000000
    10  H    3.038332   3.377223   1.847111   1.829830   0.000000
    11  H    2.875299   4.266948   4.496280   3.662193   2.951345
    12  H    3.328851   4.001924   3.755726   2.468052   2.800151
                   11         12
    11  H    0.000000
    12  H    1.869519   0.000000
 Symmetry turned off by external request.
 Stoichiometry    C3H6O3
 Framework group  C1[X(C3H6O3)]
 Deg. of freedom    30
 Full point group                 C1      NOp   1
 Rotational constants (GHZ):           4.3482625           3.6132876           2.3801275
 Standard basis: 6-31+G(d) (6D, 7F)
   126 basis functions,   216 primitive gaussians,   126 cartesian basis functions
    24 alpha electrons       24 beta electrons
       nuclear repulsion energy       247.0347769234 Hartrees.
 NAtoms=   12 NActive=   12 NUniq=   12 SFac= 1.00D+00 NAtFMM=   60 NAOKFM=F Big=F
 Integral buffers will be    131072 words long.
 Raffenetti 2 integral format.
 Two-electron integral symmetry is turned off.
 One-electron integrals computed using PRISM.
 NBasis=   126 RedAO= T EigKep=  5.72D-05  NBF=   126
 NBsUse=   126 1.00D-06 EigRej= -1.00D+00 NBFU=   126
 Initial guess from the checkpoint file:  "/scratch/bell/zhao922/YARP/paper-example/KHP-network/pp_0/IRC-folder/Gau-116250.chk"
 B after Tr=    -0.000525    0.000266    0.000596
         Rot=    1.000000   -0.000053    0.000048   -0.000029 Ang=  -0.01 deg.
 ExpMin= 4.38D-02 ExpMax= 5.48D+03 ExpMxC= 8.25D+02 IAcc=3 IRadAn=         5 AccDes= 0.00D+00
 Harris functional with IExCor=  402 and IRadAn=       5 diagonalized for initial guess.
 HarFok:  IExCor=  402 AccDes= 0.00D+00 IRadAn=         5 IDoV= 1 UseB2=F ITyADJ=14
 ICtDFT=  3500011 ScaDFX=  1.000000  1.000000  1.000000  1.000000
 FoFCou: FMM=F IPFlag=           0 FMFlag=      100000 FMFlg1=           0
         NFxFlg=           0 DoJE=T BraDBF=F KetDBF=T FulRan=T
         wScrn=  0.000000 ICntrl=       500 IOpCl=  0 I1Cent=   200000004 NGrid=           0
         NMat0=    1 NMatS0=      1 NMatT0=    0 NMatD0=    1 NMtDS0=    0 NMtDT0=    0
 Symmetry not used in FoFCou.
 Keep R1 ints in memory in canonical form, NReq=47237219.
 Requested convergence on RMS density matrix=1.00D-08 within 128 cycles.
 Requested convergence on MAX density matrix=1.00D-06.
 Requested convergence on             energy=1.00D-06.
 No special actions if energy rises.
 SCF Done:  E(RB3LYP) =  -343.394510736     A.U. after   12 cycles
            NFock= 12  Conv=0.84D-08     -V/T= 2.0093
 DoSCS=F DFT=T ScalE2(SS,OS)=  1.000000  1.000000
 Range of M.O.s used for correlation:     1   126
 NBasis=   126 NAE=    24 NBE=    24 NFC=     0 NFV=     0
 NROrb=    126 NOA=    24 NOB=    24 NVA=   102 NVB=   102

 **** Warning!!: The largest alpha MO coefficient is  0.37183666D+02

 Symmetrizing basis deriv contribution to polar:
 IMax=3 JMax=2 DiffMx= 0.00D+00
 G2DrvN: will do    13 centers at a time, making    1 passes.
 Calling FoFCou, ICntrl=  3107 FMM=F I1Cent=   0 AccDes= 0.00D+00.
 End of G2Drv F.D. properties file   721 does not exist.
 End of G2Drv F.D. properties file   722 does not exist.
 End of G2Drv F.D. properties file   788 does not exist.
          IDoAtm=111111111111
          Differentiating once with respect to nuclear coordinates.
 Keep R1 ints in memory in canonical form, NReq=47193241.
          There are    39 degrees of freedom in the 1st order CPHF.  IDoFFX=6 NUNeed=     0.
     33 vectors produced by pass  0 Test12= 6.28D-15 2.56D-09 XBig12= 1.49D-01 1.31D-01.
 AX will form    33 AO Fock derivatives at one time.
     33 vectors produced by pass  1 Test12= 6.28D-15 2.56D-09 XBig12= 1.68D-02 2.77D-02.
     33 vectors produced by pass  2 Test12= 6.28D-15 2.56D-09 XBig12= 3.76D-04 3.43D-03.
     33 vectors produced by pass  3 Test12= 6.28D-15 2.56D-09 XBig12= 1.66D-06 2.67D-04.
     33 vectors produced by pass  4 Test12= 6.28D-15 2.56D-09 XBig12= 4.41D-09 9.18D-06.
     29 vectors produced by pass  5 Test12= 6.28D-15 2.56D-09 XBig12= 6.06D-12 4.60D-07.
      4 vectors produced by pass  6 Test12= 6.28D-15 2.56D-09 XBig12= 6.23D-15 1.33D-08.
 InvSVY:  IOpt=1 It=  1 EMax= 2.00D-15
 Solved reduced A of dimension   198 with    33 vectors.
 End of Minotr F.D. properties file   721 does not exist.
 End of Minotr F.D. properties file   722 does not exist.
 End of Minotr F.D. properties file   788 does not exist.
 Calling FoFJK, ICntrl=    100127 FMM=F ISym2X=0 I1Cent= 0 IOpClX= 0 NMat=1 NMatS=1 NMatT=0.
 -------------------------------------------------------------------
 Center     Atomic                   Forces (Hartrees/Bohr)
 Number     Number              X              Y              Z
 -------------------------------------------------------------------
      1        6          -0.039240426    0.009415149    0.018216371
      2        6           0.007134428    0.013600022    0.007273915
      3        6           0.015834469    0.016685038   -0.002201768
      4        8           0.013860924   -0.033845733   -0.023601190
      5        8           0.009381203   -0.008029980   -0.003006142
      6        8          -0.003224257    0.000245412   -0.001047947
      7        1           0.001037682   -0.000363665    0.000411468
      8        1          -0.000113897   -0.003545780   -0.000323967
      9        1          -0.001068742    0.001086685    0.000348471
     10        1          -0.004382720    0.003460627    0.002596227
     11        1           0.000734717    0.002289148    0.002692991
     12        1           0.000046618   -0.000996924   -0.001358430
 -------------------------------------------------------------------
 Cartesian Forces:  Max     0.039240426 RMS     0.011691755
 IRC-IRC-IRC-IRC-IRC-IRC-IRC-IRC-IRC-IRC-IRC-IRC-IRC-IRC-IRC-IRC-IRC-IRC
 Pt  6 Step number   1 out of a maximum of 100
 Modified Bulirsch-Stoer Extrapolation Cycles:
    EPS =    0.000010000000000
      PEZero:  N= 2 I= 1 D=  1.48D-03 Err=  5.54D-05
      PEZero:  N= 3 I= 2 D=  1.48D-03 Err=  3.69D-05
      PEZero:  N= 3 I= 1 D=  2.96D-03 Err=  8.19D-08
 Maximum DWI energy   std dev =  0.000007238 at pt    67
 Maximum DWI gradient std dev =  0.006208320 at pt    47
 CORRECTOR INTEGRATION CONVERGENCE:
   Recorrection delta-x convergence threshold:    0.010000
   Delta-x Convergence Met
 Point Number:   6          Path Number:   1
   CHANGE IN THE REACTION COORDINATE =    0.28379
   NET REACTION COORDINATE UP TO THIS POINT =    1.70287
  # OF POINTS ALONG THE PATH =   6
  # OF STEPS =   1

 Calculating another point on the path.
 IRC-IRC-IRC-IRC-IRC-IRC-IRC-IRC-IRC-IRC-IRC-IRC-IRC-IRC-IRC-IRC-IRC-IRC
                          Input orientation:                          
 ---------------------------------------------------------------------
 Center     Atomic      Atomic             Coordinates (Angstroms)
 Number     Number       Type             X           Y           Z
 ---------------------------------------------------------------------
      1          6           0        0.358747   -1.738411   -0.534637
      2          6           0        1.784773    0.331962    0.454519
      3          6           0        0.571218    0.735521    0.049153
      4          8           0       -0.447463   -0.535134    0.539168
      5          8           0       -1.787898   -0.176474    0.182463
      6          8           0       -0.072707    1.505480   -0.636363
      7          1           0       -1.592470    0.646014   -0.356812
      8          1           0       -0.540986   -2.180843   -0.954437
      9          1           0        0.865843   -2.339498    0.213542
     10          1           0        1.016230   -1.230087   -1.229216
     11          1           0        2.646795    0.873838    0.083446
     12          1           0        1.911400   -0.380136    1.258895
 ---------------------------------------------------------------------
                    Distance matrix (angstroms):
                    1          2          3          4          5
     1  C    0.000000
     2  C    2.701559   0.000000
     3  C    2.550743   1.341603   0.000000
     4  O    1.803027   2.396226   1.700703   0.000000
     5  O    2.749903   3.618909   2.532772   1.432704   0.000000
     6  O    3.274038   2.453039   1.215487   2.384622   2.537977
     7  H    3.086154   3.487500   2.203263   1.873215   1.002744
     8  H    1.086967   3.702499   3.278622   2.224401   2.620082
     9  H    1.085461   2.835349   3.093472   2.255335   3.423738
    10  H    1.083105   2.421904   2.386604   2.398445   3.311507
    11  H    3.527185   1.083701   2.080463   3.430353   4.558450
    12  H    2.733569   1.081729   2.122323   2.471086   3.858107
                    6          7          8          9         10
     6  O    0.000000
     7  H    1.768194   0.000000
     8  H    3.729535   3.074718   0.000000
     9  H    4.048095   3.909206   1.835351   0.000000
    10  H    3.003429   3.329589   1.845091   1.826187   0.000000
    11  H    2.883191   4.268150   4.535441   3.676173   2.967883
    12  H    3.329299   3.992568   3.762390   2.454598   2.777489
                   11         12
    11  H    0.000000
    12  H    1.869475   0.000000
 Symmetry turned off by external request.
 Stoichiometry    C3H6O3
 Framework group  C1[X(C3H6O3)]
 Deg. of freedom    30
 Full point group                 C1      NOp   1
 Rotational constants (GHZ):           4.3876297           3.6055048           2.3791142
 Standard basis: 6-31+G(d) (6D, 7F)
   126 basis functions,   216 primitive gaussians,   126 cartesian basis functions
    24 alpha electrons       24 beta electrons
       nuclear repulsion energy       247.2554777422 Hartrees.
 NAtoms=   12 NActive=   12 NUniq=   12 SFac= 1.00D+00 NAtFMM=   60 NAOKFM=F Big=F
 Integral buffers will be    131072 words long.
 Raffenetti 2 integral format.
 Two-electron integral symmetry is turned off.
 One-electron integrals computed using PRISM.
 NBasis=   126 RedAO= T EigKep=  5.69D-05  NBF=   126
 NBsUse=   126 1.00D-06 EigRej= -1.00D+00 NBFU=   126
 Initial guess from the checkpoint file:  "/scratch/bell/zhao922/YARP/paper-example/KHP-network/pp_0/IRC-folder/Gau-116250.chk"
 B after Tr=    -0.000566    0.000250    0.000589
         Rot=    1.000000   -0.000041    0.000033   -0.000010 Ang=  -0.01 deg.
 ExpMin= 4.38D-02 ExpMax= 5.48D+03 ExpMxC= 8.25D+02 IAcc=3 IRadAn=         5 AccDes= 0.00D+00
 Harris functional with IExCor=  402 and IRadAn=       5 diagonalized for initial guess.
 HarFok:  IExCor=  402 AccDes= 0.00D+00 IRadAn=         5 IDoV= 1 UseB2=F ITyADJ=14
 ICtDFT=  3500011 ScaDFX=  1.000000  1.000000  1.000000  1.000000
 FoFCou: FMM=F IPFlag=           0 FMFlag=      100000 FMFlg1=           0
         NFxFlg=           0 DoJE=T BraDBF=F KetDBF=T FulRan=T
         wScrn=  0.000000 ICntrl=       500 IOpCl=  0 I1Cent=   200000004 NGrid=           0
         NMat0=    1 NMatS0=      1 NMatT0=    0 NMatD0=    1 NMtDS0=    0 NMtDT0=    0
 Symmetry not used in FoFCou.
 Keep R1 ints in memory in canonical form, NReq=47237219.
 Requested convergence on RMS density matrix=1.00D-08 within 128 cycles.
 Requested convergence on MAX density matrix=1.00D-06.
 Requested convergence on             energy=1.00D-06.
 No special actions if energy rises.
 SCF Done:  E(RB3LYP) =  -343.400473591     A.U. after   12 cycles
[...]
  10                   -1.93481  -1.22678   2.31959   0.33076  -0.44131
  11                   -1.91901  -1.25984   2.32690   0.32345  -0.43585
  12                   -1.90346  -1.28944   2.33509   0.31575  -0.42931
  13                   -1.88858  -1.31546   2.34410   0.30804  -0.42159
  14                   -1.87549  -1.33831   2.35384   0.30162  -0.41230
  15                   -1.86674  -1.35898   2.36433   0.29980  -0.40043
  16                   -1.86531  -1.37816   2.37532   0.30668  -0.38559
  17                   -1.87031  -1.39550   2.38614   0.32160  -0.36957
  18                   -1.87827  -1.41099   2.39643   0.34059  -0.35400
  19                   -1.88702  -1.42502   2.40627   0.36129  -0.33917
  20                   -1.89558  -1.43796   2.41579   0.38274  -0.32491
  21                   -1.90342  -1.45000   2.42509   0.40456  -0.31104
  22                   -1.91020  -1.46121   2.43425   0.42658  -0.29739
  23                   -1.91555  -1.47160   2.44335   0.44869  -0.28387
  24                   -1.91911  -1.48112   2.45245   0.47081  -0.27039
  25                   -1.92043  -1.48964   2.46161   0.49285  -0.25691
  26                   -1.91902  -1.49701   2.47090   0.51469  -0.24340
  27                   -1.91433  -1.50301   2.48041   0.53622  -0.22984
  28                   -1.90576  -1.50739   2.49018   0.55729  -0.21620
  29                   -1.89279  -1.50989   2.50028   0.57774  -0.20250
  30                   -1.87498  -1.51024   2.51071   0.59745  -0.18871
  31                   -1.85214  -1.50822   2.52144   0.61628  -0.17486
  32                   -1.82436  -1.50365   2.53235   0.63416  -0.16096
  33                   -1.79208  -1.49652   2.54326   0.65108  -0.14705
  34                   -1.75604  -1.48690   2.55393   0.66708  -0.13315
  35                   -1.71717  -1.47502   2.56411   0.68228  -0.11931
  36                   -1.67645  -1.46118   2.57361   0.69681  -0.10553
  37                   -1.63474  -1.44570   2.58230   0.71084  -0.09180
  38                   -1.59271  -1.42887   2.59016   0.72455  -0.07805
  39                   -1.55079  -1.41090   2.59727   0.73810  -0.06421
  40                   -1.50923  -1.39194   2.60373   0.75163  -0.05017
  41                   -1.46815  -1.37199   2.60961   0.76537  -0.03577
  42                   -1.42774  -1.35131   2.61519   0.77935  -0.02103
  43                   -1.38843  -1.32992   2.62040   0.79379  -0.00568
  44                   -1.35052  -1.30807   2.62544   0.80876   0.01042
  45                   -1.31473  -1.28622   2.63046   0.82435   0.02741
  46                   -1.28204  -1.26516   2.63563   0.84053   0.04535
  47                   -1.25365  -1.24587   2.64107   0.85709   0.06413
  48                   -1.23049  -1.22935   2.64678   0.87379   0.08349
  49                   -1.21294  -1.21627   2.65266   0.89036   0.10313
  50                   -1.20081  -1.20684   2.65865   0.90667   0.12277
  51                   -1.19348  -1.20096   2.66472   0.92264   0.14227
  52                   -1.19015  -1.19835   2.67094   0.93831   0.16163
  53                   -1.19005  -1.19879   2.67744   0.95376   0.18097
  54                   -1.19256  -1.20223   2.68447   0.96907   0.20045
  55                   -1.19719  -1.20880   2.69231   0.98419   0.22016
  56                   -1.20344  -1.21847   2.70117   0.99887   0.23989
  57                   -1.21071  -1.23081   2.71112   1.01263   0.25912
  58                   -1.21837  -1.24498   2.72201   1.02509   0.27725
  59                   -1.22591  -1.26004   2.73363   1.03616   0.29392
  60                   -1.23309  -1.27533   2.74579   1.04592   0.30900
  61                   -1.23988  -1.29044   2.75838   1.05453   0.32254
  62                   -1.24634  -1.30513   2.77131   1.06217   0.33467
  63                   -1.25264  -1.31927   2.78454   1.06900   0.34553
  64                   -1.25896  -1.33279   2.79803   1.07522   0.35528
  65                   -1.26548  -1.34561   2.81174   1.08098   0.36403
  66                   -1.27238  -1.35769   2.82561   1.08648   0.37187
  67                   -1.27984  -1.36896   2.83962   1.09189   0.37887
  68                   -1.28801  -1.37940   2.85372   1.09741   0.38510
  69                   -1.29702  -1.38901   2.86787   1.10322   0.39059
  70                   -1.30697  -1.39777   2.88200   1.10948   0.39539
  71                   -1.31793  -1.40569   2.89608   1.11638   0.39956
  72                   -1.32993  -1.41282   2.91004   1.12408   0.40316
  73                   -1.34296  -1.41918   2.92382   1.13276   0.40626
  74                   -1.35699  -1.42485   2.93735   1.14256   0.40898
  75                   -1.37201  -1.42992   2.95055   1.15362   0.41146
  76                   -1.38801  -1.43449   2.96336   1.16606   0.41383
  77                   -1.40501  -1.43868   2.97569   1.18000   0.41625
  78                   -1.42308  -1.44258   2.98747   1.19552   0.41890
  79                   -1.44231  -1.44630   2.99862   1.21270   0.42191
  80                   -1.46282  -1.44994   3.00906   1.23157   0.42547
  81                   -1.48474  -1.45359   3.01871   1.25214   0.42969
                          X12       Y12       Z12
   1                    1.89874  -0.38979   1.11171
   2                    1.90428  -0.39215   1.10959
   3                    1.90873  -0.39486   1.10805
   4                    1.91205  -0.39788   1.10716
   5                    1.91424  -0.40117   1.10698
   6                    1.91532  -0.40470   1.10755
   7                    1.91533  -0.40840   1.10891
   8                    1.91432  -0.41224   1.11109
   9                    1.91236  -0.41613   1.11414
  10                    1.90948  -0.42001   1.11812
  11                    1.90573  -0.42376   1.12306
  12                    1.90117  -0.42725   1.12899
  13                    1.89591  -0.43028   1.13591
  14                    1.89010  -0.43231   1.14402
  15                    1.88428  -0.43203   1.15392
  16                    1.87976  -0.42793   1.16605
  17                    1.87756  -0.42075   1.17930
  18                    1.87724  -0.41232   1.19240
  19                    1.87812  -0.40359   1.20494
  20                    1.87974  -0.39484   1.21690
  21                    1.88187  -0.38613   1.22832
  22                    1.88438  -0.37747   1.23924
  23                    1.88719  -0.36884   1.24972
  24                    1.89022  -0.36024   1.25977
  25                    1.89343  -0.35168   1.26940
  26                    1.89674  -0.34323   1.27859
  27                    1.90010  -0.33498   1.28731
  28                    1.90339  -0.32706   1.29550
  29                    1.90651  -0.31967   1.30306
  30                    1.90933  -0.31304   1.30989
  31                    1.91170  -0.30740   1.31583
  32                    1.91352  -0.30301   1.32076
  33                    1.91470  -0.30005   1.32454
  34                    1.91524  -0.29867   1.32706
  35                    1.91521  -0.29890   1.32827
  36                    1.91472  -0.30070   1.32816
  37                    1.91394  -0.30393   1.32679
  38                    1.91304  -0.30837   1.32430
  39                    1.91215  -0.31376   1.32083
  40                    1.91136  -0.31989   1.31655
  41                    1.91073  -0.32660   1.31152
  42                    1.91032  -0.33350   1.30598
  43                    1.91010  -0.34083   1.29977
  44                    1.91009  -0.34850   1.29285
  45                    1.91024  -0.35649   1.28518
  46                    1.91052  -0.36463   1.27680
  47                    1.91091  -0.37260   1.26790
  48                    1.91139  -0.38002   1.25881
  49                    1.91198  -0.38659   1.24984
  50                    1.91271  -0.39213   1.24122
  51                    1.91356  -0.39658   1.23308
  52                    1.91453  -0.39997   1.22547
  53                    1.91557  -0.40232   1.21836
  54                    1.91662  -0.40360   1.21177
  55                    1.91753  -0.40372   1.20576
  56                    1.91813  -0.40248   1.20051
  57                    1.91821  -0.39974   1.19626
  58                    1.91766  -0.39548   1.19315
  59                    1.91649  -0.38977   1.19118
  60                    1.91479  -0.38276   1.19025
  61                    1.91266  -0.37462   1.19023
  62                    1.91020  -0.36546   1.19099
  63                    1.90753  -0.35540   1.19239
  64                    1.90474  -0.34451   1.19435
  65                    1.90196  -0.33283   1.19677
  66                    1.89933  -0.32041   1.19961
  67                    1.89700  -0.30724   1.20278
  68                    1.89512  -0.29336   1.20626
  69                    1.89386  -0.27878   1.21001
  70                    1.89336  -0.26352   1.21398
  71                    1.89376  -0.24760   1.21815
  72                    1.89520  -0.23108   1.22247
  73                    1.89777  -0.21401   1.22688
  74                    1.90154  -0.19652   1.23129
  75                    1.90655  -0.17870   1.23560
  76                    1.91279  -0.16070   1.23971
  77                    1.92025  -0.14265   1.24350
  78                    1.92889  -0.12470   1.24685
  79                    1.93863  -0.10698   1.24966
  80                    1.94940  -0.08965   1.25179
  81                    1.96111  -0.07284   1.25314
 --------------------------------------------------------------------------
 
 Total number of points:                   80
 Total number of gradient calculations:    81
 Total number of Hessian calculations:     81
 IRC-IRC-IRC-IRC-IRC-IRC-IRC-IRC-IRC-IRC-IRC-IRC-IRC-IRC-IRC-IRC-IRC-IRC
                          Input orientation:                          
 ---------------------------------------------------------------------
 Center     Atomic      Atomic             Coordinates (Angstroms)
 Number     Number       Type             X           Y           Z
 ---------------------------------------------------------------------
      1          6           0        1.367544   -1.611784   -0.621128
      2          6           0        1.559079   -0.246141    0.079843
      3          6           0        0.240678    0.480851    0.048506
      4          8           0       -0.687985   -0.219995    0.756891
      5          8           0       -2.031099    0.094273    0.326066
      6          8           0       -0.051677    1.467577   -0.597052
      7          1           0       -1.888449    0.966336   -0.116493
      8          1           0        0.796755   -1.500458   -1.550459
      9          1           0        0.827855   -2.308653    0.025936
     10          1           0        2.339594   -2.048719   -0.874321
     11          1           0        2.286945    0.381614   -0.440656
     12          1           0        1.898807   -0.389737    1.111760
 ---------------------------------------------------------------------
                    Distance matrix (angstroms):
                    1          2          3          4          5
     1  C    0.000000
     2  C    1.546941   0.000000
     3  C    2.469283   1.505882   0.000000
     4  O    2.839227   2.346993   1.362134   0.000000
     5  O    3.919003   3.614676   2.321088   1.445105   0.000000
     6  O    3.390756   2.447356   1.214844   2.255205   2.579965
     7  H    4.183641   3.659795   2.190000   1.900341   0.988282
     8  H    1.096289   2.193703   2.606050   3.027855   3.749837
     9  H    1.093426   2.188961   2.850722   2.682267   3.746699
    10  H    1.095399   2.183785   3.414056   3.895037   5.013611
    11  H    2.202613   1.093062   2.106261   3.262861   4.394989
    12  H    2.185987   1.095850   2.153561   2.616532   4.036799
                    6          7          8          9         10
     6  O    0.000000
     7  H    1.963647   0.000000
     8  H    3.230798   3.918119   0.000000
     9  H    3.927034   4.257246   1.771769   0.000000
    10  H    4.261383   5.247971   1.771469   1.778590   0.000000
    11  H    2.583201   4.228581   2.644716   3.095834   2.469282
    12  H    3.189677   4.206049   3.087982   2.451161   2.625077
                   11         12
    11  H    0.000000
    12  H    1.776409   0.000000
 Symmetry turned off by external request.
 Stoichiometry    C3H6O3
 Framework group  C1[X(C3H6O3)]
 Deg. of freedom    30
 Full point group                 C1      NOp   1
 Rotational constants (GHZ):           6.0170025           2.6908305           2.1333259

 **********************************************************************

            Population analysis using the SCF Density.

 **********************************************************************

 Alpha  occ. eigenvalues --  -19.26705 -19.23881 -19.18186 -10.34912 -10.22959
 Alpha  occ. eigenvalues --  -10.20712  -1.18483  -1.07373  -0.95734  -0.80588
 Alpha  occ. eigenvalues --   -0.68034  -0.62915  -0.53900  -0.51361  -0.49706
 Alpha  occ. eigenvalues --   -0.47206  -0.44093  -0.42116  -0.41197  -0.39761
 Alpha  occ. eigenvalues --   -0.37934  -0.37424  -0.31663  -0.29826
 Alpha virt. eigenvalues --   -0.04322  -0.01454   0.00259   0.02309   0.03461
 Alpha virt. eigenvalues --    0.03938   0.06728   0.06776   0.07734   0.07851
 Alpha virt. eigenvalues --    0.08213   0.10644   0.11110   0.14074   0.16958
 Alpha virt. eigenvalues --    0.17300   0.18272   0.18789   0.19502   0.20576
 Alpha virt. eigenvalues --    0.21988   0.23002   0.23158   0.25207   0.27402
 Alpha virt. eigenvalues --    0.28018   0.29068   0.30049   0.31079   0.32381
 Alpha virt. eigenvalues --    0.33522   0.34377   0.35463   0.37860   0.39158
 Alpha virt. eigenvalues --    0.48202   0.62278   0.63606   0.65385   0.68018
 Alpha virt. eigenvalues --    0.68912   0.74295   0.77266   0.80073   0.85375
 Alpha virt. eigenvalues --    0.92520   0.96085   1.01910   1.02736   1.03529
 Alpha virt. eigenvalues --    1.07324   1.08661   1.11061   1.12896   1.14604
 Alpha virt. eigenvalues --    1.16560   1.23150   1.25593   1.26112   1.29512
 Alpha virt. eigenvalues --    1.30937   1.33220   1.36913   1.43622   1.47863
 Alpha virt. eigenvalues --    1.53404   1.60456   1.63479   1.65080   1.67063
 Alpha virt. eigenvalues --    1.71393   1.71651   1.75559   1.81008   1.82966
 Alpha virt. eigenvalues --    1.87847   1.94456   1.94774   1.95155   2.07074
 Alpha virt. eigenvalues --    2.10070   2.19541   2.23957   2.28972   2.32180
 Alpha virt. eigenvalues --    2.36231   2.41296   2.43579   2.50753   2.61224
 Alpha virt. eigenvalues --    2.63400   2.73649   2.85217   3.06051   3.09142
 Alpha virt. eigenvalues --    3.17265   3.94689   4.16190   4.22952   4.37388
 Alpha virt. eigenvalues --    4.40041   4.57848
          Condensed to atoms (all electrons):
               1          2          3          4          5          6
     1  C    5.650177  -0.009872  -0.090242   0.002302   0.012976  -0.029712
     2  C   -0.009872   6.326494  -0.266941  -0.185316  -0.049826  -0.047796
     3  C   -0.090242  -0.266941   5.300551   0.242835   0.029138   0.440751
     4  O    0.002302  -0.185316   0.242835   8.064875   0.082882  -0.104737
     5  O    0.012976  -0.049826   0.029138   0.082882   8.217774  -0.022721
     6  O   -0.029712  -0.047796   0.440751  -0.104737  -0.022721   8.207878
     7  H   -0.001434   0.034553  -0.036078  -0.033637   0.172169   0.050330
     8  H    0.393807  -0.063081   0.008868  -0.002332  -0.000216   0.002433
     9  H    0.407598  -0.045316  -0.018200   0.001829   0.000208  -0.000550
    10  H    0.405201  -0.065911   0.007236   0.000688   0.000060  -0.000023
    11  H   -0.032786   0.402858  -0.057398   0.006947  -0.000703  -0.005608
    12  H   -0.047025   0.366665  -0.013697  -0.001015   0.000779   0.004192
               7          8          9         10         11         12
     1  C   -0.001434   0.393807   0.407598   0.405201  -0.032786  -0.047025
     2  C    0.034553  -0.063081  -0.045316  -0.065911   0.402858   0.366665
     3  C   -0.036078   0.008868  -0.018200   0.007236  -0.057398  -0.013697
     4  O   -0.033637  -0.002332   0.001829   0.000688   0.006947  -0.001015
     5  O    0.172169  -0.000216   0.000208   0.000060  -0.000703   0.000779
     6  O    0.050330   0.002433  -0.000550  -0.000023  -0.005608   0.004192
     7  H    0.335074  -0.000041   0.000007   0.000003   0.000003  -0.000077
     8  H   -0.000041   0.491647  -0.027133  -0.026565  -0.001816   0.003763
     9  H    0.000007  -0.027133   0.474838  -0.025428   0.003395  -0.005354
    10  H    0.000003  -0.026565  -0.025428   0.497192  -0.004079  -0.001396
    11  H    0.000003  -0.001816   0.003395  -0.004079   0.481187  -0.027651
    12  H   -0.000077   0.003763  -0.005354  -0.001396  -0.027651   0.486786
 Mulliken charges:
               1
     1  C   -0.660990
     2  C   -0.396510
     3  C    0.453176
     4  O   -0.075322
     5  O   -0.442520
     6  O   -0.494436
     7  H    0.479127
     8  H    0.220666
     9  H    0.234107
    10  H    0.213020
    11  H    0.235651
    12  H    0.234029
 Sum of Mulliken charges =  -0.00000
 Mulliken charges with hydrogens summed into heavy atoms:
               1
     1  C    0.006803
     2  C    0.073171
     3  C    0.453176
     4  O   -0.075322
     5  O    0.036608
     6  O   -0.494436
 APT charges:
               1
     1  C   -1.442186
     2  C   -0.861153
     3  C    0.316598
     4  O   -0.071916
     5  O   -0.489224
     6  O   -0.378789
     7  H    0.567876
     8  H    0.336169
     9  H    0.386672
    10  H    0.640663
    11  H    0.513720
    12  H    0.481571
 Sum of APT charges =  -0.00000
 APT charges with hydrogens summed into heavy atoms:
               1
     1  C   -0.078682
     2  C    0.134138
     3  C    0.316598
     4  O   -0.071916
     5  O    0.078652
     6  O   -0.378789
 Electronic spatial extent (au):  <R**2>=            600.7237
 Charge=             -0.0000 electrons
 Dipole moment (field-independent basis, Debye):
    X=              2.2429    Y=             -0.8728    Z=             -0.0604  Tot=              2.4075
 Quadrupole moment (field-independent basis, Debye-Ang):
   XX=            -34.4265   YY=            -37.8328   ZZ=            -37.0551
   XY=             -3.5111   XZ=              2.0733   YZ=              2.0189
 Traceless Quadrupole moment (field-independent basis, Debye-Ang):
   XX=              2.0116   YY=             -1.3947   ZZ=             -0.6170
   XY=             -3.5111   XZ=              2.0733   YZ=              2.0189
 Octapole moment (field-independent basis, Debye-Ang**2):
  XXX=             -9.0800  YYY=              3.7317  ZZZ=              4.1703  XYY=             -7.6867
  XXY=              8.7513  XXZ=             -2.8904  XZZ=             -3.3984  YZZ=              1.7755
  YYZ=              4.5124  XYZ=              1.0474
 Hexadecapole moment (field-independent basis, Debye-Ang**3):
 XXXX=           -396.2199 YYYY=           -265.8913 ZZZZ=           -102.4511 XXXY=             45.6107
 XXXZ=             41.3011 YYYX=             56.7036 YYYZ=             -2.8860 ZZZX=             38.2044
 ZZZY=             -5.1520 XXYY=           -101.2849 XXZZ=            -84.8192 YYZZ=            -61.7240
 XXYZ=             -4.3088 YYXZ=             11.2204 ZZXY=             20.1653
 N-N= 2.470609697975D+02 E-N=-1.298221294714D+03  KE= 3.404195756373D+02
  Exact polarizability:   0.000   0.000   0.000   0.000   0.000   0.000
 Approx polarizability:  75.103  -2.137  68.575  -0.386 -11.352  59.086

 This type of calculation cannot be archived.


 THERE IS NO SCIENCE WITHOUT FANCY, NOR ART WITHOUT FACTS.
     -- VLADIMIR NABAKOV
 Job cpu time:       0 days  7 hours 17 minutes 38.8 seconds.
 Elapsed time:       0 days  0 hours 30 minutes 28.2 seconds.
 File lengths (MBytes):  RWF=     28 Int=      0 D2E=      0 Chk=      4 Scr=      1
 Normal termination of Gaussian 16 at Wed Dec 23 22:47:09 2020.
