 Entering Gaussian System, Link 0=g16
 Initial command:
 /apps/cent7/gaussian/g16-B.01/g16-haswell/g16/l1.exe "/scratch/bell/zhao922/YARP/paper-example/KHP-network/pp_0/IRC-folder/Gau-71313.inp" -scrdir="/scratch/bell/zhao922/YARP/paper-example/KHP-network/pp_0/IRC-folder/"
 Entering Link 1 = /apps/cent7/gaussian/g16-B.01/g16-haswell/g16/l1.exe PID=     71314.
  
 Copyright (c) 1988-2017, Gaussian, Inc.  All Rights Reserved.
  
 This is part of the Gaussian(R) 16 program.  It is based on
 the Gaussian(R) 09 system (copyright 2009, Gaussian, Inc.),
 the Gaussian(R) 03 system (copyright 2003, Gaussian, Inc.),
 the Gaussian(R) 98 system (copyright 1998, Gaussian, Inc.),
 the Gaussian(R) 94 system (copyright 1995, Gaussian, Inc.),
 the Gaussian 92(TM) system (copyright 1992, Gaussian, Inc.),
 the Gaussian 90(TM) system (copyright 1990, Gaussian, Inc.),
 the Gaussian 88(TM) system (copyright 1988, Gaussian, Inc.),
 the Gaussian 86(TM) system (copyright 1986, Carnegie Mellon
 University), and the Gaussian 82(TM) system (copyright 1983,
 Carnegie Mellon University). Gaussian is a federally registered
 trademark of Gaussian, Inc.
  
 This software contains proprietary and confidential information,
 including trade secrets, belonging to Gaussian, Inc.
  
 This software is provided under written license and may be
 used, copied, transmitted, or stored only in accord with that
 written license.
  
 The following legend is applicable only to US Government
 contracts under FAR:
  
                    RESTRICTED RIGHTS LEGEND
  
 Use, reproduction and disclosure by the US Government is
 subject to restrictions as set forth in subparagraphs (a)
 and (c) of the Commercial Computer Software - Restricted
 Rights clause in FAR 52.227-19.
  
 Gaussian, Inc.
 340 Quinnipiac St., Bldg. 40, Wallingford CT 06492
  
  
 ---------------------------------------------------------------
 Warning -- This program may not be used in any manner that
 competes with the business of Gaussian, Inc. or will provide
 assistance to any competitor of Gaussian, Inc.  The licensee
 of this program is prohibited from giving any competitor of
 Gaussian, Inc. access to this program.  By using this program,
 the user acknowledges that Gaussian, Inc. is engaged in the
 business of creating and licensing software in the field of
 computational chemistry and represents and warrants to the
 licensee that it is not a competitor of Gaussian, Inc. and that
 it will not use this program in any manner prohibited above.
 ---------------------------------------------------------------
  

 Cite this work as:
 Gaussian 16, Revision B.01,
 M. J. Frisch, G. W. Trucks, H. B. Schlegel, G. E. Scuseria, 
 M. A. Robb, J. R. Cheeseman, G. Scalmani, V. Barone, 
 G. A. Petersson, H. Nakatsuji, X. Li, M. Caricato, A. V. Marenich, 
 J. Bloino, B. G. Janesko, R. Gomperts, B. Mennucci, H. P. Hratchian, 
 J. V. Ortiz, A. F. Izmaylov, J. L. Sonnenberg, D. Williams-Young, 
 F. Ding, F. Lipparini, F. Egidi, J. Goings, B. Peng, A. Petrone, 
 T. Henderson, D. Ranasinghe, V. G. Zakrzewski, J. Gao, N. Rega, 
 G. Zheng, W. Liang, M. Hada, M. Ehara, K. Toyota, R. Fukuda, 
 J. Hasegawa, M. Ishida, T. Nakajima, Y. Honda, O. Kitao, H. Nakai, 
 T. Vreven, K. Throssell, J. A. Montgomery, Jr., J. E. Peralta, 
 F. Ogliaro, M. J. Bearpark, J. J. Heyd, E. N. Brothers, K. N. Kudin, 
 V. N. Staroverov, T. A. Keith, R. Kobayashi, J. Normand, 
 K. Raghavachari, A. P. Rendell, J. C. Burant, S. S. Iyengar, 
 J. Tomasi, M. Cossi, J. M. Millam, M. Klene, C. Adamo, R. Cammi, 
 J. W. Ochterski, R. L. Martin, K. Morokuma, O. Farkas, 
 J. B. Foresman, and D. J. Fox, Gaussian, Inc., Wallingford CT, 2016.
 
 ******************************************
 Gaussian 16:  ES64L-G16RevB.01 20-Dec-2017
                23-Dec-2020 
 ******************************************
 %NProcShared=16
 Will use up to   16 processors via shared memory.
 %Mem=6GB
 ----------------------------------------------------------------------
 # B3LYP/6-31+G* IRC=(CALCALL, maxpoints=40, StepSize=15, maxcyc=100, R
 eport=Cartesians)
 ----------------------------------------------------------------------
 1/6=100,10=4,18=10,26=3,38=1,39=15,42=40,44=3,71=1,129=10,172=1/1,23;
 2/12=2,17=6,18=5,29=1,40=1/2;
 3/5=1,6=6,7=11,11=2,25=1,30=1,71=2,74=-5,140=1/1,2,3;
 4//1;
 5/5=2,38=5/2;
 8/6=4,10=90,11=11/1;
 11/6=1,8=1,9=11,15=111,16=1/1,2,10;
 10/6=1,13=1/2;
 6/7=2,8=2,9=2,10=2,18=1,28=1/1;
 7/10=1,25=1/1,2,3,16;
 1/6=100,10=4,18=10,26=3,39=15,42=40,44=3,71=1,129=10/23(2);
 2/29=1/2;
 99/5=20/99;
 2/29=1/2;
 3/5=1,6=6,7=11,11=2,25=1,30=1,71=2,74=-5,140=1/1,2,3;
 4/5=5,16=3,69=1/1;
 5/5=2,38=5/2;
 8/6=4,10=90,11=11/1;
 11/6=1,8=1,9=11,15=111,16=1/1,2,10;
 10/6=1,13=1/2;
 7/10=1,25=1/1,2,3,16;
 1/6=100,10=4,18=10,26=3,39=15,42=40,44=3,71=1,129=10/23(-8);
 2/29=1/2;
 6/7=2,8=2,9=2,10=2,18=1,19=2,28=1/1;
 99/5=20/99;
 -----------
 pp_19_0 IRC
 -----------
 Symbolic Z-matrix:
 Charge =  0 Multiplicity = 1
 C                    -0.75263   0.98396   0.21107 
 C                     0.57739   0.36572   0.56433 
 C                     1.67784   0.30355  -0.3353 
 O                    -1.56439   0.15797  -0.6386 
 O                    -2.07692  -0.93607   0.16602 
 O                     2.40238  -0.72351  -0.08832 
 H                    -1.37985  -1.60872   0.04581 
 H                    -1.32681   1.23982   1.10748 
 H                    -0.64077   1.89083  -0.40132 
 H                     1.94896   0.95731  -1.16967 
 H                     1.37228  -0.94108   0.67689 
 H                     0.922     0.55535   1.58742 
 
 IRC-IRC-IRC-IRC-IRC-IRC-IRC-IRC-IRC-IRC-IRC-IRC-IRC-IRC-IRC-IRC-IRC-IRC
 ------------------------------------------------------------------------
 INPUT DATA FOR L123
 ------------------------------------------------------------------------
 GENERAL PARAMETERS:
 Follow reaction path in both directions.
 Maximum points per path      =  40
 Step size                    =   0.150 bohr
 Integration scheme           = HPC                                 
    Redo corrector integration= Yes                                 
    DWI Weight Power          =  2
    DWI will use Hessian update vectors when possible.
    Max correction cycles     = 100
 Initial Hessian              = CalcFC
 Hessian evaluation           = Analytic at all predictor steps
                              = Update at all corrector steps
 Hessian updating method      = Bofill                              
 ------------------------------------------------------------------------
 IRC-IRC-IRC-IRC-IRC-IRC-IRC-IRC-IRC-IRC-IRC-IRC-IRC-IRC-IRC-IRC-IRC-IRC
                          Input orientation:                          
 ---------------------------------------------------------------------
 Center     Atomic      Atomic             Coordinates (Angstroms)
 Number     Number       Type             X           Y           Z
 ---------------------------------------------------------------------
      1          6           0       -0.752625    0.983959    0.211070
      2          6           0        0.577385    0.365719    0.564328
      3          6           0        1.677836    0.303552   -0.335296
      4          8           0       -1.564390    0.157971   -0.638603
      5          8           0       -2.076915   -0.936072    0.166022
      6          8           0        2.402383   -0.723509   -0.088322
      7          1           0       -1.379852   -1.608718    0.045812
      8          1           0       -1.326814    1.239820    1.107484
      9          1           0       -0.640771    1.890828   -0.401324
     10          1           0        1.948956    0.957308   -1.169672
     11          1           0        1.372281   -0.941084    0.676889
     12          1           0        0.921997    0.555346    1.587418
 ---------------------------------------------------------------------
                    Distance matrix (angstroms):
                    1          2          3          4          5
     1  C    0.000000
     2  C    1.508621   0.000000
     3  C    2.582365   1.422737   0.000000
     4  O    1.436371   2.465239   3.259635   0.000000
     5  O    2.332872   2.983055   3.985742   1.451562   0.000000
     6  O    3.599883   2.223283   1.280944   4.100622   4.491546
     7  H    2.672583   2.828080   3.626496   1.903593   0.976115
     8  H    1.094859   2.164496   3.462100   2.067767   2.486666
     9  H    1.099977   2.177693   2.810648   1.977920   3.221142
    10  H    3.034089   2.288655   1.094114   3.642056   4.645062
    11  H    2.904824   1.533709   1.633096   3.400364   3.486827
    12  H    2.209616   1.096097   2.081231   3.360833   3.638429
                    6          7          8          9         10
     6  O    0.000000
     7  H    3.886758   0.000000
     8  H    4.380813   3.040416   0.000000
     9  H    4.024117   3.604580   1.780721   0.000000
    10  H    2.049405   4.375255   3.999490   2.858060   0.000000
    11  H    1.301536   2.901419   3.496694   3.637945   2.710394
    12  H    2.575872   3.515428   2.399165   2.860219   2.969472
                   11         12
    11  H    0.000000
    12  H    1.808624   0.000000
 Symmetry turned off by external request.
 Stoichiometry    C3H6O3
 Framework group  C1[X(C3H6O3)]
 Deg. of freedom    30
 Full point group                 C1      NOp   1
 Rotational constants (GHZ):           7.7172330           1.8427704           1.6696887
 Standard basis: 6-31+G(d) (6D, 7F)
   126 basis functions,   216 primitive gaussians,   126 cartesian basis functions
    24 alpha electrons       24 beta electrons
       nuclear repulsion energy       236.1865451180 Hartrees.
 NAtoms=   12 NActive=   12 NUniq=   12 SFac= 1.00D+00 NAtFMM=   60 NAOKFM=F Big=F
 Integral buffers will be    131072 words long.
 Raffenetti 2 integral format.
 Two-electron integral symmetry is turned off.
 One-electron integrals computed using PRISM.
 NBasis=   126 RedAO= T EigKep=  1.10D-04  NBF=   126
 NBsUse=   126 1.00D-06 EigRej= -1.00D+00 NBFU=   126
 ExpMin= 4.38D-02 ExpMax= 5.48D+03 ExpMxC= 8.25D+02 IAcc=3 IRadAn=         5 AccDes= 0.00D+00
 Harris functional with IExCor=  402 and IRadAn=       5 diagonalized for initial guess.
 HarFok:  IExCor=  402 AccDes= 0.00D+00 IRadAn=         5 IDoV= 1 UseB2=F ITyADJ=14
 ICtDFT=  3500011 ScaDFX=  1.000000  1.000000  1.000000  1.000000
 FoFCou: FMM=F IPFlag=           0 FMFlag=      100000 FMFlg1=           0
         NFxFlg=           0 DoJE=T BraDBF=F KetDBF=T FulRan=T
         wScrn=  0.000000 ICntrl=       500 IOpCl=  0 I1Cent=   200000004 NGrid=           0
         NMat0=    1 NMatS0=      1 NMatT0=    0 NMatD0=    1 NMtDS0=    0 NMtDT0=    0
 Symmetry not used in FoFCou.
 Keep R1 ints in memory in canonical form, NReq=47237243.
 Requested convergence on RMS density matrix=1.00D-08 within 128 cycles.
 Requested convergence on MAX density matrix=1.00D-06.
 Requested convergence on             energy=1.00D-06.
 No special actions if energy rises.
 SCF Done:  E(RB3LYP) =  -343.387047008     A.U. after   13 cycles
            NFock= 13  Conv=0.61D-08     -V/T= 2.0091
 DoSCS=F DFT=T ScalE2(SS,OS)=  1.000000  1.000000
 Range of M.O.s used for correlation:     1   126
 NBasis=   126 NAE=    24 NBE=    24 NFC=     0 NFV=     0
 NROrb=    126 NOA=    24 NOB=    24 NVA=   102 NVB=   102

 **** Warning!!: The largest alpha MO coefficient is  0.35848126D+02

 Symmetrizing basis deriv contribution to polar:
 IMax=3 JMax=2 DiffMx= 0.00D+00
 G2DrvN: will do    13 centers at a time, making    1 passes.
 Calling FoFCou, ICntrl=  3107 FMM=F I1Cent=   0 AccDes= 0.00D+00.
 End of G2Drv F.D. properties file   721 does not exist.
 End of G2Drv F.D. properties file   722 does not exist.
 End of G2Drv F.D. properties file   788 does not exist.
          IDoAtm=111111111111
          Differentiating once with respect to nuclear coordinates.
 Keep R1 ints in memory in canonical form, NReq=47193258.
          There are    39 degrees of freedom in the 1st order CPHF.  IDoFFX=6 NUNeed=     0.
     33 vectors produced by pass  0 Test12= 6.28D-15 2.56D-09 XBig12= 1.23D-01 1.58D-01.
 AX will form    33 AO Fock derivatives at one time.
     33 vectors produced by pass  1 Test12= 6.28D-15 2.56D-09 XBig12= 1.91D-02 4.79D-02.
     33 vectors produced by pass  2 Test12= 6.28D-15 2.56D-09 XBig12= 3.24D-04 3.99D-03.
     33 vectors produced by pass  3 Test12= 6.28D-15 2.56D-09 XBig12= 2.06D-06 2.25D-04.
     33 vectors produced by pass  4 Test12= 6.28D-15 2.56D-09 XBig12= 5.40D-09 1.08D-05.
     30 vectors produced by pass  5 Test12= 6.28D-15 2.56D-09 XBig12= 6.56D-12 3.72D-07.
      4 vectors produced by pass  6 Test12= 6.28D-15 2.56D-09 XBig12= 7.22D-15 1.30D-08.
 InvSVY:  IOpt=1 It=  1 EMax= 2.00D-15
 Solved reduced A of dimension   199 with    33 vectors.
 End of Minotr F.D. properties file   721 does not exist.
 End of Minotr F.D. properties file   722 does not exist.
 End of Minotr F.D. properties file   788 does not exist.

 **********************************************************************

            Population analysis using the SCF Density.

 **********************************************************************

 Alpha  occ. eigenvalues --  -19.21745 -19.21438 -19.21158 -10.31766 -10.25595
 Alpha  occ. eigenvalues --  -10.20415  -1.12463  -1.09981  -0.92085  -0.78459
 Alpha  occ. eigenvalues --   -0.67490  -0.62919  -0.54926  -0.51373  -0.48811
 Alpha  occ. eigenvalues --   -0.47980  -0.46386  -0.43473  -0.42016  -0.37296
 Alpha  occ. eigenvalues --   -0.36282  -0.30176  -0.28626  -0.25283
 Alpha virt. eigenvalues --   -0.08268  -0.00702   0.00716   0.01149   0.01861
 Alpha virt. eigenvalues --    0.03023   0.05151   0.05890   0.06099   0.07880
 Alpha virt. eigenvalues --    0.08519   0.09623   0.12258   0.12480   0.14822
 Alpha virt. eigenvalues --    0.16668   0.17833   0.19157   0.19936   0.20185
 Alpha virt. eigenvalues --    0.21871   0.23186   0.23452   0.23926   0.24794
 Alpha virt. eigenvalues --    0.25484   0.27671   0.28521   0.28838   0.29762
 Alpha virt. eigenvalues --    0.31982   0.35290   0.36421   0.37180   0.39058
 Alpha virt. eigenvalues --    0.41836   0.61354   0.63349   0.67101   0.69392
 Alpha virt. eigenvalues --    0.72435   0.73337   0.75551   0.81222   0.88751
 Alpha virt. eigenvalues --    0.90925   0.93274   0.94333   0.97356   1.03257
 Alpha virt. eigenvalues --    1.05346   1.07628   1.11638   1.14531   1.15281
 Alpha virt. eigenvalues --    1.16802   1.18947   1.21506   1.25955   1.28255
 Alpha virt. eigenvalues --    1.31279   1.32542   1.35931   1.42330   1.46816
 Alpha virt. eigenvalues --    1.51390   1.53196   1.63158   1.64841   1.67237
 Alpha virt. eigenvalues --    1.71744   1.72192   1.76228   1.78176   1.85005
 Alpha virt. eigenvalues --    1.86841   1.94978   1.96927   1.99490   2.03467
 Alpha virt. eigenvalues --    2.08584   2.11249   2.17790   2.23178   2.30630
 Alpha virt. eigenvalues --    2.38418   2.46451   2.49357   2.52147   2.55401
 Alpha virt. eigenvalues --    2.58177   2.74746   2.85302   2.90913   2.94495
 Alpha virt. eigenvalues --    3.12468   3.97136   4.08270   4.21024   4.24764
 Alpha virt. eigenvalues --    4.36049   4.48422
          Condensed to atoms (all electrons):
               1          2          3          4          5          6
     1  C    6.147940  -0.769807   0.025761   0.128717  -0.093329   0.010596
     2  C   -0.769807   7.167417   0.078209  -0.119253   0.115116  -0.258831
     3  C    0.025761   0.078209   5.126810   0.049118  -0.053694   0.283622
     4  O    0.128717  -0.119253   0.049118   8.082994   0.117939   0.001308
     5  O   -0.093329   0.115116  -0.053694   0.117939   8.204033   0.002880
     6  O    0.010596  -0.258831   0.283622   0.001308   0.002880   8.396119
     7  H   -0.026244   0.047033  -0.004056  -0.041623   0.194478  -0.001991
     8  H    0.405088  -0.086492   0.026104  -0.028700  -0.005378  -0.000409
     9  H    0.421915  -0.043809  -0.031920  -0.051659   0.009494  -0.000835
    10  H    0.033947  -0.098438   0.390791  -0.000250  -0.000100  -0.059236
    11  H    0.054622   0.168126  -0.067162  -0.002280  -0.004659   0.003942
    12  H   -0.041554   0.348862  -0.015923   0.006612  -0.001238  -0.005874
               7          8          9         10         11         12
     1  C   -0.026244   0.405088   0.421915   0.033947   0.054622  -0.041554
     2  C    0.047033  -0.086492  -0.043809  -0.098438   0.168126   0.348862
     3  C   -0.004056   0.026104  -0.031920   0.390791  -0.067162  -0.015923
     4  O   -0.041623  -0.028700  -0.051659  -0.000250  -0.002280   0.006612
     5  O    0.194478  -0.005378   0.009494  -0.000100  -0.004659  -0.001238
     6  O   -0.001991  -0.000409  -0.000835  -0.059236   0.003942  -0.005874
     7  H    0.375789  -0.000879  -0.000203   0.000023   0.001760  -0.000340
     8  H   -0.000879   0.519269  -0.029502  -0.000083  -0.000321  -0.002675
     9  H   -0.000203  -0.029502   0.522903   0.000985   0.000841   0.001996
    10  H    0.000023  -0.000083   0.000985   0.508739   0.013416   0.001601
    11  H    0.001760  -0.000321   0.000841   0.013416   0.506640  -0.005028
    12  H   -0.000340  -0.002675   0.001996   0.001601  -0.005028   0.459093
 Mulliken charges:
               1
     1  C   -0.297651
     2  C   -0.548134
     3  C    0.192339
     4  O   -0.142923
     5  O   -0.485542
     6  O   -0.371290
     7  H    0.456253
     8  H    0.203977
     9  H    0.199794
    10  H    0.208604
    11  H    0.330103
    12  H    0.254468
 Sum of Mulliken charges =  -0.00000
 Mulliken charges with hydrogens summed into heavy atoms:
               1
     1  C    0.106121
     2  C   -0.293666
     3  C    0.400944
     4  O   -0.142923
     5  O   -0.029289
     6  O   -0.041187
 APT charges:
               1
     1  C   -0.990997
     2  C   -0.745982
     3  C   -0.154890
     4  O   -0.139661
     5  O   -0.497157
     6  O   -0.300829
     7  H    0.489936
     8  H    0.485457
     9  H    0.460003
    10  H    0.520814
    11  H    0.361505
    12  H    0.511800
 Sum of APT charges =  -0.00000
 APT charges with hydrogens summed into heavy atoms:
               1
     1  C   -0.045537
     2  C   -0.234182
     3  C    0.365924
     4  O   -0.139661
     5  O   -0.007221
     6  O    0.060676
 Electronic spatial extent (au):  <R**2>=            706.3726
 Charge=              0.0000 electrons
 Dipole moment (field-independent basis, Debye):
    X=              1.9044    Y=              1.4840    Z=              0.5779  Tot=              2.4825
 Quadrupole moment (field-independent basis, Debye-Ang):
   XX=            -47.8616   YY=            -32.4384   ZZ=            -35.6636
   XY=              2.6166   XZ=             -1.6527   YZ=             -0.6253
 Traceless Quadrupole moment (field-independent basis, Debye-Ang):
   XX=             -9.2071   YY=              6.2162   ZZ=              2.9909
   XY=              2.6166   XZ=             -1.6527   YZ=             -0.6253
 Octapole moment (field-independent basis, Debye-Ang**2):
  XXX=             -3.3704  YYY=             -9.9976  ZZZ=             -1.0597  XYY=             -6.2667
  XXY=             12.1273  XXZ=              0.7086  XZZ=              3.5160  YZZ=              0.8683
  YYZ=             -1.7021  XYZ=             -3.9481
 Hexadecapole moment (field-independent basis, Debye-Ang**3):
 XXXX=           -717.7029 YYYY=           -146.2807 ZZZZ=            -88.9586 XXXY=             14.7140
 XXXZ=             -4.0695 YYYX=              7.6723 YYYZ=             -5.2451 ZZZX=             -1.2368
 ZZZY=              0.8230 XXYY=           -132.2982 XXZZ=           -116.0060 YYZZ=            -40.7335
 XXYZ=             -3.5136 YYXZ=             -1.1837 ZZXY=              1.6965
 N-N= 2.361865451180D+02 E-N=-1.276668405243D+03  KE= 3.402890152690D+02
  Exact polarizability:   0.000   0.000   0.000   0.000   0.000   0.000
 Approx polarizability:  88.186  -9.906  83.792 -10.807  -8.482  67.814
 Calling FoFJK, ICntrl=    100127 FMM=F ISym2X=0 I1Cent= 0 IOpClX= 0 NMat=1 NMatS=1 NMatT=0.
 -------------------------------------------------------------------
 Center     Atomic                   Forces (Hartrees/Bohr)
 Number     Number              X              Y              Z
 -------------------------------------------------------------------
      1        6          -0.000008112    0.000007124   -0.000004876
      2        6           0.000010937   -0.000010241   -0.000015356
      3        6          -0.000009542    0.000011574    0.000003765
      4        8           0.000009008   -0.000000120    0.000003615
      5        8           0.000001808   -0.000002390    0.000004441
      6        8           0.000008764   -0.000008850    0.000004291
      7        1          -0.000002311   -0.000000020   -0.000000756
      8        1          -0.000005961    0.000003902    0.000002979
      9        1           0.000002904    0.000001344    0.000004673
     10        1          -0.000001148   -0.000003271   -0.000000854
     11        1          -0.000003858   -0.000004266   -0.000004098
     12        1          -0.000002490    0.000005215    0.000002175
 -------------------------------------------------------------------
 Cartesian Forces:  Max     0.000015356 RMS     0.000006089
 IRC-IRC-IRC-IRC-IRC-IRC-IRC-IRC-IRC-IRC-IRC-IRC-IRC-IRC-IRC-IRC-IRC-IRC
          ******** Start new reaction path calculation ********
 Supplied step size of   0.1500 bohr.
    Integration on MW PES will use step size of   0.1572 sqrt(amu)*bohr.
 Point Number:   0          Path Number:   1
 Calculating another point on the path.
 IRC-IRC-IRC-IRC-IRC-IRC-IRC-IRC-IRC-IRC-IRC-IRC-IRC-IRC-IRC-IRC-IRC-IRC
                          Input orientation:                          
 ---------------------------------------------------------------------
 Center     Atomic      Atomic             Coordinates (Angstroms)
 Number     Number       Type             X           Y           Z
 ---------------------------------------------------------------------
      1          6           0       -0.743275    1.006091    0.231417
      2          6           0        0.587667    0.385499    0.586564
      3          6           0        1.691401    0.324220   -0.315319
      4          8           0       -1.554606    0.180983   -0.618307
      5          8           0       -2.067086   -0.913035    0.186327
      6          8           0        2.413380   -0.698450   -0.070624
      7          1           0       -1.370112   -1.585881    0.066121
      8          1           0       -1.316942    1.262637    1.127914
      9          1           0       -0.628822    1.913264   -0.379836
     10          1           0        1.960583    0.983802   -1.147033
     11          1           0        1.311635   -0.896005    0.718928
     12          1           0        0.934015    0.595454    1.605485
 ---------------------------------------------------------------------
                    Distance matrix (angstroms):
                    1          2          3          4          5
     1  C    0.000000
     2  C    1.510851   0.000000
     3  C    2.586796   1.426667   0.000000
     4  O    1.435651   2.466349   3.263263   0.000000
     5  O    2.331856   2.982297   3.988568   1.451532   0.000000
     6  O    3.600160   2.222626   1.275532   4.101009   4.492955
     7  H    2.671809   2.826676   3.628614   1.903755   0.976188
     8  H    1.094814   2.165633   3.466075   2.067788   2.486534
     9  H    1.099861   2.178954   2.812945   1.978572   3.221353
    10  H    3.035040   2.290900   1.095105   3.644259   4.647360
    11  H    2.842233   1.477803   1.644031   3.341173   3.420483
    12  H    2.206805   1.096466   2.082472   3.363075   3.646389
                    6          7          8          9         10
     6  O    0.000000
     7  H    3.888578   0.000000
     8  H    4.381513   3.040442   0.000000
     9  H    4.021399   3.604498   1.780487   0.000000
    10  H    2.047841   4.378189   3.999413   2.856135   0.000000
    11  H    1.369767   2.844969   3.425846   3.586732   2.727016
    12  H    2.583031   3.526594   2.395833   2.849664   2.963278
                   11         12
    11  H    0.000000
    12  H    1.775678   0.000000
 Symmetry turned off by external request.
 Stoichiometry    C3H6O3
 Framework group  C1[X(C3H6O3)]
 Deg. of freedom    30
 Full point group                 C1      NOp   1
 Rotational constants (GHZ):           7.7262362           1.8419093           1.6699955
 Standard basis: 6-31+G(d) (6D, 7F)
   126 basis functions,   216 primitive gaussians,   126 cartesian basis functions
    24 alpha electrons       24 beta electrons
       nuclear repulsion energy       236.1719314057 Hartrees.
 NAtoms=   12 NActive=   12 NUniq=   12 SFac= 1.00D+00 NAtFMM=   60 NAOKFM=F Big=F
 Integral buffers will be    131072 words long.
 Raffenetti 2 integral format.
 Two-electron integral symmetry is turned off.
 One-electron integrals computed using PRISM.
 NBasis=   126 RedAO= T EigKep=  1.10D-04  NBF=   126
 NBsUse=   126 1.00D-06 EigRej= -1.00D+00 NBFU=   126
 Initial guess from the checkpoint file:  "/scratch/bell/zhao922/YARP/paper-example/KHP-network/pp_0/IRC-folder/Gau-71314.chk"
 B after Tr=     0.017268    0.044255    0.038847
         Rot=    1.000000    0.000338    0.000134    0.000030 Ang=   0.04 deg.
 ExpMin= 4.38D-02 ExpMax= 5.48D+03 ExpMxC= 8.25D+02 IAcc=3 IRadAn=         5 AccDes= 0.00D+00
 Harris functional with IExCor=  402 and IRadAn=       5 diagonalized for initial guess.
 HarFok:  IExCor=  402 AccDes= 0.00D+00 IRadAn=         5 IDoV= 1 UseB2=F ITyADJ=14
 ICtDFT=  3500011 ScaDFX=  1.000000  1.000000  1.000000  1.000000
 FoFCou: FMM=F IPFlag=           0 FMFlag=      100000 FMFlg1=           0
         NFxFlg=           0 DoJE=T BraDBF=F KetDBF=T FulRan=T
         wScrn=  0.000000 ICntrl=       500 IOpCl=  0 I1Cent=   200000004 NGrid=           0
         NMat0=    1 NMatS0=      1 NMatT0=    0 NMatD0=    1 NMtDS0=    0 NMtDT0=    0
 Symmetry not used in FoFCou.
 Keep R1 ints in memory in canonical form, NReq=47237243.
 Requested convergence on RMS density matrix=1.00D-08 within 128 cycles.
 Requested convergence on MAX density matrix=1.00D-06.
 Requested convergence on             energy=1.00D-06.
 No special actions if energy rises.
 SCF Done:  E(RB3LYP) =  -343.389163994     A.U. after   13 cycles
            NFock= 13  Conv=0.42D-08     -V/T= 2.0091
 DoSCS=F DFT=T ScalE2(SS,OS)=  1.000000  1.000000
 Range of M.O.s used for correlation:     1   126
 NBasis=   126 NAE=    24 NBE=    24 NFC=     0 NFV=     0
 NROrb=    126 NOA=    24 NOB=    24 NVA=   102 NVB=   102

 **** Warning!!: The largest alpha MO coefficient is  0.36566279D+02

 Symmetrizing basis deriv contribution to polar:
 IMax=3 JMax=2 DiffMx= 0.00D+00
 G2DrvN: will do    13 centers at a time, making    1 passes.
 Calling FoFCou, ICntrl=  3107 FMM=F I1Cent=   0 AccDes= 0.00D+00.
 End of G2Drv F.D. properties file   721 does not exist.
 End of G2Drv F.D. properties file   722 does not exist.
 End of G2Drv F.D. properties file   788 does not exist.
          IDoAtm=111111111111
          Differentiating once with respect to nuclear coordinates.
 Keep R1 ints in memory in canonical form, NReq=47193258.
          There are    39 degrees of freedom in the 1st order CPHF.  IDoFFX=6 NUNeed=     0.
     33 vectors produced by pass  0 Test12= 6.28D-15 2.56D-09 XBig12= 1.23D-01 1.42D-01.
 AX will form    33 AO Fock derivatives at one time.
     33 vectors produced by pass  1 Test12= 6.28D-15 2.56D-09 XBig12= 2.51D-02 5.38D-02.
     33 vectors produced by pass  2 Test12= 6.28D-15 2.56D-09 XBig12= 4.54D-04 3.89D-03.
     33 vectors produced by pass  3 Test12= 6.28D-15 2.56D-09 XBig12= 2.01D-06 2.06D-04.
     33 vectors produced by pass  4 Test12= 6.28D-15 2.56D-09 XBig12= 5.37D-09 1.03D-05.
     28 vectors produced by pass  5 Test12= 6.28D-15 2.56D-09 XBig12= 6.40D-12 3.29D-07.
      5 vectors produced by pass  6 Test12= 6.28D-15 2.56D-09 XBig12= 7.04D-15 1.41D-08.
 InvSVY:  IOpt=1 It=  1 EMax= 2.66D-15
 Solved reduced A of dimension   198 with    33 vectors.
 End of Minotr F.D. properties file   721 does not exist.
 End of Minotr F.D. properties file   722 does not exist.
 End of Minotr F.D. properties file   788 does not exist.
 Calling FoFJK, ICntrl=    100127 FMM=F ISym2X=0 I1Cent= 0 IOpClX= 0 NMat=1 NMatS=1 NMatT=0.
 -------------------------------------------------------------------
 Center     Atomic                   Forces (Hartrees/Bohr)
 Number     Number              X              Y              Z
 -------------------------------------------------------------------
      1        6          -0.001818898   -0.003304603    0.000093541
      2        6           0.002309472   -0.012386002    0.007765632
      3        6           0.014268745   -0.008716471   -0.001434728
      4        8          -0.000043251    0.000139856   -0.000099718
      5        8           0.000161839    0.000254002   -0.000035822
      6        8           0.006200231    0.010184786   -0.012846176
      7        1          -0.000053596   -0.000070897   -0.000032089
      8        1           0.000003715   -0.000051098    0.000037066
      9        1           0.000748204   -0.000196622    0.000395208
     10        1           0.000395332    0.001038717    0.000652002
     11        1          -0.022698112    0.007711477    0.006301228
     12        1           0.000526320    0.005396855   -0.000796144
 -------------------------------------------------------------------
 Cartesian Forces:  Max     0.022698112 RMS     0.006388104
 IRC-IRC-IRC-IRC-IRC-IRC-IRC-IRC-IRC-IRC-IRC-IRC-IRC-IRC-IRC-IRC-IRC-IRC
 Pt  1 Step number   1 out of a maximum of 100
 Modified Bulirsch-Stoer Extrapolation Cycles:
    EPS =    0.000010000000000
      PEZero:  N= 2 I= 1 D=  4.09D-04 Err=  1.05D-03
      PEZero:  N= 3 I= 2 D=  4.09D-04 Err=  6.99D-04
      PEZero:  N= 3 I= 1 D=  8.19D-04 Err=  8.71D-08
 Maximum DWI energy   std dev =  0.000007844 at pt     1
 Maximum DWI gradient std dev =  0.007549770 at pt    42
 CORRECTOR INTEGRATION CONVERGENCE:
   Recorrection delta-x convergence threshold:    0.010000
   Delta-x Convergence Met
 Point Number:   1          Path Number:   1
   CHANGE IN THE REACTION COORDINATE =    0.15720
   NET REACTION COORDINATE UP TO THIS POINT =    0.15720
  # OF POINTS ALONG THE PATH =   1
  # OF STEPS =   1

 Calculating another point on the path.
 IRC-IRC-IRC-IRC-IRC-IRC-IRC-IRC-IRC-IRC-IRC-IRC-IRC-IRC-IRC-IRC-IRC-IRC
                          Input orientation:                          
 ---------------------------------------------------------------------
 Center     Atomic      Atomic             Coordinates (Angstroms)
 Number     Number       Type             X           Y           Z
 ---------------------------------------------------------------------
      1          6           0       -0.743753    1.005216    0.231441
      2          6           0        0.588316    0.382260    0.588617
      3          6           0        1.695116    0.321985   -0.315721
      4          8           0       -1.554609    0.181011   -0.618325
      5          8           0       -2.067052   -0.912985    0.186324
      6          8           0        2.414602   -0.696488   -0.073088
      7          1           0       -1.370330   -1.586151    0.065958
      8          1           0       -1.316937    1.262476    1.128012
      9          1           0       -0.626423    1.912643   -0.378604
     10          1           0        1.961531    0.986925   -1.145277
     11          1           0        1.240864   -0.871489    0.737728
     12          1           0        0.935509    0.612076    1.603248
 ---------------------------------------------------------------------
                    Distance matrix (angstroms):
                    1          2          3          4          5
     1  C    0.000000
     2  C    1.513294   0.000000
     3  C    2.591192   1.430548   0.000000
     4  O    1.434888   2.467659   3.266827   0.000000
     5  O    2.330804   2.981691   3.991380   1.451511   0.000000
     6  O    3.600520   2.221907   1.270361   4.101454   4.494373
     7  H    2.671173   2.825617   3.630926   1.903960   0.976250
     8  H    1.094789   2.166961   3.470065   2.067789   2.486379
     9  H    1.099703   2.180179   2.814905   1.979280   3.221604
    10  H    3.035499   2.292974   1.096032   3.645603   4.648904
    11  H    2.777958   1.421245   1.655439   3.280443   3.353815
    12  H    2.203710   1.096738   2.084130   3.364802   3.653609
                    6          7          8          9         10
     6  O    0.000000
     7  H    3.890571   0.000000
     8  H    4.382301   3.040640   0.000000
     9  H    4.018549   3.604525   1.780286   0.000000
    10  H    2.046642   4.380537   3.999016   2.853462   0.000000
    11  H    1.437257   2.789328   3.353875   3.533320   2.742037
    12  H    2.590397   3.537281   2.392150   2.838810   2.957638
                   11         12
    11  H    0.000000
    12  H    1.744515   0.000000
 Symmetry turned off by external request.
 Stoichiometry    C3H6O3
 Framework group  C1[X(C3H6O3)]
 Deg. of freedom    30
 Full point group                 C1      NOp   1
 Rotational constants (GHZ):           7.7353987           1.8410014           1.6702679
 Standard basis: 6-31+G(d) (6D, 7F)
   126 basis functions,   216 primitive gaussians,   126 cartesian basis functions
    24 alpha electrons       24 beta electrons
       nuclear repulsion energy       236.1820365141 Hartrees.
 NAtoms=   12 NActive=   12 NUniq=   12 SFac= 1.00D+00 NAtFMM=   60 NAOKFM=F Big=F
 Integral buffers will be    131072 words long.
 Raffenetti 2 integral format.
 Two-electron integral symmetry is turned off.
 One-electron integrals computed using PRISM.
 NBasis=   126 RedAO= T EigKep=  1.10D-04  NBF=   126
 NBsUse=   126 1.00D-06 EigRej= -1.00D+00 NBFU=   126
 Initial guess from the checkpoint file:  "/scratch/bell/zhao922/YARP/paper-example/KHP-network/pp_0/IRC-folder/Gau-71314.chk"
 B after Tr=    -0.001284    0.000819    0.000405
         Rot=    1.000000    0.000332    0.000127    0.000027 Ang=   0.04 deg.
 ExpMin= 4.38D-02 ExpMax= 5.48D+03 ExpMxC= 8.25D+02 IAcc=3 IRadAn=         5 AccDes= 0.00D+00
 Harris functional with IExCor=  402 and IRadAn=       5 diagonalized for initial guess.
 HarFok:  IExCor=  402 AccDes= 0.00D+00 IRadAn=         5 IDoV= 1 UseB2=F ITyADJ=14
 ICtDFT=  3500011 ScaDFX=  1.000000  1.000000  1.000000  1.000000
 FoFCou: FMM=F IPFlag=           0 FMFlag=      100000 FMFlg1=           0
         NFxFlg=           0 DoJE=T BraDBF=F KetDBF=T FulRan=T
         wScrn=  0.000000 ICntrl=       500 IOpCl=  0 I1Cent=   200000004 NGrid=           0
         NMat0=    1 NMatS0=      1 NMatT0=    0 NMatD0=    1 NMtDS0=    0 NMtDT0=    0
 Symmetry not used in FoFCou.
 Keep R1 ints in memory in canonical form, NReq=47237243.
 Requested convergence on RMS density matrix=1.00D-08 within 128 cycles.
 Requested convergence on MAX density matrix=1.00D-06.
 Requested convergence on             energy=1.00D-06.
 No special actions if energy rises.
 SCF Done:  E(RB3LYP) =  -343.395170719     A.U. after   13 cycles
            NFock= 13  Conv=0.40D-08     -V/T= 2.0091
 DoSCS=F DFT=T ScalE2(SS,OS)=  1.000000  1.000000
 Range of M.O.s used for correlation:     1   126
 NBasis=   126 NAE=    24 NBE=    24 NFC=     0 NFV=     0
 NROrb=    126 NOA=    24 NOB=    24 NVA=   102 NVB=   102

 **** Warning!!: The largest alpha MO coefficient is  0.37138338D+02

 Symmetrizing basis deriv contribution to polar:
 IMax=3 JMax=2 DiffMx= 0.00D+00
 G2DrvN: will do    13 centers at a time, making    1 passes.
 Calling FoFCou, ICntrl=  3107 FMM=F I1Cent=   0 AccDes= 0.00D+00.
 End of G2Drv F.D. properties file   721 does not exist.
 End of G2Drv F.D. properties file   722 does not exist.
 End of G2Drv F.D. properties file   788 does not exist.
          IDoAtm=111111111111
          Differentiating once with respect to nuclear coordinates.
 Keep R1 ints in memory in canonical form, NReq=47193258.
          There are    39 degrees of freedom in the 1st order CPHF.  IDoFFX=6 NUNeed=     0.
     33 vectors produced by pass  0 Test12= 6.28D-15 2.56D-09 XBig12= 1.22D-01 1.36D-01.
 AX will form    33 AO Fock derivatives at one time.
     33 vectors produced by pass  1 Test12= 6.28D-15 2.56D-09 XBig12= 3.06D-02 5.91D-02.
     33 vectors produced by pass  2 Test12= 6.28D-15 2.56D-09 XBig12= 5.34D-04 3.85D-03.
     33 vectors produced by pass  3 Test12= 6.28D-15 2.56D-09 XBig12= 2.64D-06 2.11D-04.
     33 vectors produced by pass  4 Test12= 6.28D-15 2.56D-09 XBig12= 5.45D-09 9.97D-06.
     28 vectors produced by pass  5 Test12= 6.28D-15 2.56D-09 XBig12= 6.33D-12 3.07D-07.
      5 vectors produced by pass  6 Test12= 6.28D-15 2.56D-09 XBig12= 6.58D-15 1.28D-08.
 InvSVY:  IOpt=1 It=  1 EMax= 2.44D-15
 Solved reduced A of dimension   198 with    33 vectors.
 End of Minotr F.D. properties file   721 does not exist.
 End of Minotr F.D. properties file   722 does not exist.
 End of Minotr F.D. properties file   788 does not exist.
 Calling FoFJK, ICntrl=    100127 FMM=F ISym2X=0 I1Cent= 0 IOpClX= 0 NMat=1 NMatS=1 NMatT=0.
 -------------------------------------------------------------------
 Center     Atomic                   Forces (Hartrees/Bohr)
 Number     Number              X              Y              Z
 -------------------------------------------------------------------
      1        6          -0.003379015   -0.006300135    0.000180736
      2        6           0.004729088   -0.023087261    0.014896717
      3        6           0.026317890   -0.015746152   -0.002906872
      4        8          -0.000009377    0.000271559   -0.000178650
      5        8           0.000329926    0.000476310   -0.000008114
      6        8           0.011338124    0.018225842   -0.022844220
      7        1          -0.000159344   -0.000178623   -0.000122131
      8        1          -0.000006104   -0.000102115    0.000054858
      9        1           0.001461250   -0.000391085    0.000739372
     10        1           0.000461477    0.001838191    0.000999600
     11        1          -0.041929144    0.015086886    0.010566590
     12        1           0.000845230    0.009906583   -0.001377886
 -------------------------------------------------------------------
 Cartesian Forces:  Max     0.041929144 RMS     0.011745072
 IRC-IRC-IRC-IRC-IRC-IRC-IRC-IRC-IRC-IRC-IRC-IRC-IRC-IRC-IRC-IRC-IRC-IRC
 Pt  2 Step number   1 out of a maximum of 100
 Modified Bulirsch-Stoer Extrapolation Cycles:
    EPS =    0.000010000000000
      PEZero:  N= 2 I= 1 D=  8.19D-04 Err=  2.62D-05
      PEZero:  N= 3 I= 2 D=  8.19D-04 Err=  1.75D-05
      PEZero:  N= 3 I= 1 D=  1.64D-03 Err=  2.69D-08
 Maximum DWI energy   std dev =  0.000021436 at pt    28
 Maximum DWI gradient std dev =  0.003829078 at pt    46
 CORRECTOR INTEGRATION CONVERGENCE:
   Recorrection delta-x convergence threshold:    0.010000
   Delta-x Convergence Met
 Point Number:   2          Path Number:   1
   CHANGE IN THE REACTION COORDINATE =    0.15715
   NET REACTION COORDINATE UP TO THIS POINT =    0.31435
  # OF POINTS ALONG THE PATH =   2
  # OF STEPS =   1

 Calculating another point on the path.
 IRC-IRC-IRC-IRC-IRC-IRC-IRC-IRC-IRC-IRC-IRC-IRC-IRC-IRC-IRC-IRC-IRC-IRC
                          Input orientation:                          
 ---------------------------------------------------------------------
 Center     Atomic      Atomic             Coordinates (Angstroms)
 Number     Number       Type             X           Y           Z
 ---------------------------------------------------------------------
      1          6           0       -0.744233    1.004309    0.231467
      2          6           0        0.589019    0.378976    0.590769
      3          6           0        1.698840    0.319784   -0.316150
      4          8           0       -1.554606    0.181040   -0.618344
      5          8           0       -2.067016   -0.912934    0.186327
      6          8           0        2.415799   -0.694587   -0.075466
      7          1           0       -1.370653   -1.586497    0.065695
      8          1           0       -1.316966    1.262300    1.128096
      9          1           0       -0.623887    1.911959   -0.377344
     10          1           0        1.962084    0.989949   -1.143754
     11          1           0        1.170195   -0.845321    0.754576
     12          1           0        0.936822    0.628756    1.600965
 ---------------------------------------------------------------------
                    Distance matrix (angstroms):
                    1          2          3          4          5
     1  C    0.000000
     2  C    1.515817   0.000000
     3  C    2.595585   1.434471   0.000000
     4  O    1.434104   2.469061   3.270395   0.000000
     5  O    2.329723   2.981128   3.994214   1.451495   0.000000
     6  O    3.600869   2.221156   1.265270   4.101897   4.495758
     7  H    2.670610   2.824731   3.633387   1.904189   0.976299
     8  H    1.094772   2.168354   3.474085   2.067764   2.486191
     9  H    1.099529   2.181381   2.816705   1.980000   3.221858
    10  H    3.035719   2.295031   1.096972   3.646573   4.650131
    11  H    2.712897   1.365101   1.668349   3.219141   3.287402
    12  H    2.200570   1.097202   2.086016   3.366451   3.660744
                    6          7          8          9         10
     6  O    0.000000
     7  H    3.892641   0.000000
     8  H    4.383093   3.040924   0.000000
     9  H    4.015583   3.604599   1.780103   0.000000
    10  H    2.045669   4.382691   3.998455   2.850392   0.000000
    11  H    1.504399   2.734925   3.281395   3.478874   2.756621
    12  H    2.597890   3.548076   2.388418   2.827743   2.952136
                   11         12
    11  H    0.000000
    12  H    1.715733   0.000000
 Symmetry turned off by external request.
 Stoichiometry    C3H6O3
 Framework group  C1[X(C3H6O3)]
 Deg. of freedom    30
 Full point group                 C1      NOp   1
 Rotational constants (GHZ):           7.7446710           1.8400444           1.6704975
 Standard basis: 6-31+G(d) (6D, 7F)
   126 basis functions,   216 primitive gaussians,   126 cartesian basis functions
    24 alpha electrons       24 beta electrons
       nuclear repulsion energy       236.2125661929 Hartrees.
 NAtoms=   12 NActive=   12 NUniq=   12 SFac= 1.00D+00 NAtFMM=   60 NAOKFM=F Big=F
 Integral buffers will be    131072 words long.
 Raffenetti 2 integral format.
 Two-electron integral symmetry is turned off.
 One-electron integrals computed using PRISM.
 NBasis=   126 RedAO= T EigKep=  1.10D-04  NBF=   126
 NBsUse=   126 1.00D-06 EigRej= -1.00D+00 NBFU=   126
 Initial guess from the checkpoint file:  "/scratch/bell/zhao922/YARP/paper-example/KHP-network/pp_0/IRC-folder/Gau-71314.chk"
 B after Tr=    -0.001293    0.000847    0.000361
         Rot=    1.000000    0.000331    0.000123    0.000023 Ang=   0.04 deg.
 ExpMin= 4.38D-02 ExpMax= 5.48D+03 ExpMxC= 8.25D+02 IAcc=3 IRadAn=         5 AccDes= 0.00D+00
 Harris functional with IExCor=  402 and IRadAn=       5 diagonalized for initial guess.
 HarFok:  IExCor=  402 AccDes= 0.00D+00 IRadAn=         5 IDoV= 1 UseB2=F ITyADJ=14
 ICtDFT=  3500011 ScaDFX=  1.000000  1.000000  1.000000  1.000000
 FoFCou: FMM=F IPFlag=           0 FMFlag=      100000 FMFlg1=           0
         NFxFlg=           0 DoJE=T BraDBF=F KetDBF=T FulRan=T
         wScrn=  0.000000 ICntrl=       500 IOpCl=  0 I1Cent=   200000004 NGrid=           0
         NMat0=    1 NMatS0=      1 NMatT0=    0 NMatD0=    1 NMtDS0=    0 NMtDT0=    0
 Symmetry not used in FoFCou.
 Keep R1 ints in memory in canonical form, NReq=47237243.
 Requested convergence on RMS density matrix=1.00D-08 within 128 cycles.
 Requested convergence on MAX density matrix=1.00D-06.
 Requested convergence on             energy=1.00D-06.
 No special actions if energy rises.
 SCF Done:  E(RB3LYP) =  -343.404233664     A.U. after   13 cycles
            NFock= 13  Conv=0.34D-08     -V/T= 2.0091
 DoSCS=F DFT=T ScalE2(SS,OS)=  1.000000  1.000000
 Range of M.O.s used for correlation:     1   126
 NBasis=   126 NAE=    24 NBE=    24 NFC=     0 NFV=     0
 NROrb=    126 NOA=    24 NOB=    24 NVA=   102 NVB=   102

 **** Warning!!: The largest alpha MO coefficient is  0.37556799D+02

 Symmetrizing basis deriv contribution to polar:
 IMax=3 JMax=2 DiffMx= 0.00D+00
 G2DrvN: will do    13 centers at a time, making    1 passes.
 Calling FoFCou, ICntrl=  3107 FMM=F I1Cent=   0 AccDes= 0.00D+00.
 End of G2Drv F.D. properties file   721 does not exist.
 End of G2Drv F.D. properties file   722 does not exist.
 End of G2Drv F.D. properties file   788 does not exist.
          IDoAtm=111111111111
          Differentiating once with respect to nuclear coordinates.
 Keep R1 ints in memory in canonical form, NReq=47193258.
          There are    39 degrees of freedom in the 1st order CPHF.  IDoFFX=6 NUNeed=     0.
     33 vectors produced by pass  0 Test12= 6.28D-15 2.56D-09 XBig12= 1.20D-01 1.28D-01.
 AX will form    33 AO Fock derivatives at one time.
     33 vectors produced by pass  1 Test12= 6.28D-15 2.56D-09 XBig12= 3.41D-02 6.29D-02.
     33 vectors produced by pass  2 Test12= 6.28D-15 2.56D-09 XBig12= 5.40D-04 3.82D-03.
     33 vectors produced by pass  3 Test12= 6.28D-15 2.56D-09 XBig12= 3.07D-06 2.21D-04.
     33 vectors produced by pass  4 Test12= 6.28D-15 2.56D-09 XBig12= 5.56D-09 1.17D-05.
     28 vectors produced by pass  5 Test12= 6.28D-15 2.56D-09 XBig12= 7.05D-12 4.17D-07.
      5 vectors produced by pass  6 Test12= 6.28D-15 2.56D-09 XBig12= 6.27D-15 1.06D-08.
 InvSVY:  IOpt=1 It=  1 EMax= 1.11D-15
 Solved reduced A of dimension   198 with    33 vectors.
 End of Minotr F.D. properties file   721 does not exist.
 End of Minotr F.D. properties file   722 does not exist.
 End of Minotr F.D. properties file   788 does not exist.
 Calling FoFJK, ICntrl=    100127 FMM=F ISym2X=0 I1Cent= 0 IOpClX= 0 NMat=1 NMatS=1 NMatT=0.
 -------------------------------------------------------------------
 Center     Atomic                   Forces (Hartrees/Bohr)
 Number     Number              X              Y              Z
 -------------------------------------------------------------------
      1        6          -0.004478717   -0.008699288    0.000265967
      2        6           0.006642924   -0.030961221    0.020823410
      3        6           0.035147776   -0.020705021   -0.004100620
      4        8           0.000091285    0.000370381   -0.000234785
      5        8           0.000484472    0.000638676    0.000069582
      6        8           0.014944440    0.023543296   -0.029439542
      7        1          -0.000309559   -0.000306818   -0.000254244
      8        1          -0.000047515   -0.000143377    0.000060299
      9        1           0.002059092   -0.000566979    0.001012999
     10        1           0.000281613    0.002361553    0.001126457
     11        1          -0.055796685    0.021195852    0.012552145
     12        1           0.000980873    0.013272947   -0.001881669
 -------------------------------------------------------------------
 Cartesian Forces:  Max     0.055796685 RMS     0.015609597
 IRC-IRC-IRC-IRC-IRC-IRC-IRC-IRC-IRC-IRC-IRC-IRC-IRC-IRC-IRC-IRC-IRC-IRC
 Pt  3 Step number   1 out of a maximum of 100
 Modified Bulirsch-Stoer Extrapolation Cycles:
    EPS =    0.000010000000000
      PEZero:  N= 2 I= 1 D=  8.19D-04 Err=  2.67D-05
      PEZero:  N= 3 I= 2 D=  8.19D-04 Err=  1.78D-05
      PEZero:  N= 3 I= 1 D=  1.64D-03 Err=  3.09D-08
 Maximum DWI energy   std dev =  0.000024462 at pt    19
 Maximum DWI gradient std dev =  0.002011573 at pt    34
 CORRECTOR INTEGRATION CONVERGENCE:
   Recorrection delta-x convergence threshold:    0.010000
   Delta-x Convergence Met
 Point Number:   3          Path Number:   1
   CHANGE IN THE REACTION COORDINATE =    0.15716
   NET REACTION COORDINATE UP TO THIS POINT =    0.47151
  # OF POINTS ALONG THE PATH =   3
  # OF STEPS =   1

 Calculating another point on the path.
 IRC-IRC-IRC-IRC-IRC-IRC-IRC-IRC-IRC-IRC-IRC-IRC-IRC-IRC-IRC-IRC-IRC-IRC
                          Input orientation:                          
 ---------------------------------------------------------------------
 Center     Atomic      Atomic             Coordinates (Angstroms)
 Number     Number       Type             X           Y           Z
 ---------------------------------------------------------------------
      1          6           0       -0.744706    1.003366    0.231498
      2          6           0        0.589730    0.375683    0.593036
      3          6           0        1.702585    0.317593   -0.316595
      4          8           0       -1.554594    0.181070   -0.618363
      5          8           0       -2.066975   -0.912883    0.186336
      6          8           0        2.416986   -0.692737   -0.077779
      7          1           0       -1.371111   -1.586934    0.065309
      8          1           0       -1.317053    1.262112    1.128160
      9          1           0       -0.621213    1.911214   -0.376045
     10          1           0        1.962244    0.992890   -1.142444
     11          1           0        1.099634   -0.817919    0.769528
     12          1           0        0.938000    0.645657    1.598547
 ---------------------------------------------------------------------
                    Distance matrix (angstroms):
                    1          2          3          4          5
     1  C    0.000000
     2  C    1.518359   0.000000
     3  C    2.599985   1.438488   0.000000
     4  O    1.433302   2.470524   3.273976   0.000000
     5  O    2.328615   2.980586   3.997073   1.451484   0.000000
     6  O    3.601210   2.220446   1.260225   4.102343   4.497125
     7  H    2.670142   2.824051   3.636025   1.904445   0.976330
     8  H    1.094776   2.169778   3.478167   2.067709   2.485965
     9  H    1.099339   2.182511   2.818368   1.980737   3.222115
    10  H    3.035688   2.297092   1.097942   3.647172   4.651047
    11  H    2.647291   1.309900   1.683033   3.157396   3.221265
    12  H    2.197334   1.097830   2.088058   3.368019   3.667869
                    6          7          8          9         10
     6  O    0.000000
     7  H    3.894835   0.000000
     8  H    4.383922   3.041323   0.000000
     9  H    4.012502   3.604744   1.779932   0.000000
    10  H    2.044906   4.384680   3.997739   2.846917   0.000000
    11  H    1.571311   2.681770   3.208664   3.423714   2.771059
    12  H    2.605527   3.559111   2.384648   2.816344   2.946639
                   11         12
    11  H    0.000000
    12  H    1.689809   0.000000
 Symmetry turned off by external request.
 Stoichiometry    C3H6O3
 Framework group  C1[X(C3H6O3)]
 Deg. of freedom    30
 Full point group                 C1      NOp   1
 Rotational constants (GHZ):           7.7539514           1.8390338           1.6706721
 Standard basis: 6-31+G(d) (6D, 7F)
   126 basis functions,   216 primitive gaussians,   126 cartesian basis functions
    24 alpha electrons       24 beta electrons
       nuclear repulsion energy       236.2612192233 Hartrees.
 NAtoms=   12 NActive=   12 NUniq=   12 SFac= 1.00D+00 NAtFMM=   60 NAOKFM=F Big=F
 Integral buffers will be    131072 words long.
 Raffenetti 2 integral format.
 Two-electron integral symmetry is turned off.
 One-electron integrals computed using PRISM.
 NBasis=   126 RedAO= T EigKep=  1.10D-04  NBF=   126
 NBsUse=   126 1.00D-06 EigRej= -1.00D+00 NBFU=   126
 Initial guess from the checkpoint file:  "/scratch/bell/zhao922/YARP/paper-example/KHP-network/pp_0/IRC-folder/Gau-71314.chk"
 B after Tr=    -0.001303    0.000871    0.000316
         Rot=    1.000000    0.000330    0.000118    0.000020 Ang=   0.04 deg.
 ExpMin= 4.38D-02 ExpMax= 5.48D+03 ExpMxC= 8.25D+02 IAcc=3 IRadAn=         5 AccDes= 0.00D+00
 Harris functional with IExCor=  402 and IRadAn=       5 diagonalized for initial guess.
 HarFok:  IExCor=  402 AccDes= 0.00D+00 IRadAn=         5 IDoV= 1 UseB2=F ITyADJ=14
 ICtDFT=  3500011 ScaDFX=  1.000000  1.000000  1.000000  1.000000
 FoFCou: FMM=F IPFlag=           0 FMFlag=      100000 FMFlg1=           0
         NFxFlg=           0 DoJE=T BraDBF=F KetDBF=T FulRan=T
         wScrn=  0.000000 ICntrl=       500 IOpCl=  0 I1Cent=   200000004 NGrid=           0
         NMat0=    1 NMatS0=      1 NMatT0=    0 NMatD0=    1 NMtDS0=    0 NMtDT0=    0
 Symmetry not used in FoFCou.
 Keep R1 ints in memory in canonical form, NReq=47237243.
 Requested convergence on RMS density matrix=1.00D-08 within 128 cycles.
 Requested convergence on MAX density matrix=1.00D-06.
 Requested convergence on             energy=1.00D-06.
 No special actions if energy rises.
 SCF Done:  E(RB3LYP) =  -343.415313249     A.U. after   13 cycles
            NFock= 13  Conv=0.27D-08     -V/T= 2.0091
 DoSCS=F DFT=T ScalE2(SS,OS)=  1.000000  1.000000
 Range of M.O.s used for correlation:     1   126
 NBasis=   126 NAE=    24 NBE=    24 NFC=     0 NFV=     0
 NROrb=    126 NOA=    24 NOB=    24 NVA=   102 NVB=   102

 **** Warning!!: The largest alpha MO coefficient is  0.37825202D+02

 Symmetrizing basis deriv contribution to polar:
 IMax=3 JMax=2 DiffMx= 0.00D+00
 G2DrvN: will do    13 centers at a time, making    1 passes.
 Calling FoFCou, ICntrl=  3107 FMM=F I1Cent=   0 AccDes= 0.00D+00.
 End of G2Drv F.D. properties file   721 does not exist.
 End of G2Drv F.D. properties file   722 does not exist.
 End of G2Drv F.D. properties file   788 does not exist.
          IDoAtm=111111111111
          Differentiating once with respect to nuclear coordinates.
 Keep R1 ints in memory in canonical form, NReq=47193258.
          There are    39 degrees of freedom in the 1st order CPHF.  IDoFFX=6 NUNeed=     0.
     33 vectors produced by pass  0 Test12= 6.28D-15 2.56D-09 XBig12= 1.19D-01 1.12D-01.
 AX will form    33 AO Fock derivatives at one time.
     33 vectors produced by pass  1 Test12= 6.28D-15 2.56D-09 XBig12= 3.52D-02 6.49D-02.
     33 vectors produced by pass  2 Test12= 6.28D-15 2.56D-09 XBig12= 4.96D-04 3.82D-03.
     33 vectors produced by pass  3 Test12= 6.28D-15 2.56D-09 XBig12= 3.13D-06 1.93D-04.
     33 vectors produced by pass  4 Test12= 6.28D-15 2.56D-09 XBig12= 6.30D-09 1.18D-05.
     28 vectors produced by pass  5 Test12= 6.28D-15 2.56D-09 XBig12= 8.03D-12 5.24D-07.
      5 vectors produced by pass  6 Test12= 6.28D-15 2.56D-09 XBig12= 7.47D-15 1.31D-08.
 InvSVY:  IOpt=1 It=  1 EMax= 2.66D-15
 Solved reduced A of dimension   198 with    33 vectors.
 End of Minotr F.D. properties file   721 does not exist.
 End of Minotr F.D. properties file   722 does not exist.
 End of Minotr F.D. properties file   788 does not exist.
 Calling FoFJK, ICntrl=    100127 FMM=F ISym2X=0 I1Cent= 0 IOpClX= 0 NMat=1 NMatS=1 NMatT=0.
 -------------------------------------------------------------------
 Center     Atomic                   Forces (Hartrees/Bohr)
 Number     Number              X              Y              Z
 -------------------------------------------------------------------
      1        6          -0.004992360   -0.010365471    0.000371681
      2        6           0.007296997   -0.035095418    0.025151561
      3        6           0.040642413   -0.023808504   -0.004805175
      4        8           0.000233266    0.000417348   -0.000283605
      5        8           0.000607905    0.000736967    0.000178497
      6        8           0.017097172    0.026373386   -0.033044809
      7        1          -0.000485249   -0.000442354   -0.000411957
      8        1          -0.000114314   -0.000175437    0.000047541
      9        1           0.002476680   -0.000702076    0.001196665
     10        1          -0.000012985    0.002646742    0.001121233
     11        1          -0.063784687    0.024917245    0.012803216
     12        1           0.001035163    0.015497572   -0.002324847
 -------------------------------------------------------------------
 Cartesian Forces:  Max     0.063784687 RMS     0.017865049
 IRC-IRC-IRC-IRC-IRC-IRC-IRC-IRC-IRC-IRC-IRC-IRC-IRC-IRC-IRC-IRC-IRC-IRC
 Pt  4 Step number   1 out of a maximum of 100
 Modified Bulirsch-Stoer Extrapolation Cycles:
    EPS =    0.000010000000000
      PEZero:  N= 2 I= 1 D=  8.19D-04 Err=  2.38D-05
      PEZero:  N= 3 I= 2 D=  8.19D-04 Err=  1.58D-05
      PEZero:  N= 3 I= 1 D=  1.64D-03 Err=  3.34D-08
 Maximum DWI energy   std dev =  0.000024679 at pt    67
 Maximum DWI gradient std dev =  0.001254491 at pt    19
 CORRECTOR INTEGRATION CONVERGENCE:
   Recorrection delta-x convergence threshold:    0.010000
   Delta-x Convergence Met
 Point Number:   4          Path Number:   1
   CHANGE IN THE REACTION COORDINATE =    0.15717
   NET REACTION COORDINATE UP TO THIS POINT =    0.62868
  # OF POINTS ALONG THE PATH =   4
  # OF STEPS =   1

 Calculating another point on the path.
 IRC-IRC-IRC-IRC-IRC-IRC-IRC-IRC-IRC-IRC-IRC-IRC-IRC-IRC-IRC-IRC-IRC-IRC
                          Input orientation:                          
 ---------------------------------------------------------------------
 Center     Atomic      Atomic             Coordinates (Angstroms)
 Number     Number       Type             X           Y           Z
 ---------------------------------------------------------------------
      1          6           0       -0.745161    1.002382    0.231537
      2          6           0        0.590371    0.372459    0.595440
      3          6           0        1.706392    0.315360   -0.317042
      4          8           0       -1.554573    0.181098   -0.618384
      5          8           0       -2.066931   -0.912831    0.186352
      6          8           0        2.418185   -0.690912   -0.080074
      7          1           0       -1.371728   -1.587483    0.064776
      8          1           0       -1.317218    1.261910    1.128196
      9          1           0       -0.618408    1.910409   -0.374699
     10          1           0        1.962060    0.995802   -1.141271
     11          1           0        1.029062   -0.790236    0.782923
     12          1           0        0.939129    0.663066    1.595859
 ---------------------------------------------------------------------
                    Distance matrix (angstroms):
                    1          2          3          4          5
     1  C    0.000000
     2  C    1.520814   0.000000
     3  C    2.604429   1.442701   0.000000
     4  O    1.432487   2.471997   3.277609   0.000000
     5  O    2.327479   2.980030   3.999978   1.451479   0.000000
     6  O    3.601542   2.219906   1.255144   4.102802   4.498500
     7  H    2.669794   2.823617   3.638876   1.904736   0.976342
     8  H    1.094807   2.171140   3.482368   2.067615   2.485687
     9  H    1.099137   2.183485   2.819965   1.981490   3.222372
    10  H    3.035406   2.299185   1.098964   3.647446   4.651691
    11  H    2.581739   1.256766   1.700306   3.095532   3.155329
    12  H    2.193933   1.098600   2.090163   3.369526   3.675127
                    6          7          8          9         10
     6  O    0.000000
     7  H    3.897212   0.000000
     8  H    4.384823   3.041854   0.000000
     9  H    4.009311   3.604980   1.779769   0.000000
    10  H    2.044308   4.386577   3.996869   2.843054   0.000000
    11  H    1.638381   2.629664   3.136168   3.368640   2.786206
    12  H    2.613353   3.570608   2.380845   2.804440   2.940915
                   11         12
    11  H    0.000000
    12  H    1.667645   0.000000
 Symmetry turned off by external request.
 Stoichiometry    C3H6O3
 Framework group  C1[X(C3H6O3)]
 Deg. of freedom    30
 Full point group                 C1      NOp   1
 Rotational constants (GHZ):           7.7630029           1.8379550           1.6707691
 Standard basis: 6-31+G(d) (6D, 7F)
   126 basis functions,   216 primitive gaussians,   126 cartesian basis functions
    24 alpha electrons       24 beta electrons
       nuclear repulsion energy       236.3236373788 Hartrees.
 NAtoms=   12 NActive=   12 NUniq=   12 SFac= 1.00D+00 NAtFMM=   60 NAOKFM=F Big=F
 Integral buffers will be    131072 words long.
 Raffenetti 2 integral format.
 Two-electron integral symmetry is turned off.
 One-electron integrals computed using PRISM.
 NBasis=   126 RedAO= T EigKep=  1.11D-04  NBF=   126
 NBsUse=   126 1.00D-06 EigRej= -1.00D+00 NBFU=   126
 Initial guess from the checkpoint file:  "/scratch/bell/zhao922/YARP/paper-example/KHP-network/pp_0/IRC-folder/Gau-71314.chk"
 B after Tr=    -0.001313    0.000882    0.000276
         Rot=    1.000000    0.000329    0.000115    0.000018 Ang=   0.04 deg.
 ExpMin= 4.38D-02 ExpMax= 5.48D+03 ExpMxC= 8.25D+02 IAcc=3 IRadAn=         5 AccDes= 0.00D+00
 Harris functional with IExCor=  402 and IRadAn=       5 diagonalized for initial guess.
 HarFok:  IExCor=  402 AccDes= 0.00D+00 IRadAn=         5 IDoV= 1 UseB2=F ITyADJ=14
 ICtDFT=  3500011 ScaDFX=  1.000000  1.000000  1.000000  1.000000
 FoFCou: FMM=F IPFlag=           0 FMFlag=      100000 FMFlg1=           0
         NFxFlg=           0 DoJE=T BraDBF=F KetDBF=T FulRan=T
         wScrn=  0.000000 ICntrl=       500 IOpCl=  0 I1Cent=   200000004 NGrid=           0
         NMat0=    1 NMatS0=      1 NMatT0=    0 NMatD0=    1 NMtDS0=    0 NMtDT0=    0
 Symmetry not used in FoFCou.
 Keep R1 ints in memory in canonical form, NReq=47237243.
 Requested convergence on RMS density matrix=1.00D-08 within 128 cycles.
 Requested convergence on MAX density matrix=1.00D-06.
 Requested convergence on             energy=1.00D-06.
 No special actions if energy rises.
 SCF Done:  E(RB3LYP) =  -343.427326433     A.U. after   13 cycles
            NFock= 13  Conv=0.19D-08     -V/T= 2.0090
 DoSCS=F DFT=T ScalE2(SS,OS)=  1.000000  1.000000
 Range of M.O.s used for correlation:     1   126
 NBasis=   126 NAE=    24 NBE=    24 NFC=     0 NFV=     0
 NROrb=    126 NOA=    24 NOB=    24 NVA=   102 NVB=   102

 **** Warning!!: The largest alpha MO coefficient is  0.37937517D+02

 Symmetrizing basis deriv contribution to polar:
 IMax=3 JMax=2 DiffMx= 0.00D+00
 G2DrvN: will do    13 centers at a time, making    1 passes.
 Calling FoFCou, ICntrl=  3107 FMM=F I1Cent=   0 AccDes= 0.00D+00.
 End of G2Drv F.D. properties file   721 does not exist.
 End of G2Drv F.D. properties file   722 does not exist.
 End of G2Drv F.D. properties file   788 does not exist.
          IDoAtm=111111111111
          Differentiating once with respect to nuclear coordinates.
 Keep R1 ints in memory in canonical form, NReq=47193258.
          There are    39 degrees of freedom in the 1st order CPHF.  IDoFFX=6 NUNeed=     0.
     33 vectors produced by pass  0 Test12= 6.28D-15 2.56D-09 XBig12= 1.19D-01 1.01D-01.
 AX will form    33 AO Fock derivatives at one time.
     33 vectors produced by pass  1 Test12= 6.28D-15 2.56D-09 XBig12= 3.42D-02 6.51D-02.
     33 vectors produced by pass  2 Test12= 6.28D-15 2.56D-09 XBig12= 4.33D-04 3.84D-03.
     33 vectors produced by pass  3 Test12= 6.28D-15 2.56D-09 XBig12= 2.86D-06 2.07D-04.
     33 vectors produced by pass  4 Test12= 6.28D-15 2.56D-09 XBig12= 6.43D-09 1.10D-05.
     28 vectors produced by pass  5 Test12= 6.28D-15 2.56D-09 XBig12= 7.89D-12 5.20D-07.
      5 vectors produced by pass  6 Test12= 6.28D-15 2.56D-09 XBig12= 7.24D-15 1.58D-08.
 InvSVY:  IOpt=1 It=  1 EMax= 1.33D-15
 Solved reduced A of dimension   198 with    33 vectors.
 End of Minotr F.D. properties file   721 does not exist.
 End of Minotr F.D. properties file   722 does not exist.
 End of Minotr F.D. properties file   788 does not exist.
 Calling FoFJK, ICntrl=    100127 FMM=F ISym2X=0 I1Cent= 0 IOpClX= 0 NMat=1 NMatS=1 NMatT=0.
 -------------------------------------------------------------------
 Center     Atomic                   Forces (Hartrees/Bohr)
 Number     Number              X              Y              Z
 -------------------------------------------------------------------
      1        6          -0.004919992   -0.011229796    0.000505392
      2        6           0.006223491   -0.034799246    0.027686218
      3        6           0.043031867   -0.025436692   -0.004922852
      4        8           0.000402649    0.000399817   -0.000339535
      5        8           0.000691179    0.000773637    0.000303524
      6        8           0.018156304    0.027140425   -0.034342331
      7        1          -0.000670558   -0.000576421   -0.000582418
      8        1          -0.000203200   -0.000198540    0.000015654
      9        1           0.002683286   -0.000780780    0.001286565
     10        1          -0.000319475    0.002741182    0.001074174
     11        1          -0.066135537    0.025293293    0.012057742
     12        1           0.001059985    0.016673123   -0.002742133
 -------------------------------------------------------------------
 Cartesian Forces:  Max     0.066135537 RMS     0.018560857
 IRC-IRC-IRC-IRC-IRC-IRC-IRC-IRC-IRC-IRC-IRC-IRC-IRC-IRC-IRC-IRC-IRC-IRC
 Pt  5 Step number   1 out of a maximum of 100
 Modified Bulirsch-Stoer Extrapolation Cycles:
    EPS =    0.000010000000000
      PEZero:  N= 2 I= 1 D=  8.19D-04 Err=  1.76D-05
      PEZero:  N= 3 I= 2 D=  8.19D-04 Err=  1.17D-05
      PEZero:  N= 3 I= 1 D=  1.64D-03 Err=  2.77D-08
 Maximum DWI energy   std dev =  0.000023935 at pt    67
 Maximum DWI gradient std dev =  0.002288540 at pt    18
 CORRECTOR INTEGRATION CONVERGENCE:
   Recorrection delta-x convergence threshold:    0.010000
   Delta-x Convergence Met
 Point Number:   5          Path Number:   1
   CHANGE IN THE REACTION COORDINATE =    0.15717
   NET REACTION COORDINATE UP TO THIS POINT =    0.78585
  # OF POINTS ALONG THE PATH =   5
  # OF STEPS =   1

 Calculating another point on the path.
 IRC-IRC-IRC-IRC-IRC-IRC-IRC-IRC-IRC-IRC-IRC-IRC-IRC-IRC-IRC-IRC-IRC-IRC
                          Input orientation:                          
 ---------------------------------------------------------------------
 Center     Atomic      Atomic             Coordinates (Angstroms)
 Number     Number       Type             X           Y           Z
 ---------------------------------------------------------------------
      1          6           0       -0.745590    1.001349    0.231590
      2          6           0        0.590835    0.369442    0.598011
      3          6           0        1.710316    0.313013   -0.317474
      4          8           0       -1.554539    0.181123   -0.618409
      5          8           0       -2.066883   -0.912778    0.186377
      6          8           0        2.419440   -0.689079   -0.082415
      7          1           0       -1.372552   -1.588179    0.064050
      8          1           0       -1.317493    1.261687    1.128186
      9          1           0       -0.615476    1.909548   -0.373295
     10          1           0        1.961565    0.998758   -1.140129
     11          1           0        0.958178   -0.763873    0.795332
     12          1           0        0.940290    0.681371    1.592703
 ---------------------------------------------------------------------
                    Distance matrix (angstroms):
                    1          2          3          4          5
     1  C    0.000000
     2  C    1.523024   0.000000
     3  C    2.608975   1.447251   0.000000
     4  O    1.431666   2.473413   3.281347   0.000000
     5  O    2.326315   2.979428   4.002957   1.451481   0.000000
     6  O    3.601883   2.219739   1.249919   4.103297   4.499932
     7  H    2.669608   2.823523   3.642001   1.905072   0.976332
     8  H    1.094867   2.172303   3.486767   2.067463   2.485334
     9  H    1.098927   2.184158   2.821586   1.982265   3.222630
    10  H    3.034849   2.301319   1.100061   3.647425   4.652094
    11  H    2.517268   1.207593   1.721550   3.034045   3.089335
    12  H    2.190252   1.099468   2.092224   3.370969   3.682682
                    6          7          8          9         10
     6  O    0.000000
     7  H    3.899877   0.000000
     8  H    4.385853   3.042557   0.000000
     9  H    4.006019   3.605348   1.779606   0.000000
    10  H    2.043820   4.388465   3.995824   2.838787   0.000000
    11  H    1.706260   2.578092   3.064696   3.315005   2.803509
    12  H    2.621457   3.582859   2.376999   2.791769   2.934639
                   11         12
    11  H    0.000000
    12  H    1.650712   0.000000
 Symmetry turned off by external request.
 Stoichiometry    C3H6O3
 Framework group  C1[X(C3H6O3)]
 Deg. of freedom    30
 Full point group                 C1      NOp   1
 Rotational constants (GHZ):           7.7713977           1.8367805           1.6707500
 Standard basis: 6-31+G(d) (6D, 7F)
   126 basis functions,   216 primitive gaussians,   126 cartesian basis functions
    24 alpha electrons       24 beta electrons
       nuclear repulsion energy       236.3922458640 Hartrees.
 NAtoms=   12 NActive=   12 NUniq=   12 SFac= 1.00D+00 NAtFMM=   60 NAOKFM=F Big=F
 Integral buffers will be    131072 words long.
 Raffenetti 2 integral format.
 Two-electron integral symmetry is turned off.
 One-electron integrals computed using PRISM.
 NBasis=   126 RedAO= T EigKep=  1.11D-04  NBF=   126
 NBsUse=   126 1.00D-06 EigRej= -1.00D+00 NBFU=   126
 Initial guess from the checkpoint file:  "/scratch/bell/zhao922/YARP/paper-example/KHP-network/pp_0/IRC-folder/Gau-71314.chk"
 B after Tr=    -0.001328    0.000870    0.000244
         Rot=    1.000000    0.000327    0.000113    0.000019 Ang=   0.04 deg.
 ExpMin= 4.38D-02 ExpMax= 5.48D+03 ExpMxC= 8.25D+02 IAcc=3 IRadAn=         5 AccDes= 0.00D+00
 Harris functional with IExCor=  402 and IRadAn=       5 diagonalized for initial guess.
 HarFok:  IExCor=  402 AccDes= 0.00D+00 IRadAn=         5 IDoV= 1 UseB2=F ITyADJ=14
 ICtDFT=  3500011 ScaDFX=  1.000000  1.000000  1.000000  1.000000
 FoFCou: FMM=F IPFlag=           0 FMFlag=      100000 FMFlg1=           0
         NFxFlg=           0 DoJE=T BraDBF=F KetDBF=T FulRan=T
         wScrn=  0.000000 ICntrl=       500 IOpCl=  0 I1Cent=   200000004 NGrid=           0
         NMat0=    1 NMatS0=      1 NMatT0=    0 NMatD0=    1 NMtDS0=    0 NMtDT0=    0
 Symmetry not used in FoFCou.
 Keep R1 ints in memory in canonical form, NReq=47237243.
 Requested convergence on RMS density matrix=1.00D-08 within 128 cycles.
 Requested convergence on MAX density matrix=1.00D-06.
 Requested convergence on             energy=1.00D-06.
 No special actions if energy rises.
 SCF Done:  E(RB3LYP) =  -343.439249182     A.U. after   12 cycles
            NFock= 12  Conv=0.81D-08     -V/T= 2.0090
 DoSCS=F DFT=T ScalE2(SS,OS)=  1.000000  1.000000
 Range of M.O.s used for correlation:     1   126
 NBasis=   126 NAE=    24 NBE=    24 NFC=     0 NFV=     0
 NROrb=    126 NOA=    24 NOB=    24 NVA=   102 NVB=   102

 **** Warning!!: The largest alpha MO coefficient is  0.37822478D+02

 Symmetrizing basis deriv contribution to polar:
 IMax=3 JMax=2 DiffMx= 0.00D+00
 G2DrvN: will do    13 centers at a time, making    1 passes.
 Calling FoFCou, ICntrl=  3107 FMM=F I1Cent=   0 AccDes= 0.00D+00.
 End of G2Drv F.D. properties file   721 does not exist.
 End of G2Drv F.D. properties file   722 does not exist.
 End of G2Drv F.D. properties file   788 does not exist.
          IDoAtm=111111111111
          Differentiating once with respect to nuclear coordinates.
 Keep R1 ints in memory in canonical form, NReq=47193258.
          There are    39 degrees of freedom in the 1st order CPHF.  IDoFFX=6 NUNeed=     0.
     33 vectors produced by pass  0 Test12= 6.28D-15 2.56D-09 XBig12= 1.20D-01 9.68D-02.
 AX will form    33 AO Fock derivatives at one time.
     33 vectors produced by pass  1 Test12= 6.28D-15 2.56D-09 XBig12= 3.20D-02 6.39D-02.
     33 vectors produced by pass  2 Test12= 6.28D-15 2.56D-09 XBig12= 3.70D-04 3.90D-03.
     33 vectors produced by pass  3 Test12= 6.28D-15 2.56D-09 XBig12= 2.41D-06 2.11D-04.
     33 vectors produced by pass  4 Test12= 6.28D-15 2.56D-09 XBig12= 5.93D-09 1.15D-05.
     28 vectors produced by pass  5 Test12= 6.28D-15 2.56D-09 XBig12= 6.83D-12 4.42D-07.
      5 vectors produced by pass  6 Test12= 6.28D-15 2.56D-09 XBig12= 6.26D-15 1.53D-08.
 InvSVY:  IOpt=1 It=  1 EMax= 1.78D-15
 Solved reduced A of dimension   198 with    33 vectors.
 End of Minotr F.D. properties file   721 does not exist.
 End of Minotr F.D. properties file   722 does not exist.
 End of Minotr F.D. properties file   788 does not exist.
 Calling FoFJK, ICntrl=    100127 FMM=F ISym2X=0 I1Cent= 0 IOpClX= 0 NMat=1 NMatS=1 NMatT=0.
 -------------------------------------------------------------------
 Center     Atomic                   Forces (Hartrees/Bohr)
 Number     Number              X              Y              Z
 -------------------------------------------------------------------
      1        6          -0.004359457   -0.011249604    0.000656399
      2        6           0.003413144   -0.029862086    0.028341333
      3        6           0.042599672   -0.025940819   -0.004427005
      4        8           0.000600704    0.000309980   -0.000411415
      5        8           0.000729340    0.000755179    0.000435422
      6        8           0.018593289    0.026217434   -0.033991719
      7        1          -0.000854589   -0.000704102   -0.000758927
      8        1          -0.000310591   -0.000213764   -0.000034904
      9        1           0.002671713   -0.000792623    0.001285965
     10        1          -0.000573806    0.002690789    0.001057162
     11        1          -0.063578748    0.021900284    0.010995991
     12        1           0.001069330    0.016889334   -0.003148302
 -------------------------------------------------------------------
 Cartesian Forces:  Max     0.063578748 RMS     0.017880342
 IRC-IRC-IRC-IRC-IRC-IRC-IRC-IRC-IRC-IRC-IRC-IRC-IRC-IRC-IRC-IRC-IRC-IRC
 Pt  6 Step number   1 out of a maximum of 100
 Modified Bulirsch-Stoer Extrapolation Cycles:
    EPS =    0.000010000000000
      PEZero:  N= 2 I= 1 D=  8.19D-04 Err=  3.23D-05
      PEZero:  N= 3 I= 2 D=  8.19D-04 Err=  2.15D-05
      PEZero:  N= 3 I= 1 D=  1.64D-03 Err=  1.65D-08
 Maximum DWI energy   std dev =  0.000021085 at pt    45
 Maximum DWI gradient std dev =  0.003261641 at pt    26
 CORRECTOR INTEGRATION CONVERGENCE:
   Recorrection delta-x convergence threshold:    0.010000
   Delta-x Convergence Met
 Point Number:   6          Path Number:   1
   CHANGE IN THE REACTION COORDINATE =    0.15716
   NET REACTION COORDINATE UP TO THIS POINT =    0.94301
  # OF POINTS ALONG THE PATH =   6
  # OF STEPS =   1

 Calculating another point on the path.
 IRC-IRC-IRC-IRC-IRC-IRC-IRC-IRC-IRC-IRC-IRC-IRC-IRC-IRC-IRC-IRC-IRC-IRC
                          Input orientation:                          
 ---------------------------------------------------------------------
 Center     Atomic      Atomic             Coordinates (Angstroms)
 Number     Number       Type             X           Y           Z
 ---------------------------------------------------------------------
      1          6           0       -0.745981    1.000268    0.231662
      2          6           0        0.590987    0.366854    0.600780
      3          6           0        1.714408    0.310455   -0.317863
      4          8           0       -1.554486    0.181140   -0.618443
      5          8           0       -2.066829   -0.912724    0.186414
      6          8           0        2.420828   -0.687209   -0.084890
      7          1           0       -1.373661   -1.589081    0.063049
      8          1           0       -1.317928    1.261430    1.128105
      9          1           0       -0.612430    1.908642   -0.371820
     10          1           0        1.960776    1.001845   -1.138864
     11          1           0        0.886612   -0.741180    0.807570
     12          1           0        0.941556    0.700990    1.588815
 ---------------------------------------------------------------------
                    Distance matrix (angstroms):
                    1          2          3          4          5
     1  C    0.000000
     2  C    1.524778   0.000000
     3  C    2.613682   1.452294   0.000000
     4  O    1.430848   2.474681   3.285230   0.000000
     5  O    2.325129   2.978759   4.006022   1.451492   0.000000
     6  O    3.602286   2.220249   1.244443   4.103879   4.501502
     7  H    2.669670   2.823947   3.645477   1.905468   0.976299
     8  H    1.094960   2.173084   3.491452   2.067224   2.484870
     9  H    1.098713   2.184325   2.823347   1.983067   3.222888
    10  H    3.033954   2.303453   1.101254   3.647116   4.652261
    11  H    2.455539   1.165287   1.748651   2.973743   3.022925
    12  H    2.186141   1.100345   2.094095   3.372307   3.690688
                    6          7          8          9         10
     6  O    0.000000
     7  H    3.903000   0.000000
     8  H    4.387122   3.043495   0.000000
     9  H    4.002677   3.605919   1.779435   0.000000
    10  H    2.043382   4.390440   3.994550   2.834083   0.000000
    11  H    1.775729   2.526279   2.995528   3.264912   2.824990
    12  H    2.629948   3.596195   2.373102   2.778018   2.927379
                   11         12
    11  H    0.000000
    12  H    1.641103   0.000000
 Symmetry turned off by external request.
 Stoichiometry    C3H6O3
 Framework group  C1[X(C3H6O3)]
 Deg. of freedom    30
 Full point group                 C1      NOp   1
 Rotational constants (GHZ):           7.7784667           1.8354709           1.6705561
 Standard basis: 6-31+G(d) (6D, 7F)
   126 basis functions,   216 primitive gaussians,   126 cartesian basis functions
    24 alpha electrons       24 beta electrons
       nuclear repulsion energy       236.4548359797 Hartrees.
 NAtoms=   12 NActive=   12 NUniq=   12 SFac= 1.00D+00 NAtFMM=   60 NAOKFM=F Big=F
 Integral buffers will be    131072 words long.
 Raffenetti 2 integral format.
 Two-electron integral symmetry is turned off.
 One-electron integrals computed using PRISM.
 NBasis=   126 RedAO= T EigKep=  1.11D-04  NBF=   126
 NBsUse=   126 1.00D-06 EigRej= -1.00D+00 NBFU=   126
 Initial guess from the checkpoint file:  "/scratch/bell/zhao922/YARP/paper-example/KHP-network/pp_0/IRC-folder/Gau-71314.chk"
 B after Tr=    -0.001352    0.000821    0.000224
         Rot=    1.000000    0.000320    0.000113    0.000023 Ang=   0.04 deg.
 ExpMin= 4.38D-02 ExpMax= 5.48D+03 ExpMxC= 8.25D+02 IAcc=3 IRadAn=         5 AccDes= 0.00D+00
 Harris functional with IExCor=  402 and IRadAn=       5 diagonalized for initial guess.
 HarFok:  IExCor=  402 AccDes= 0.00D+00 IRadAn=         5 IDoV= 1 UseB2=F ITyADJ=14
 ICtDFT=  3500011 ScaDFX=  1.000000  1.000000  1.000000  1.000000
 FoFCou: FMM=F IPFlag=           0 FMFlag=      100000 FMFlg1=           0
         NFxFlg=           0 DoJE=T BraDBF=F KetDBF=T FulRan=T
         wScrn=  0.000000 ICntrl=       500 IOpCl=  0 I1Cent=   200000004 NGrid=           0
         NMat0=    1 NMatS0=      1 NMatT0=    0 NMatD0=    1 NMtDS0=    0 NMtDT0=    0
 Symmetry not used in FoFCou.
 Keep R1 ints in memory in canonical form, NReq=47237243.
 Requested convergence on RMS density matrix=1.00D-08 within 128 cycles.
 Requested convergence on MAX density matrix=1.00D-06.
 Requested convergence on             energy=1.00D-06.
 No special actions if energy rises.
 SCF Done:  E(RB3LYP) =  -343.450241680     A.U. after   12 cycles
            NFock= 12  Conv=0.56D-08     -V/T= 2.0089
 DoSCS=F DFT=T ScalE2(SS,OS)=  1.000000  1.000000
 Range of M.O.s used for correlation:     1   126
 NBasis=   126 NAE=    24 NBE=    24 NFC=     0 NFV=     0
 NROrb=    126 NOA=    24 NOB=    24 NVA=   102 NVB=   102

 **** Warning!!: The largest alpha MO coefficient is  0.37319034D+02

 Symmetrizing basis deriv contribution to polar:
 IMax=3 JMax=2 DiffMx= 0.00D+00
[...]
  10                    0.65259  -1.23821   2.52087  -1.09643   0.77740
  11                    0.66677  -1.23416   2.49869  -1.11363   0.76887
  12                    0.68086  -1.23044   2.47558  -1.13040   0.76043
  13                    0.69467  -1.22706   2.45166  -1.14664   0.75203
  14                    0.70806  -1.22405   2.42695  -1.16234   0.74359
  15                    0.72097  -1.22143   2.40139  -1.17751   0.73503
  16                    0.73333  -1.21920   2.37489  -1.19217   0.72620
  17                    0.74512  -1.21743   2.34729  -1.20630   0.71700
  18                    0.75630  -1.21619   2.31843  -1.21984   0.70732
  19                    0.76686  -1.21556   2.28819  -1.23263   0.69709
  20                    0.77677  -1.21562   2.25658  -1.24437   0.68635
  21                    0.78610  -1.21641   2.22379  -1.25466   0.67528
  22                    0.79503  -1.21777   2.19028  -1.26296   0.66425
  23                    0.80389  -1.21938   2.15674  -1.26875   0.65376
  24                    0.81309  -1.22071   2.12397  -1.27160   0.64435
  25                    0.82294  -1.22130   2.09250  -1.27132   0.63640
  26                    0.83362  -1.22081   2.06244  -1.26792   0.63000
  27                    0.84510  -1.21915   2.03346  -1.26150   0.62500
  28                    0.85728  -1.21637   2.00498  -1.25209   0.62111
  29                    0.87000  -1.21258   1.97632  -1.23957   0.61800
  30                    0.88310  -1.20791   1.94680  -1.22371   0.61533
  31                    0.89636  -1.20248   1.91580  -1.20412   0.61275
  32                    0.90952  -1.19641   1.88275  -1.18031   0.60993
  33                    0.92227  -1.18980   1.84719  -1.15183   0.60657
  34                    0.93427  -1.18281   1.80857  -1.11849   0.60267
  35                    0.94514  -1.17568   1.76565  -1.08116   0.59941
  36                    0.95452  -1.16885   1.71551  -1.04320   0.60068
  37                    0.96207  -1.16300   1.65608  -1.01011   0.61112
  38                    0.96792  -1.15840   1.59042  -0.98360   0.62962
  39                    0.97264  -1.15476   1.52203  -0.96106   0.65191
  40                    0.97669  -1.15179   1.45241  -0.93985   0.67505
  41                    0.98029  -1.14935   1.38208  -0.91810   0.69721
  42                    0.98372  -1.14713   1.31156  -0.89556   0.71839
  43                    0.98690  -1.14531   1.24088  -0.87122   0.73744
  44                    0.98994  -1.14376   1.17022  -0.84519   0.75440
  45                    0.99289  -1.14244   1.09964  -0.81791   0.76945
  46                    0.99581  -1.14126   1.02904  -0.79036   0.78292
  47                    0.99877  -1.14012   0.95813  -0.76413   0.79540
  48                    1.00186  -1.13885   0.88656  -0.74155   0.80769
  49                    1.00515  -1.13725   0.81432  -0.72503   0.82067
  50                    1.00866  -1.13505   0.74209  -0.71522   0.83489
  51                    1.01241  -1.13194   0.67087  -0.70970   0.85045
  52                    1.01636  -1.12756   0.60191  -0.70466   0.86744
  53                    1.02050  -1.12144   0.53753  -0.69742   0.88647
  54                    1.02460  -1.11321   0.48202  -0.68742   0.90840
  55                    1.02816  -1.10314   0.44001  -0.67592   0.93328
  56                    1.03058  -1.09235   0.41198  -0.66455   0.95997
  57                    1.03159  -1.08210   0.39407  -0.65387   0.98734
  58                    1.03119  -1.07317   0.38211  -0.64372   1.01498
  59                    1.02947  -1.06595   0.37354  -0.63382   1.04281
  60                    1.02660  -1.06053   0.36713  -0.62408   1.07068
  61                    1.02274  -1.05688   0.36234  -0.61449   1.09832
  62                    1.01803  -1.05490   0.35889  -0.60516   1.12533
  63                    1.01260  -1.05446   0.35654  -0.59618   1.15125
  64                    1.00657  -1.05547   0.35503  -0.58769   1.17557
  65                    1.00003  -1.05783   0.35410  -0.57977   1.19782
  66                    0.99310  -1.06141   0.35356  -0.57241   1.21768
  67                    0.98595  -1.06600   0.35336  -0.56547   1.23513
  68                    0.97879  -1.07130   0.35362  -0.55861   1.25056
  69                    0.97186  -1.07689   0.35458  -0.55133   1.26470
  70                    0.96549  -1.08232   0.35653  -0.54306   1.27844
  71                    0.96014  -1.08699   0.35958  -0.53332   1.29241
  72                    0.95654  -1.09012   0.36358  -0.52205   1.30662
  73                    0.95542  -1.09098   0.36794  -0.50984   1.32038
  74                    0.95698  -1.08932   0.37193  -0.49764   1.33286
  75                    0.96077  -1.08550   0.37520  -0.48609   1.34377
  76                    0.96607  -1.08010   0.37776  -0.47528   1.35337
  77                    0.97232  -1.07361   0.37977  -0.46509   1.36203
  78                    0.97909  -1.06639   0.38139  -0.45534   1.37007
  79                    0.98612  -1.05870   0.38274  -0.44589   1.37769
  80                    0.99321  -1.05070   0.38391  -0.43666   1.38503
  81                    1.00023  -1.04251   0.38493  -0.42759   1.39217
                          X12       Y12       Z12
   1                    0.52064  -0.20846   1.53626
   2                    0.52337  -0.19305   1.54405
   3                    0.52497  -0.17961   1.55084
   4                    0.52538  -0.16852   1.55643
   5                    0.52480  -0.15989   1.56065
   6                    0.52362  -0.15348   1.56342
   7                    0.52228  -0.14884   1.56474
   8                    0.52120  -0.14547   1.56469
   9                    0.52066  -0.14293   1.56337
  10                    0.52080  -0.14088   1.56093
  11                    0.52168  -0.13910   1.55753
  12                    0.52329  -0.13741   1.55332
  13                    0.52563  -0.13569   1.54847
  14                    0.52869  -0.13384   1.54313
  15                    0.53253  -0.13176   1.53745
  16                    0.53726  -0.12934   1.53162
  17                    0.54306  -0.12643   1.52585
  18                    0.55020  -0.12280   1.52044
  19                    0.55904  -0.11809   1.51577
  20                    0.57006  -0.11174   1.51239
  21                    0.58380  -0.10284   1.51102
  22                    0.60077  -0.09021   1.51248
  23                    0.62126  -0.07254   1.51749
  24                    0.64507  -0.04882   1.52623
  25                    0.67145  -0.01876   1.53813
  26                    0.69931   0.01714   1.55203
  27                    0.72756   0.05794   1.56658
  28                    0.75532   0.10253   1.58061
  29                    0.78192   0.14983   1.59323
  30                    0.80690   0.19880   1.60383
  31                    0.82991   0.24840   1.61207
  32                    0.85068   0.29760   1.61781
  33                    0.86903   0.34529   1.62110
  34                    0.88484   0.39038   1.62221
  35                    0.89806   0.43176   1.62153
  36                    0.90863   0.46817   1.61962
  37                    0.91652   0.49825   1.61717
  38                    0.92214   0.52239   1.61467
  39                    0.92627   0.54274   1.61228
  40                    0.92941   0.56105   1.60997
  41                    0.93180   0.57833   1.60774
  42                    0.93386   0.59535   1.60547
  43                    0.93546   0.61207   1.60323
  44                    0.93681   0.62878   1.60094
  45                    0.93800   0.64570   1.59852
  46                    0.93913   0.66312   1.59582
  47                    0.94029   0.68143   1.59265
  48                    0.94156   0.70103   1.58876
  49                    0.94297   0.72214   1.58386
  50                    0.94452   0.74450   1.57781
  51                    0.94613   0.76764   1.57070
  52                    0.94763   0.79118   1.56279
  53                    0.94877   0.81484   1.55450
  54                    0.94910   0.83816   1.54646
  55                    0.94836   0.86044   1.53940
  56                    0.94678   0.88144   1.53366
  57                    0.94494   0.90158   1.52899
  58                    0.94327   0.92129   1.52508
  59                    0.94190   0.94075   1.52179
  60                    0.94085   0.95989   1.51910
  61                    0.94009   0.97855   1.51700
  62                    0.93963   0.99646   1.51548
  63                    0.93954   1.01331   1.51455
  64                    0.93988   1.02881   1.51424
  65                    0.94071   1.04270   1.51459
  66                    0.94207   1.05494   1.51556
  67                    0.94397   1.06575   1.51697
  68                    0.94639   1.07574   1.51847
  69                    0.94930   1.08577   1.51960
  70                    0.95266   1.09679   1.51995
  71                    0.95635   1.10954   1.51920
  72                    0.96007   1.12409   1.51729
  73                    0.96333   1.13966   1.51456
  74                    0.96574   1.15499   1.51162
  75                    0.96723   1.16933   1.50892
  76                    0.96798   1.18261   1.50660
  77                    0.96818   1.19504   1.50465
  78                    0.96802   1.20687   1.50298
  79                    0.96762   1.21827   1.50154
  80                    0.96705   1.22936   1.50026
  81                    0.96638   1.24021   1.49910
 --------------------------------------------------------------------------
 
 Total number of points:                   80
 Total number of gradient calculations:    81
 Total number of Hessian calculations:     81
 IRC-IRC-IRC-IRC-IRC-IRC-IRC-IRC-IRC-IRC-IRC-IRC-IRC-IRC-IRC-IRC-IRC-IRC
                          Input orientation:                          
 ---------------------------------------------------------------------
 Center     Atomic      Atomic             Coordinates (Angstroms)
 Number     Number       Type             X           Y           Z
 ---------------------------------------------------------------------
      1          6           0       -0.729308    1.034735    0.172715
      2          6           0        0.509507    0.282816    0.563577
      3          6           0        1.547857    0.142910   -0.271794
      4          8           0       -1.660587    0.261164   -0.608520
      5          8           0       -2.105248   -0.850763    0.218935
      6          8           0        2.682620   -0.576404   -0.051438
      7          1           0       -1.607138   -1.585213   -0.184567
      8          1           0       -1.250418    1.429136    1.052809
      9          1           0       -0.510030    1.866231   -0.508010
     10          1           0        1.579734    0.606632   -1.254340
     11          1           0        2.645727   -0.992446    0.826458
     12          1           0        0.520609   -0.208478    1.536306
 ---------------------------------------------------------------------
                    Distance matrix (angstroms):
                    1          2          3          4          5
     1  C    0.000000
     2  C    1.500939   0.000000
     3  C    2.485643   1.339996   0.000000
     4  O    1.440841   2.466493   3.228232   0.000000
     5  O    2.334620   2.870665   3.817509   1.455605   0.000000
     6  O    3.779851   2.416387   1.361491   4.458174   4.803338
     7  H    2.786102   2.920519   3.598334   1.895178   0.974856
     8  H    1.096208   2.156556   3.352505   2.071814   2.573717
     9  H    1.096748   2.166785   2.694537   1.977404   3.233454
    10  H    2.747988   2.134260   1.086945   3.322065   4.227722
    11  H    3.990953   2.501767   1.923672   4.709039   4.791756
    12  H    2.228734   1.089814   2.109013   3.094909   3.007179
                    6          7          8          9         10
     6  O    0.000000
     7  H    4.408791   0.000000
     8  H    4.550862   3.277903   0.000000
     9  H    4.045731   3.636031   1.781960   0.000000
    10  H    2.015664   4.013072   3.742888   2.551610   0.000000
    11  H    0.972191   4.411394   4.592956   4.462247   2.832510
    12  H    2.707507   3.063349   2.460099   3.089638   3.094165
                   11         12
    11  H    0.000000
    12  H    2.373735   0.000000
 Symmetry turned off by external request.
 Stoichiometry    C3H6O3
 Framework group  C1[X(C3H6O3)]
 Deg. of freedom    30
 Full point group                 C1      NOp   1
 Rotational constants (GHZ):           8.5725646           1.6810180           1.5575445

 **********************************************************************

            Population analysis using the SCF Density.

 **********************************************************************

 Alpha  occ. eigenvalues --  -19.21446 -19.21380 -19.20966 -10.26872 -10.25095
 Alpha  occ. eigenvalues --  -10.19782  -1.12125  -1.08392  -0.91933  -0.78911
 Alpha  occ. eigenvalues --   -0.68374  -0.62453  -0.54738  -0.51886  -0.49561
 Alpha  occ. eigenvalues --   -0.46918  -0.43537  -0.43012  -0.41063  -0.38626
 Alpha  occ. eigenvalues --   -0.37103  -0.30691  -0.28080  -0.25142
 Alpha virt. eigenvalues --   -0.01317  -0.00947   0.00448   0.01942   0.02188
 Alpha virt. eigenvalues --    0.03539   0.05542   0.06784   0.07922   0.08439
 Alpha virt. eigenvalues --    0.10208   0.10565   0.12073   0.14426   0.16106
 Alpha virt. eigenvalues --    0.17724   0.18700   0.20038   0.20519   0.21055
 Alpha virt. eigenvalues --    0.21473   0.21960   0.23118   0.24006   0.24824
 Alpha virt. eigenvalues --    0.26076   0.27564   0.27957   0.29461   0.31421
 Alpha virt. eigenvalues --    0.33483   0.35795   0.36504   0.37501   0.40657
 Alpha virt. eigenvalues --    0.43094   0.59554   0.66322   0.67341   0.67957
 Alpha virt. eigenvalues --    0.74841   0.76291   0.85011   0.87607   0.89547
 Alpha virt. eigenvalues --    0.94276   0.96994   0.99852   1.00159   1.03331
 Alpha virt. eigenvalues --    1.05984   1.10413   1.12197   1.15028   1.15949
 Alpha virt. eigenvalues --    1.16225   1.20380   1.22379   1.26073   1.28747
 Alpha virt. eigenvalues --    1.33592   1.36493   1.37327   1.37418   1.43826
 Alpha virt. eigenvalues --    1.53380   1.54001   1.58211   1.63635   1.66520
 Alpha virt. eigenvalues --    1.71800   1.73006   1.77310   1.79264   1.82860
 Alpha virt. eigenvalues --    1.88394   1.94725   1.96672   1.99076   2.06608
 Alpha virt. eigenvalues --    2.09406   2.17223   2.28580   2.32375   2.35316
 Alpha virt. eigenvalues --    2.39226   2.47339   2.49248   2.52460   2.56684
 Alpha virt. eigenvalues --    2.59324   2.82469   2.86257   2.88958   3.03719
 Alpha virt. eigenvalues --    3.12906   3.94930   4.05442   4.24582   4.26908
 Alpha virt. eigenvalues --    4.40220   4.47464
          Condensed to atoms (all electrons):
               1          2          3          4          5          6
     1  C    6.100893  -0.658252   0.050408   0.122882  -0.087750   0.015027
     2  C   -0.658252   6.315440   0.397825  -0.101205   0.111334  -0.073164
     3  C    0.050408   0.397825   4.951592   0.039831  -0.043854   0.218611
     4  O    0.122882  -0.101205   0.039831   8.120117   0.100295  -0.001683
     5  O   -0.087750   0.111334  -0.043854   0.100295   8.211248  -0.000881
     6  O    0.015027  -0.073164   0.218611  -0.001683  -0.000881   8.322830
     7  H   -0.010591   0.023678  -0.004061  -0.038509   0.198532  -0.000184
     8  H    0.370846  -0.039648   0.010979  -0.031609  -0.007634  -0.000328
     9  H    0.412416  -0.051133  -0.015404  -0.050600   0.011693   0.000265
    10  H    0.039219  -0.136497   0.439008   0.000148   0.000265  -0.069929
    11  H    0.030519  -0.012920  -0.038451   0.000037  -0.000048   0.188107
    12  H    0.006663   0.308781  -0.022507   0.000954  -0.002392  -0.011824
               7          8          9         10         11         12
     1  C   -0.010591   0.370846   0.412416   0.039219   0.030519   0.006663
     2  C    0.023678  -0.039648  -0.051133  -0.136497  -0.012920   0.308781
     3  C   -0.004061   0.010979  -0.015404   0.439008  -0.038451  -0.022507
     4  O   -0.038509  -0.031609  -0.050600   0.000148   0.000037   0.000954
     5  O    0.198532  -0.007634   0.011693   0.000265  -0.000048  -0.002392
     6  O   -0.000184  -0.000328   0.000265  -0.069929   0.188107  -0.011824
     7  H    0.368966  -0.000554  -0.000268  -0.000009   0.000000  -0.000334
     8  H   -0.000554   0.538194  -0.032204   0.000033  -0.000007  -0.004913
     9  H   -0.000268  -0.032204   0.518943   0.002284   0.000007   0.003459
    10  H   -0.000009   0.000033   0.002284   0.517877   0.007423   0.004166
    11  H    0.000000  -0.000007   0.000007   0.007423   0.355936   0.006133
    12  H   -0.000334  -0.004913   0.003459   0.004166   0.006133   0.533006
 Mulliken charges:
               1
     1  C   -0.392279
     2  C   -0.084239
     3  C    0.016022
     4  O   -0.160658
     5  O   -0.490808
     6  O   -0.586846
     7  H    0.463335
     8  H    0.196844
     9  H    0.200542
    10  H    0.196014
    11  H    0.463264
    12  H    0.178808
 Sum of Mulliken charges =  -0.00000
 Mulliken charges with hydrogens summed into heavy atoms:
               1
     1  C    0.005107
     2  C    0.094570
     3  C    0.212036
     4  O   -0.160658
     5  O   -0.027473
     6  O   -0.123582
 APT charges:
               1
     1  C   -1.036862
     2  C   -0.357863
     3  C   -0.256700
     4  O   -0.143469
     5  O   -0.551726
     6  O   -0.611571
     7  H    0.536517
     8  H    0.488160
     9  H    0.452203
    10  H    0.429578
    11  H    0.655844
    12  H    0.395889
 Sum of APT charges =  -0.00000
 APT charges with hydrogens summed into heavy atoms:
               1
     1  C   -0.096499
     2  C    0.038026
     3  C    0.172878
     4  O   -0.143469
     5  O   -0.015209
     6  O    0.044273
 Electronic spatial extent (au):  <R**2>=            746.6074
 Charge=              0.0000 electrons
 Dipole moment (field-independent basis, Debye):
    X=              1.9526    Y=             -0.5300    Z=              1.1706  Tot=              2.3375
 Quadrupole moment (field-independent basis, Debye-Ang):
   XX=            -46.0380   YY=            -31.3912   ZZ=            -34.5744
   XY=             -0.9072   XZ=              2.3594   YZ=             -1.7285
 Traceless Quadrupole moment (field-independent basis, Debye-Ang):
   XX=             -8.7035   YY=              5.9433   ZZ=              2.7602
   XY=             -0.9072   XZ=              2.3594   YZ=             -1.7285
 Octapole moment (field-independent basis, Debye-Ang**2):
  XXX=              1.3776  YYY=            -12.9206  ZZZ=             -1.7100  XYY=             -5.9389
  XXY=             -3.9594  XXZ=              9.3197  XZZ=              5.1062  YZZ=             -2.9902
  YYZ=             -1.7119  XYZ=             -9.6392
 Hexadecapole moment (field-independent basis, Debye-Ang**3):
 XXXX=           -770.2955 YYYY=           -130.8907 ZZZZ=            -86.0316 XXXY=             -0.1251
 XXXZ=             26.4490 YYYX=             17.3513 YYYZ=             -1.0321 ZZZX=             -2.4704
 ZZZY=             -0.8245 XXYY=           -126.7521 XXZZ=           -117.7559 YYZZ=            -36.8389
 XXYZ=            -10.1072 YYXZ=              5.0279 ZZXY=              0.0452
 N-N= 2.337214201939D+02 E-N=-1.272147098255D+03  KE= 3.403511786963D+02
  Exact polarizability:   0.000   0.000   0.000   0.000   0.000   0.000
 Approx polarizability:  84.358  -4.780  66.739 -12.619  -4.399  68.493

 This type of calculation cannot be archived.


 RESEARCH IS WHAT I AM DOING WHEN I DON'T KNOW WHAT I AM DOING.
     -- WERNER VON BRAUN
 Job cpu time:       0 days  5 hours 47 minutes 39.3 seconds.
 Elapsed time:       0 days  0 hours 22 minutes 17.9 seconds.
 File lengths (MBytes):  RWF=     28 Int=      0 D2E=      0 Chk=      4 Scr=      1
 Normal termination of Gaussian 16 at Wed Dec 23 22:39:04 2020.
