 Entering Gaussian System, Link 0=g16
 Initial command:
 /apps/cent7/gaussian/g16-B.01/g16-haswell/g16/l1.exe "/scratch/bell/zhao922/YARP/paper-example/KHP-network/pp_0/IRC-folder/Gau-36075.inp" -scrdir="/scratch/bell/zhao922/YARP/paper-example/KHP-network/pp_0/IRC-folder/"
 Entering Link 1 = /apps/cent7/gaussian/g16-B.01/g16-haswell/g16/l1.exe PID=     36077.
  
 Copyright (c) 1988-2017, Gaussian, Inc.  All Rights Reserved.
  
 This is part of the Gaussian(R) 16 program.  It is based on
 the Gaussian(R) 09 system (copyright 2009, Gaussian, Inc.),
 the Gaussian(R) 03 system (copyright 2003, Gaussian, Inc.),
 the Gaussian(R) 98 system (copyright 1998, Gaussian, Inc.),
 the Gaussian(R) 94 system (copyright 1995, Gaussian, Inc.),
 the Gaussian 92(TM) system (copyright 1992, Gaussian, Inc.),
 the Gaussian 90(TM) system (copyright 1990, Gaussian, Inc.),
 the Gaussian 88(TM) system (copyright 1988, Gaussian, Inc.),
 the Gaussian 86(TM) system (copyright 1986, Carnegie Mellon
 University), and the Gaussian 82(TM) system (copyright 1983,
 Carnegie Mellon University). Gaussian is a federally registered
 trademark of Gaussian, Inc.
  
 This software contains proprietary and confidential information,
 including trade secrets, belonging to Gaussian, Inc.
  
 This software is provided under written license and may be
 used, copied, transmitted, or stored only in accord with that
 written license.
  
 The following legend is applicable only to US Government
 contracts under FAR:
  
                    RESTRICTED RIGHTS LEGEND
  
 Use, reproduction and disclosure by the US Government is
 subject to restrictions as set forth in subparagraphs (a)
 and (c) of the Commercial Computer Software - Restricted
 Rights clause in FAR 52.227-19.
  
 Gaussian, Inc.
 340 Quinnipiac St., Bldg. 40, Wallingford CT 06492
  
  
 ---------------------------------------------------------------
 Warning -- This program may not be used in any manner that
 competes with the business of Gaussian, Inc. or will provide
 assistance to any competitor of Gaussian, Inc.  The licensee
 of this program is prohibited from giving any competitor of
 Gaussian, Inc. access to this program.  By using this program,
 the user acknowledges that Gaussian, Inc. is engaged in the
 business of creating and licensing software in the field of
 computational chemistry and represents and warrants to the
 licensee that it is not a competitor of Gaussian, Inc. and that
 it will not use this program in any manner prohibited above.
 ---------------------------------------------------------------
  

 Cite this work as:
 Gaussian 16, Revision B.01,
 M. J. Frisch, G. W. Trucks, H. B. Schlegel, G. E. Scuseria, 
 M. A. Robb, J. R. Cheeseman, G. Scalmani, V. Barone, 
 G. A. Petersson, H. Nakatsuji, X. Li, M. Caricato, A. V. Marenich, 
 J. Bloino, B. G. Janesko, R. Gomperts, B. Mennucci, H. P. Hratchian, 
 J. V. Ortiz, A. F. Izmaylov, J. L. Sonnenberg, D. Williams-Young, 
 F. Ding, F. Lipparini, F. Egidi, J. Goings, B. Peng, A. Petrone, 
 T. Henderson, D. Ranasinghe, V. G. Zakrzewski, J. Gao, N. Rega, 
 G. Zheng, W. Liang, M. Hada, M. Ehara, K. Toyota, R. Fukuda, 
 J. Hasegawa, M. Ishida, T. Nakajima, Y. Honda, O. Kitao, H. Nakai, 
 T. Vreven, K. Throssell, J. A. Montgomery, Jr., J. E. Peralta, 
 F. Ogliaro, M. J. Bearpark, J. J. Heyd, E. N. Brothers, K. N. Kudin, 
 V. N. Staroverov, T. A. Keith, R. Kobayashi, J. Normand, 
 K. Raghavachari, A. P. Rendell, J. C. Burant, S. S. Iyengar, 
 J. Tomasi, M. Cossi, J. M. Millam, M. Klene, C. Adamo, R. Cammi, 
 J. W. Ochterski, R. L. Martin, K. Morokuma, O. Farkas, 
 J. B. Foresman, and D. J. Fox, Gaussian, Inc., Wallingford CT, 2016.
 
 ******************************************
 Gaussian 16:  ES64L-G16RevB.01 20-Dec-2017
                23-Dec-2020 
 ******************************************
 %NProcShared=16
 Will use up to   16 processors via shared memory.
 %Mem=6GB
 ----------------------------------------------------------------------
 # B3LYP/6-31+G* IRC=(CALCALL, maxpoints=40, StepSize=15, maxcyc=100, R
 eport=Cartesians)
 ----------------------------------------------------------------------
 1/6=100,10=4,18=10,26=3,38=1,39=15,42=40,44=3,71=1,129=10,172=1/1,23;
 2/12=2,17=6,18=5,29=1,40=1/2;
 3/5=1,6=6,7=11,11=2,25=1,30=1,71=2,74=-5,140=1/1,2,3;
 4//1;
 5/5=2,38=5/2;
 8/6=4,10=90,11=11/1;
 11/6=1,8=1,9=11,15=111,16=1/1,2,10;
 10/6=1,13=1/2;
 6/7=2,8=2,9=2,10=2,18=1,28=1/1;
 7/10=1,25=1/1,2,3,16;
 1/6=100,10=4,18=10,26=3,39=15,42=40,44=3,71=1,129=10/23(2);
 2/29=1/2;
 99/5=20/99;
 2/29=1/2;
 3/5=1,6=6,7=11,11=2,25=1,30=1,71=2,74=-5,140=1/1,2,3;
 4/5=5,16=3,69=1/1;
 5/5=2,38=5/2;
 8/6=4,10=90,11=11/1;
 11/6=1,8=1,9=11,15=111,16=1/1,2,10;
 10/6=1,13=1/2;
 7/10=1,25=1/1,2,3,16;
 1/6=100,10=4,18=10,26=3,39=15,42=40,44=3,71=1,129=10/23(-8);
 2/29=1/2;
 6/7=2,8=2,9=2,10=2,18=1,19=2,28=1/1;
 99/5=20/99;
 -----------
 pp_13_1 IRC
 -----------
 Symbolic Z-matrix:
 Charge =  0 Multiplicity = 1
 C                     0.30905  -0.53254   0.22481 
 C                    -0.46988   0.6969    0.17325 
 C                    -1.86953   0.54924  -0.0943 
 O                     1.5584   -0.69056  -0.29355 
 O                     2.28589   0.56401  -0.1337 
 O                    -2.46669  -0.53269  -0.1823 
 H                     3.18376   0.1983   -0.02234 
 H                     0.62094  -0.8896    1.6109 
 H                    -0.29461  -1.42107   0.02404 
 H                    -2.42887   1.49893  -0.21221 
 H                     0.02563   1.65715   0.22475 
 H                     0.05449  -0.05135   1.42865 
 
 IRC-IRC-IRC-IRC-IRC-IRC-IRC-IRC-IRC-IRC-IRC-IRC-IRC-IRC-IRC-IRC-IRC-IRC
 ------------------------------------------------------------------------
 INPUT DATA FOR L123
 ------------------------------------------------------------------------
 GENERAL PARAMETERS:
 Follow reaction path in both directions.
 Maximum points per path      =  40
 Step size                    =   0.150 bohr
 Integration scheme           = HPC                                 
    Redo corrector integration= Yes                                 
    DWI Weight Power          =  2
    DWI will use Hessian update vectors when possible.
    Max correction cycles     = 100
 Initial Hessian              = CalcFC
 Hessian evaluation           = Analytic at all predictor steps
                              = Update at all corrector steps
 Hessian updating method      = Bofill                              
 ------------------------------------------------------------------------
 IRC-IRC-IRC-IRC-IRC-IRC-IRC-IRC-IRC-IRC-IRC-IRC-IRC-IRC-IRC-IRC-IRC-IRC
                          Input orientation:                          
 ---------------------------------------------------------------------
 Center     Atomic      Atomic             Coordinates (Angstroms)
 Number     Number       Type             X           Y           Z
 ---------------------------------------------------------------------
      1          6           0        0.309045   -0.532542    0.224813
      2          6           0       -0.469880    0.696896    0.173250
      3          6           0       -1.869529    0.549236   -0.094296
      4          8           0        1.558402   -0.690564   -0.293546
      5          8           0        2.285893    0.564012   -0.133701
      6          8           0       -2.466689   -0.532687   -0.182302
      7          1           0        3.183758    0.198295   -0.022343
      8          1           0        0.620940   -0.889597    1.610902
      9          1           0       -0.294613   -1.421071    0.024038
     10          1           0       -2.428874    1.498932   -0.212212
     11          1           0        0.025629    1.657154    0.224749
     12          1           0        0.054490   -0.051350    1.428651
 ---------------------------------------------------------------------
                    Distance matrix (angstroms):
                    1          2          3          4          5
     1  C    0.000000
     2  C    1.456331   0.000000
     3  C    2.453214   1.432621   0.000000
     4  O    1.361822   2.501374   3.650687   0.000000
     5  O    2.288862   2.775997   4.155635   1.459025   0.000000
     6  O    2.805431   2.371822   1.238912   4.029722   4.877719
     7  H    2.976438   3.692686   5.065969   1.872272   0.975864
     8  H    1.464926   2.402851   3.343707   2.131988   2.815792
     9  H    1.092793   2.130438   2.525168   2.016969   3.259516
    10  H    3.437161   2.151627   1.108464   4.549602   4.807210
    11  H    2.207961   1.081793   2.218309   2.851281   2.536186
    12  H    1.321200   1.552697   2.526246   2.374091   2.792628
                    6          7          8          9         10
     6  O    0.000000
     7  H    5.699778   0.000000
     8  H    3.588373   3.227853   0.000000
     9  H    2.355784   3.837129   1.907574   0.000000
    10  H    2.032191   5.764490   4.281376   3.624542   0.000000
    11  H    3.342565   3.487564   2.960026   3.101340   2.498110
    12  H    3.030379   3.458327   1.027978   1.992723   3.356025
                   11         12
    11  H    0.000000
    12  H    2.090263   0.000000
 Symmetry turned off by external request.
 Stoichiometry    C3H6O3
 Framework group  C1[X(C3H6O3)]
 Deg. of freedom    30
 Full point group                 C1      NOp   1
 Rotational constants (GHZ):          11.0123056           1.7426067           1.5783689
 Standard basis: 6-31+G(d) (6D, 7F)
   126 basis functions,   216 primitive gaussians,   126 cartesian basis functions
    24 alpha electrons       24 beta electrons
       nuclear repulsion energy       237.7256890789 Hartrees.
 NAtoms=   12 NActive=   12 NUniq=   12 SFac= 1.00D+00 NAtFMM=   60 NAOKFM=F Big=F
 Integral buffers will be    131072 words long.
 Raffenetti 2 integral format.
 Two-electron integral symmetry is turned off.
 One-electron integrals computed using PRISM.
 NBasis=   126 RedAO= T EigKep=  9.03D-05  NBF=   126
 NBsUse=   126 1.00D-06 EigRej= -1.00D+00 NBFU=   126
 ExpMin= 4.38D-02 ExpMax= 5.48D+03 ExpMxC= 8.25D+02 IAcc=3 IRadAn=         5 AccDes= 0.00D+00
 Harris functional with IExCor=  402 and IRadAn=       5 diagonalized for initial guess.
 HarFok:  IExCor=  402 AccDes= 0.00D+00 IRadAn=         5 IDoV= 1 UseB2=F ITyADJ=14
 ICtDFT=  3500011 ScaDFX=  1.000000  1.000000  1.000000  1.000000
 FoFCou: FMM=F IPFlag=           0 FMFlag=      100000 FMFlg1=           0
         NFxFlg=           0 DoJE=T BraDBF=F KetDBF=T FulRan=T
         wScrn=  0.000000 ICntrl=       500 IOpCl=  0 I1Cent=   200000004 NGrid=           0
         NMat0=    1 NMatS0=      1 NMatT0=    0 NMatD0=    1 NMtDS0=    0 NMtDT0=    0
 Symmetry not used in FoFCou.
 Keep R1 ints in memory in canonical form, NReq=47237219.
 Requested convergence on RMS density matrix=1.00D-08 within 128 cycles.
 Requested convergence on MAX density matrix=1.00D-06.
 Requested convergence on             energy=1.00D-06.
 No special actions if energy rises.
 SCF Done:  E(RB3LYP) =  -343.335578330     A.U. after   16 cycles
            NFock= 16  Conv=0.30D-08     -V/T= 2.0091
 DoSCS=F DFT=T ScalE2(SS,OS)=  1.000000  1.000000
 Range of M.O.s used for correlation:     1   126
 NBasis=   126 NAE=    24 NBE=    24 NFC=     0 NFV=     0
 NROrb=    126 NOA=    24 NOB=    24 NVA=   102 NVB=   102

 **** Warning!!: The largest alpha MO coefficient is  0.30333749D+02

 Symmetrizing basis deriv contribution to polar:
 IMax=3 JMax=2 DiffMx= 0.00D+00
 G2DrvN: will do    13 centers at a time, making    1 passes.
 Calling FoFCou, ICntrl=  3107 FMM=F I1Cent=   0 AccDes= 0.00D+00.
 End of G2Drv F.D. properties file   721 does not exist.
 End of G2Drv F.D. properties file   722 does not exist.
 End of G2Drv F.D. properties file   788 does not exist.
          IDoAtm=111111111111
          Differentiating once with respect to nuclear coordinates.
 Keep R1 ints in memory in canonical form, NReq=47193241.
          There are    39 degrees of freedom in the 1st order CPHF.  IDoFFX=6 NUNeed=     0.
     33 vectors produced by pass  0 Test12= 6.28D-15 2.56D-09 XBig12= 2.12D-01 1.78D-01.
 AX will form    33 AO Fock derivatives at one time.
     33 vectors produced by pass  1 Test12= 6.28D-15 2.56D-09 XBig12= 4.81D-02 4.67D-02.
     33 vectors produced by pass  2 Test12= 6.28D-15 2.56D-09 XBig12= 1.09D-03 4.78D-03.
     33 vectors produced by pass  3 Test12= 6.28D-15 2.56D-09 XBig12= 4.78D-06 2.41D-04.
     33 vectors produced by pass  4 Test12= 6.28D-15 2.56D-09 XBig12= 1.07D-08 1.59D-05.
     30 vectors produced by pass  5 Test12= 6.28D-15 2.56D-09 XBig12= 1.32D-11 4.06D-07.
      7 vectors produced by pass  6 Test12= 6.28D-15 2.56D-09 XBig12= 1.12D-14 1.52D-08.
 InvSVY:  IOpt=1 It=  1 EMax= 2.22D-15
 Solved reduced A of dimension   202 with    33 vectors.
 End of Minotr F.D. properties file   721 does not exist.
 End of Minotr F.D. properties file   722 does not exist.
 End of Minotr F.D. properties file   788 does not exist.

 **********************************************************************

            Population analysis using the SCF Density.

 **********************************************************************

 Alpha  occ. eigenvalues --  -19.28855 -19.26779 -19.12114 -10.35170 -10.25958
 Alpha  occ. eigenvalues --  -10.19375  -1.19338  -1.01379  -0.99636  -0.83054
 Alpha  occ. eigenvalues --   -0.68493  -0.61906  -0.57545  -0.55595  -0.52964
 Alpha  occ. eigenvalues --   -0.46910  -0.46239  -0.44119  -0.40431  -0.38660
 Alpha  occ. eigenvalues --   -0.36943  -0.32363  -0.24424  -0.22759
 Alpha virt. eigenvalues --   -0.05769  -0.05104  -0.01819   0.00533   0.02230
 Alpha virt. eigenvalues --    0.03592   0.04969   0.06128   0.06889   0.08192
 Alpha virt. eigenvalues --    0.08667   0.11034   0.12015   0.12495   0.13137
 Alpha virt. eigenvalues --    0.14669   0.15238   0.16702   0.17676   0.20313
 Alpha virt. eigenvalues --    0.21561   0.23185   0.24420   0.25018   0.26199
 Alpha virt. eigenvalues --    0.26663   0.27749   0.28945   0.29463   0.30806
 Alpha virt. eigenvalues --    0.32066   0.32849   0.34220   0.38741   0.41330
 Alpha virt. eigenvalues --    0.49014   0.63722   0.66810   0.68060   0.69973
 Alpha virt. eigenvalues --    0.73005   0.74342   0.78924   0.81041   0.83392
 Alpha virt. eigenvalues --    0.88846   0.93924   0.96163   0.97678   1.00270
 Alpha virt. eigenvalues --    1.03737   1.07713   1.10549   1.13088   1.16854
 Alpha virt. eigenvalues --    1.19424   1.22378   1.25163   1.27412   1.29346
 Alpha virt. eigenvalues --    1.30412   1.32951   1.34602   1.39719   1.44028
 Alpha virt. eigenvalues --    1.49654   1.52048   1.54516   1.60487   1.64004
 Alpha virt. eigenvalues --    1.65494   1.69205   1.75641   1.78909   1.83365
 Alpha virt. eigenvalues --    1.87962   1.88821   1.95532   1.98318   2.04339
 Alpha virt. eigenvalues --    2.09281   2.18992   2.20378   2.25057   2.28435
 Alpha virt. eigenvalues --    2.33107   2.42421   2.49844   2.53310   2.61555
 Alpha virt. eigenvalues --    2.64979   2.79762   2.87238   2.98834   3.07908
 Alpha virt. eigenvalues --    3.13626   3.92989   4.14007   4.24353   4.26334
 Alpha virt. eigenvalues --    4.33152   4.48864
          Condensed to atoms (all electrons):
               1          2          3          4          5          6
     1  C    6.166793  -0.649653   0.137429   0.082989  -0.121733   0.046435
     2  C   -0.649653   7.447752  -0.374104  -0.004768   0.057175  -0.219700
     3  C    0.137429  -0.374104   5.229443   0.013321  -0.005452   0.415279
     4  O    0.082989  -0.004768   0.013321   8.021788   0.094517   0.002803
     5  O   -0.121733   0.057175  -0.005452   0.094517   8.268318  -0.001995
     6  O    0.046435  -0.219700   0.415279   0.002803  -0.001995   8.304758
     7  H    0.020831  -0.008279  -0.000186  -0.024733   0.178731   0.000008
     8  H    0.380771  -0.331349   0.054960  -0.104314  -0.006602  -0.001741
     9  H    0.366832  -0.015331  -0.027348  -0.027658   0.007028   0.019960
    10  H    0.047706  -0.243352   0.471289  -0.000215  -0.000276  -0.062801
    11  H   -0.014808   0.336431   0.002244  -0.006761  -0.000938   0.004436
    12  H    0.086849   0.002037   0.054858  -0.016777   0.010127  -0.007382
               7          8          9         10         11         12
     1  C    0.020831   0.380771   0.366832   0.047706  -0.014808   0.086849
     2  C   -0.008279  -0.331349  -0.015331  -0.243352   0.336431   0.002037
     3  C   -0.000186   0.054960  -0.027348   0.471289   0.002244   0.054858
     4  O   -0.024733  -0.104314  -0.027658  -0.000215  -0.006761  -0.016777
     5  O    0.178731  -0.006602   0.007028  -0.000276  -0.000938   0.010127
     6  O    0.000008  -0.001741   0.019960  -0.062801   0.004436  -0.007382
     7  H    0.340187   0.001514  -0.000198   0.000001   0.000088   0.000116
     8  H    0.001514   0.877615  -0.032941  -0.000106   0.000595   0.093941
     9  H   -0.000198  -0.032941   0.396234   0.000697   0.002726  -0.015072
    10  H    0.000001  -0.000106   0.000697   0.636591   0.000488  -0.000369
    11  H    0.000088   0.000595   0.002726   0.000488   0.456844  -0.005297
    12  H    0.000116   0.093941  -0.015072  -0.000369  -0.005297   0.527732
 Mulliken charges:
               1
     1  C   -0.550441
     2  C    0.003141
     3  C    0.028269
     4  O   -0.030192
     5  O   -0.478899
     6  O   -0.500061
     7  H    0.491919
     8  H    0.067657
     9  H    0.325070
    10  H    0.150348
    11  H    0.223952
    12  H    0.269236
 Sum of Mulliken charges =  -0.00000
 Mulliken charges with hydrogens summed into heavy atoms:
               1
     1  C    0.111522
     2  C    0.227093
     3  C    0.178617
     4  O   -0.030192
     5  O    0.013020
     6  O   -0.500061
 APT charges:
               1
     1  C   -0.907626
     2  C   -0.162911
     3  C   -0.485679
     4  O    0.046229
     5  O   -0.852403
     6  O   -0.396388
     7  H    0.868944
     8  H    0.125519
     9  H    0.513583
    10  H    0.515976
    11  H    0.448325
    12  H    0.286429
 Sum of APT charges =  -0.00000
 APT charges with hydrogens summed into heavy atoms:
               1
     1  C    0.017906
     2  C    0.285414
     3  C    0.030298
     4  O    0.046229
     5  O    0.016541
     6  O   -0.396388
 Electronic spatial extent (au):  <R**2>=            721.7170
 Charge=             -0.0000 electrons
 Dipole moment (field-independent basis, Debye):
    X=              4.9295    Y=              0.6677    Z=              1.6568  Tot=              5.2432
 Quadrupole moment (field-independent basis, Debye-Ang):
   XX=            -38.6833   YY=            -36.8168   ZZ=            -37.5881
   XY=             -4.5405   XZ=              0.2141   YZ=             -0.2937
 Traceless Quadrupole moment (field-independent basis, Debye-Ang):
   XX=             -0.9873   YY=              0.8793   ZZ=              0.1079
   XY=             -4.5405   XZ=              0.2141   YZ=             -0.2937
 Octapole moment (field-independent basis, Debye-Ang**2):
  XXX=             80.5260  YYY=             -1.4677  ZZZ=             -2.5883  XYY=              1.6028
  XXY=             13.0520  XXZ=              1.7321  XZZ=              2.3678  YZZ=             -1.4378
  YYZ=             -1.9233  XYZ=              1.9574
 Hexadecapole moment (field-independent basis, Debye-Ang**3):
 XXXX=           -601.8399 YYYY=           -137.2867 ZZZZ=            -74.7048 XXXY=            -24.2094
 XXXZ=             -6.8493 YYYX=              4.9456 YYYZ=              3.1454 ZZZX=             -3.0916
 ZZZY=              3.0464 XXYY=           -143.8909 XXZZ=           -131.3102 YYZZ=            -40.3443
 XXYZ=             -1.2709 YYXZ=              0.0895 ZZXY=              2.2939
 N-N= 2.377256890789D+02 E-N=-1.279162480155D+03  KE= 3.402540626093D+02
  Exact polarizability:   0.000   0.000   0.000   0.000   0.000   0.000
 Approx polarizability: 119.563  -8.170  93.760  21.523 -12.923  78.433
 Calling FoFJK, ICntrl=    100127 FMM=F ISym2X=0 I1Cent= 0 IOpClX= 0 NMat=1 NMatS=1 NMatT=0.
 -------------------------------------------------------------------
 Center     Atomic                   Forces (Hartrees/Bohr)
 Number     Number              X              Y              Z
 -------------------------------------------------------------------
      1        6          -0.000002625    0.000000543    0.000001189
      2        6          -0.000001520   -0.000000014   -0.000000915
      3        6           0.000000946    0.000000920   -0.000000095
      4        8           0.000002446   -0.000000678   -0.000001695
      5        8           0.000000590   -0.000000011    0.000000074
      6        8           0.000000385   -0.000001072   -0.000000219
      7        1          -0.000000057    0.000000319    0.000000289
      8        1          -0.000000270    0.000001077    0.000000401
      9        1           0.000000884   -0.000000842    0.000000502
     10        1          -0.000000234   -0.000000256   -0.000000571
     11        1          -0.000000012    0.000000099   -0.000000168
     12        1          -0.000000533   -0.000000084    0.000001207
 -------------------------------------------------------------------
 Cartesian Forces:  Max     0.000002625 RMS     0.000000914
 IRC-IRC-IRC-IRC-IRC-IRC-IRC-IRC-IRC-IRC-IRC-IRC-IRC-IRC-IRC-IRC-IRC-IRC
          ******** Start new reaction path calculation ********
 Supplied step size of   0.1500 bohr.
    Integration on MW PES will use step size of   0.1609 sqrt(amu)*bohr.
 Point Number:   0          Path Number:   1
 Calculating another point on the path.
 IRC-IRC-IRC-IRC-IRC-IRC-IRC-IRC-IRC-IRC-IRC-IRC-IRC-IRC-IRC-IRC-IRC-IRC
                          Input orientation:                          
 ---------------------------------------------------------------------
 Center     Atomic      Atomic             Coordinates (Angstroms)
 Number     Number       Type             X           Y           Z
 ---------------------------------------------------------------------
      1          6           0        0.318966   -0.516987    0.252696
      2          6           0       -0.456850    0.707224    0.203655
      3          6           0       -1.856067    0.560175   -0.060377
      4          8           0        1.570430   -0.679590   -0.257838
      5          8           0        2.298769    0.574884   -0.100262
      6          8           0       -2.454023   -0.522009   -0.148668
      7          1           0        3.196730    0.208951    0.011025
      8          1           0        0.635906   -0.874019    1.681464
      9          1           0       -0.280251   -1.411324    0.063726
     10          1           0       -2.415562    1.509967   -0.178459
     11          1           0        0.037783    1.667845    0.260724
     12          1           0        0.107171   -0.090030    1.489484
 ---------------------------------------------------------------------
                    Distance matrix (angstroms):
                    1          2          3          4          5
     1  C    0.000000
     2  C    1.450168   0.000000
     3  C    2.447255   1.431484   0.000000
     4  O    1.361340   2.499217   3.649231   0.000000
     5  O    2.288314   2.775484   4.155053   1.459113   0.000000
     6  O    2.801890   2.371465   1.239543   4.029016   4.877966
     7  H    2.977737   3.692428   5.065492   1.872604   0.976026
     8  H    1.506420   2.424534   3.361673   2.161488   2.835309
     9  H    1.092982   2.130496   2.526936   2.015901   3.259334
    10  H    3.431046   2.151037   1.108640   4.548470   4.806808
    11  H    2.202866   1.081994   2.217365   2.851028   2.537110
    12  H    1.325441   1.614649   2.584403   2.354111   2.787921
                    6          7          8          9         10
     6  O    0.000000
     7  H    5.700072   0.000000
     8  H    3.608456   3.243611   0.000000
     9  H    2.358236   3.836335   1.935231   0.000000
    10  H    2.032558   5.764231   4.295830   3.626588   0.000000
    11  H    3.342478   3.488505   2.972763   3.101812   2.497340
    12  H    3.070808   3.438111   0.964912   1.982095   3.421433
                   11         12
    11  H    0.000000
    12  H    2.145877   0.000000
 Symmetry turned off by external request.
 Stoichiometry    C3H6O3
 Framework group  C1[X(C3H6O3)]
 Deg. of freedom    30
 Full point group                 C1      NOp   1
 Rotational constants (GHZ):          10.9946308           1.7421259           1.5790825
 Standard basis: 6-31+G(d) (6D, 7F)
   126 basis functions,   216 primitive gaussians,   126 cartesian basis functions
    24 alpha electrons       24 beta electrons
       nuclear repulsion energy       237.6219646671 Hartrees.
 NAtoms=   12 NActive=   12 NUniq=   12 SFac= 1.00D+00 NAtFMM=   60 NAOKFM=F Big=F
 Integral buffers will be    131072 words long.
 Raffenetti 2 integral format.
 Two-electron integral symmetry is turned off.
 One-electron integrals computed using PRISM.
 NBasis=   126 RedAO= T EigKep=  8.90D-05  NBF=   126
 NBsUse=   126 1.00D-06 EigRej= -1.00D+00 NBFU=   126
 Initial guess from the checkpoint file:  "/scratch/bell/zhao922/YARP/paper-example/KHP-network/pp_0/IRC-folder/Gau-36077.chk"
 B after Tr=     0.025176    0.019691    0.064947
         Rot=    1.000000   -0.000208   -0.000061   -0.000009 Ang=  -0.02 deg.
 ExpMin= 4.38D-02 ExpMax= 5.48D+03 ExpMxC= 8.25D+02 IAcc=3 IRadAn=         5 AccDes= 0.00D+00
 Harris functional with IExCor=  402 and IRadAn=       5 diagonalized for initial guess.
 HarFok:  IExCor=  402 AccDes= 0.00D+00 IRadAn=         5 IDoV= 1 UseB2=F ITyADJ=14
 ICtDFT=  3500011 ScaDFX=  1.000000  1.000000  1.000000  1.000000
 FoFCou: FMM=F IPFlag=           0 FMFlag=      100000 FMFlg1=           0
         NFxFlg=           0 DoJE=T BraDBF=F KetDBF=T FulRan=T
         wScrn=  0.000000 ICntrl=       500 IOpCl=  0 I1Cent=   200000004 NGrid=           0
         NMat0=    1 NMatS0=      1 NMatT0=    0 NMatD0=    1 NMtDS0=    0 NMtDT0=    0
 Symmetry not used in FoFCou.
 Keep R1 ints in memory in canonical form, NReq=47237219.
 Requested convergence on RMS density matrix=1.00D-08 within 128 cycles.
 Requested convergence on MAX density matrix=1.00D-06.
 Requested convergence on             energy=1.00D-06.
 No special actions if energy rises.
 SCF Done:  E(RB3LYP) =  -343.337499032     A.U. after   13 cycles
            NFock= 13  Conv=0.30D-08     -V/T= 2.0090
 DoSCS=F DFT=T ScalE2(SS,OS)=  1.000000  1.000000
 Range of M.O.s used for correlation:     1   126
 NBasis=   126 NAE=    24 NBE=    24 NFC=     0 NFV=     0
 NROrb=    126 NOA=    24 NOB=    24 NVA=   102 NVB=   102

 **** Warning!!: The largest alpha MO coefficient is  0.32199284D+02

 Symmetrizing basis deriv contribution to polar:
 IMax=3 JMax=2 DiffMx= 0.00D+00
 G2DrvN: will do    13 centers at a time, making    1 passes.
 Calling FoFCou, ICntrl=  3107 FMM=F I1Cent=   0 AccDes= 0.00D+00.
 End of G2Drv F.D. properties file   721 does not exist.
 End of G2Drv F.D. properties file   722 does not exist.
 End of G2Drv F.D. properties file   788 does not exist.
          IDoAtm=111111111111
          Differentiating once with respect to nuclear coordinates.
 Keep R1 ints in memory in canonical form, NReq=47193241.
          There are    39 degrees of freedom in the 1st order CPHF.  IDoFFX=6 NUNeed=     0.
     33 vectors produced by pass  0 Test12= 6.28D-15 2.56D-09 XBig12= 2.13D-01 2.13D-01.
 AX will form    33 AO Fock derivatives at one time.
     33 vectors produced by pass  1 Test12= 6.28D-15 2.56D-09 XBig12= 5.28D-02 5.82D-02.
     33 vectors produced by pass  2 Test12= 6.28D-15 2.56D-09 XBig12= 1.23D-03 4.76D-03.
     33 vectors produced by pass  3 Test12= 6.28D-15 2.56D-09 XBig12= 6.08D-06 2.85D-04.
     33 vectors produced by pass  4 Test12= 6.28D-15 2.56D-09 XBig12= 1.33D-08 2.04D-05.
     29 vectors produced by pass  5 Test12= 6.28D-15 2.56D-09 XBig12= 1.69D-11 5.46D-07.
      6 vectors produced by pass  6 Test12= 6.28D-15 2.56D-09 XBig12= 1.57D-14 1.71D-08.
 InvSVY:  IOpt=1 It=  1 EMax= 2.11D-15
 Solved reduced A of dimension   200 with    33 vectors.
 End of Minotr F.D. properties file   721 does not exist.
 End of Minotr F.D. properties file   722 does not exist.
 End of Minotr F.D. properties file   788 does not exist.
 Calling FoFJK, ICntrl=    100127 FMM=F ISym2X=0 I1Cent= 0 IOpClX= 0 NMat=1 NMatS=1 NMatT=0.
 -------------------------------------------------------------------
 Center     Atomic                   Forces (Hartrees/Bohr)
 Number     Number              X              Y              Z
 -------------------------------------------------------------------
      1        6          -0.010257417    0.015219376   -0.020935223
      2        6           0.001763977   -0.002904984   -0.010041158
      3        6           0.001166774   -0.000201333    0.001063950
      4        8          -0.003475310    0.000263215    0.009030189
      5        8           0.000106571   -0.000088332   -0.000723853
      6        8          -0.000756200   -0.000527386    0.000102971
      7        1          -0.000008578   -0.000027542   -0.000075917
      8        1           0.000631152    0.001282276    0.010427280
      9        1           0.000577271   -0.000255820    0.001511113
     10        1           0.000096970    0.000011576   -0.000015183
     11        1          -0.000244684   -0.000000997    0.000479323
     12        1           0.010399475   -0.012770050    0.009176508
 -------------------------------------------------------------------
 Cartesian Forces:  Max     0.020935223 RMS     0.006355930
 IRC-IRC-IRC-IRC-IRC-IRC-IRC-IRC-IRC-IRC-IRC-IRC-IRC-IRC-IRC-IRC-IRC-IRC
 Pt  1 Step number   1 out of a maximum of 100
 Modified Bulirsch-Stoer Extrapolation Cycles:
    EPS =    0.000010000000000
      PEZero:  N= 2 I= 1 D=  4.19D-04 Err=  6.77D-04
      PEZero:  N= 3 I= 2 D=  4.19D-04 Err=  4.51D-04
      PEZero:  N= 3 I= 1 D=  8.38D-04 Err=  1.09D-07
 Maximum DWI energy   std dev =  0.000012583 at pt     1
 Maximum DWI gradient std dev =  0.018442104 at pt    28
 CORRECTOR INTEGRATION CONVERGENCE:
   Recorrection delta-x convergence threshold:    0.010000
   Delta-x Convergence Met
 Point Number:   1          Path Number:   1
   CHANGE IN THE REACTION COORDINATE =    0.16080
   NET REACTION COORDINATE UP TO THIS POINT =    0.16080
  # OF POINTS ALONG THE PATH =   1
  # OF STEPS =   1

 Calculating another point on the path.
 IRC-IRC-IRC-IRC-IRC-IRC-IRC-IRC-IRC-IRC-IRC-IRC-IRC-IRC-IRC-IRC-IRC-IRC
                          Input orientation:                          
 ---------------------------------------------------------------------
 Center     Atomic      Atomic             Coordinates (Angstroms)
 Number     Number       Type             X           Y           Z
 ---------------------------------------------------------------------
      1          6           0        0.315839   -0.512346    0.246080
      2          6           0       -0.456156    0.706207    0.200752
      3          6           0       -1.855777    0.560087   -0.060040
      4          8           0        1.569642   -0.679526   -0.255779
      5          8           0        2.298795    0.574868   -0.100424
      6          8           0       -2.454193   -0.522098   -0.148643
      7          1           0        3.196790    0.208842    0.010757
      8          1           0        0.637873   -0.868783    1.719766
      9          1           0       -0.278059   -1.412555    0.068991
     10          1           0       -2.415268    1.509998   -0.178556
     11          1           0        0.036857    1.667787    0.262010
     12          1           0        0.143889   -0.135340    1.523845
 ---------------------------------------------------------------------
                    Distance matrix (angstroms):
                    1          2          3          4          5
     1  C    0.000000
     2  C    1.443226   0.000000
     3  C    2.441257   1.431189   0.000000
     4  O    1.360820   2.496504   3.648074   0.000000
     5  O    2.287840   2.774475   4.154794   1.459213   0.000000
     6  O    2.798031   2.371278   1.239789   4.028338   4.878171
     7  H    2.979155   3.691543   5.065256   1.872926   0.976080
     8  H    1.550002   2.446405   3.380484   2.192439   2.855851
     9  H    1.092911   2.130312   2.529260   2.014152   3.258639
    10  H    3.424782   2.151295   1.108786   4.547470   4.806553
    11  H    2.197967   1.082336   2.216479   2.850861   2.538147
    12  H    1.343274   1.678937   2.644045   2.344348   2.790388
                    6          7          8          9         10
     6  O    0.000000
     7  H    5.700288   0.000000
     8  H    3.629327   3.260375   0.000000
     9  H    2.361320   3.834958   1.964607   0.000000
    10  H    2.032689   5.764029   4.310905   3.629084   0.000000
    11  H    3.342089   3.489531   2.986714   3.102408   2.496380
    12  H    3.113973   3.424631   0.905729   1.981393   3.486343
                   11         12
    11  H    0.000000
    12  H    2.203395   0.000000
 Symmetry turned off by external request.
 Stoichiometry    C3H6O3
 Framework group  C1[X(C3H6O3)]
 Deg. of freedom    30
 Full point group                 C1      NOp   1
 Rotational constants (GHZ):          10.9720625           1.7414255           1.5797734
 Standard basis: 6-31+G(d) (6D, 7F)
   126 basis functions,   216 primitive gaussians,   126 cartesian basis functions
    24 alpha electrons       24 beta electrons
       nuclear repulsion energy       237.4957438815 Hartrees.
 NAtoms=   12 NActive=   12 NUniq=   12 SFac= 1.00D+00 NAtFMM=   60 NAOKFM=F Big=F
 Integral buffers will be    131072 words long.
 Raffenetti 2 integral format.
 Two-electron integral symmetry is turned off.
 One-electron integrals computed using PRISM.
 NBasis=   126 RedAO= T EigKep=  8.78D-05  NBF=   126
 NBsUse=   126 1.00D-06 EigRej= -1.00D+00 NBFU=   126
 Initial guess from the checkpoint file:  "/scratch/bell/zhao922/YARP/paper-example/KHP-network/pp_0/IRC-folder/Gau-36077.chk"
 B after Tr=     0.000781   -0.000794    0.001538
         Rot=    1.000000   -0.000120   -0.000050   -0.000012 Ang=  -0.02 deg.
 ExpMin= 4.38D-02 ExpMax= 5.48D+03 ExpMxC= 8.25D+02 IAcc=3 IRadAn=         5 AccDes= 0.00D+00
 Harris functional with IExCor=  402 and IRadAn=       5 diagonalized for initial guess.
 HarFok:  IExCor=  402 AccDes= 0.00D+00 IRadAn=         5 IDoV= 1 UseB2=F ITyADJ=14
 ICtDFT=  3500011 ScaDFX=  1.000000  1.000000  1.000000  1.000000
 FoFCou: FMM=F IPFlag=           0 FMFlag=      100000 FMFlg1=           0
         NFxFlg=           0 DoJE=T BraDBF=F KetDBF=T FulRan=T
         wScrn=  0.000000 ICntrl=       500 IOpCl=  0 I1Cent=   200000004 NGrid=           0
         NMat0=    1 NMatS0=      1 NMatT0=    0 NMatD0=    1 NMtDS0=    0 NMtDT0=    0
 Symmetry not used in FoFCou.
 Keep R1 ints in memory in canonical form, NReq=47237219.
 Requested convergence on RMS density matrix=1.00D-08 within 128 cycles.
 Requested convergence on MAX density matrix=1.00D-06.
 Requested convergence on             energy=1.00D-06.
 No special actions if energy rises.
 SCF Done:  E(RB3LYP) =  -343.342826525     A.U. after   13 cycles
            NFock= 13  Conv=0.28D-08     -V/T= 2.0090
 DoSCS=F DFT=T ScalE2(SS,OS)=  1.000000  1.000000
 Range of M.O.s used for correlation:     1   126
 NBasis=   126 NAE=    24 NBE=    24 NFC=     0 NFV=     0
 NROrb=    126 NOA=    24 NOB=    24 NVA=   102 NVB=   102

 **** Warning!!: The largest alpha MO coefficient is  0.32562849D+02

 Symmetrizing basis deriv contribution to polar:
 IMax=3 JMax=2 DiffMx= 0.00D+00
 G2DrvN: will do    13 centers at a time, making    1 passes.
 Calling FoFCou, ICntrl=  3107 FMM=F I1Cent=   0 AccDes= 0.00D+00.
 End of G2Drv F.D. properties file   721 does not exist.
 End of G2Drv F.D. properties file   722 does not exist.
 End of G2Drv F.D. properties file   788 does not exist.
          IDoAtm=111111111111
          Differentiating once with respect to nuclear coordinates.
 Keep R1 ints in memory in canonical form, NReq=47193241.
          There are    39 degrees of freedom in the 1st order CPHF.  IDoFFX=6 NUNeed=     0.
     33 vectors produced by pass  0 Test12= 6.28D-15 2.56D-09 XBig12= 2.08D-01 2.24D-01.
 AX will form    33 AO Fock derivatives at one time.
     33 vectors produced by pass  1 Test12= 6.28D-15 2.56D-09 XBig12= 5.60D-02 6.43D-02.
     33 vectors produced by pass  2 Test12= 6.28D-15 2.56D-09 XBig12= 1.36D-03 6.28D-03.
     33 vectors produced by pass  3 Test12= 6.28D-15 2.56D-09 XBig12= 7.94D-06 3.59D-04.
     33 vectors produced by pass  4 Test12= 6.28D-15 2.56D-09 XBig12= 1.66D-08 2.16D-05.
     29 vectors produced by pass  5 Test12= 6.28D-15 2.56D-09 XBig12= 2.11D-11 6.53D-07.
      6 vectors produced by pass  6 Test12= 6.28D-15 2.56D-09 XBig12= 2.08D-14 2.02D-08.
 InvSVY:  IOpt=1 It=  1 EMax= 2.00D-15
 Solved reduced A of dimension   200 with    33 vectors.
 End of Minotr F.D. properties file   721 does not exist.
 End of Minotr F.D. properties file   722 does not exist.
 End of Minotr F.D. properties file   788 does not exist.
 Calling FoFJK, ICntrl=    100127 FMM=F ISym2X=0 I1Cent= 0 IOpClX= 0 NMat=1 NMatS=1 NMatT=0.
 -------------------------------------------------------------------
 Center     Atomic                   Forces (Hartrees/Bohr)
 Number     Number              X              Y              Z
 -------------------------------------------------------------------
      1        6          -0.018836522    0.027463009   -0.040971580
      2        6           0.005026724   -0.006700370   -0.016847894
      3        6           0.001191932   -0.000788531    0.002125899
      4        8          -0.006200485    0.000538848    0.016379878
      5        8           0.000284052   -0.000118241   -0.001268262
      6        8          -0.001249027   -0.000376713    0.000208313
      7        1           0.000003217   -0.000030542   -0.000145584
      8        1           0.001622151    0.001697882    0.019420513
      9        1           0.001222232   -0.000566916    0.002552198
     10        1           0.000139429   -0.000005628   -0.000081384
     11        1          -0.000495452   -0.000015484    0.000528172
     12        1           0.017291748   -0.021097312    0.018099731
 -------------------------------------------------------------------
 Cartesian Forces:  Max     0.040971580 RMS     0.011692872
 IRC-IRC-IRC-IRC-IRC-IRC-IRC-IRC-IRC-IRC-IRC-IRC-IRC-IRC-IRC-IRC-IRC-IRC
 Pt  2 Step number   1 out of a maximum of 100
 Modified Bulirsch-Stoer Extrapolation Cycles:
    EPS =    0.000010000000000
      PEZero:  N= 2 I= 1 D=  8.38D-04 Err=  5.33D-05
      PEZero:  N= 3 I= 2 D=  8.38D-04 Err=  3.54D-05
      PEZero:  N= 3 I= 1 D=  1.68D-03 Err=  9.53D-08
 Maximum DWI energy   std dev =  0.000031235 at pt    27
 Maximum DWI gradient std dev =  0.015717461 at pt    25
 CORRECTOR INTEGRATION CONVERGENCE:
   Recorrection delta-x convergence threshold:    0.010000
   Delta-x Convergence Met
 Point Number:   2          Path Number:   1
   CHANGE IN THE REACTION COORDINATE =    0.16074
   NET REACTION COORDINATE UP TO THIS POINT =    0.32154
  # OF POINTS ALONG THE PATH =   2
  # OF STEPS =   1

 Calculating another point on the path.
 IRC-IRC-IRC-IRC-IRC-IRC-IRC-IRC-IRC-IRC-IRC-IRC-IRC-IRC-IRC-IRC-IRC-IRC
                          Input orientation:                          
 ---------------------------------------------------------------------
 Center     Atomic      Atomic             Coordinates (Angstroms)
 Number     Number       Type             X           Y           Z
 ---------------------------------------------------------------------
      1          6           0        0.312592   -0.507654    0.238792
      2          6           0       -0.455117    0.704923    0.197983
      3          6           0       -1.855669    0.559906   -0.059654
      4          8           0        1.568852   -0.679449   -0.253670
      5          8           0        2.298836    0.574855   -0.100586
      6          8           0       -2.454343   -0.522101   -0.148614
      7          1           0        3.196822    0.208795    0.010455
      8          1           0        0.641513   -0.865743    1.759842
      9          1           0       -0.275386   -1.413826    0.073987
     10          1           0       -2.415020    1.509957   -0.178790
     11          1           0        0.035792    1.667760    0.262740
     12          1           0        0.177629   -0.176390    1.562363
 ---------------------------------------------------------------------
                    Distance matrix (angstroms):
                    1          2          3          4          5
     1  C    0.000000
     2  C    1.435752   0.000000
     3  C    2.435182   1.431417   0.000000
     4  O    1.360228   2.493376   3.647052   0.000000
     5  O    2.287394   2.773142   4.154734   1.459312   0.000000
     6  O    2.793961   2.371207   1.239784   4.027640   4.878353
     7  H    2.980641   3.690253   5.065162   1.873239   0.976068
     8  H    1.596875   2.471638   3.402787   2.224611   2.878061
     9  H    1.092715   2.129970   2.531950   2.011935   3.257599
    10  H    3.418332   2.152035   1.108901   4.546464   4.806347
    11  H    2.193084   1.082701   2.215605   2.850674   2.539255
    12  H    1.371055   1.743162   2.703216   2.342337   2.798086
                    6          7          8          9         10
     6  O    0.000000
     7  H    5.700454   0.000000
     8  H    3.653029   3.277895   0.000000
     9  H    2.364863   3.833166   1.995798   0.000000
    10  H    2.032663   5.763818   4.329507   3.631863   0.000000
    11  H    3.341479   3.490607   3.004472   3.103004   2.495261
    12  H    3.158202   3.416476   0.854046   1.987897   3.549254
                   11         12
    11  H    0.000000
    12  H    2.260537   0.000000
 Symmetry turned off by external request.
 Stoichiometry    C3H6O3
 Framework group  C1[X(C3H6O3)]
 Deg. of freedom    30
 Full point group                 C1      NOp   1
 Rotational constants (GHZ):          10.9445749           1.7405557           1.5804326
 Standard basis: 6-31+G(d) (6D, 7F)
   126 basis functions,   216 primitive gaussians,   126 cartesian basis functions
    24 alpha electrons       24 beta electrons
       nuclear repulsion energy       237.3544863674 Hartrees.
 NAtoms=   12 NActive=   12 NUniq=   12 SFac= 1.00D+00 NAtFMM=   60 NAOKFM=F Big=F
 Integral buffers will be    131072 words long.
 Raffenetti 2 integral format.
 Two-electron integral symmetry is turned off.
 One-electron integrals computed using PRISM.
 NBasis=   126 RedAO= T EigKep=  8.64D-05  NBF=   126
 NBsUse=   126 1.00D-06 EigRej= -1.00D+00 NBFU=   126
 Initial guess from the checkpoint file:  "/scratch/bell/zhao922/YARP/paper-example/KHP-network/pp_0/IRC-folder/Gau-36077.chk"
 B after Tr=     0.000762   -0.000760    0.001636
         Rot=    1.000000   -0.000074   -0.000044   -0.000015 Ang=  -0.01 deg.
 ExpMin= 4.38D-02 ExpMax= 5.48D+03 ExpMxC= 8.25D+02 IAcc=3 IRadAn=         5 AccDes= 0.00D+00
 Harris functional with IExCor=  402 and IRadAn=       5 diagonalized for initial guess.
 HarFok:  IExCor=  402 AccDes= 0.00D+00 IRadAn=         5 IDoV= 1 UseB2=F ITyADJ=14
 ICtDFT=  3500011 ScaDFX=  1.000000  1.000000  1.000000  1.000000
 FoFCou: FMM=F IPFlag=           0 FMFlag=      100000 FMFlg1=           0
         NFxFlg=           0 DoJE=T BraDBF=F KetDBF=T FulRan=T
         wScrn=  0.000000 ICntrl=       500 IOpCl=  0 I1Cent=   200000004 NGrid=           0
         NMat0=    1 NMatS0=      1 NMatT0=    0 NMatD0=    1 NMtDS0=    0 NMtDT0=    0
 Symmetry not used in FoFCou.
 Keep R1 ints in memory in canonical form, NReq=47237219.
 Requested convergence on RMS density matrix=1.00D-08 within 128 cycles.
 Requested convergence on MAX density matrix=1.00D-06.
 Requested convergence on             energy=1.00D-06.
 No special actions if energy rises.
 SCF Done:  E(RB3LYP) =  -343.350501400     A.U. after   13 cycles
            NFock= 13  Conv=0.29D-08     -V/T= 2.0090
 DoSCS=F DFT=T ScalE2(SS,OS)=  1.000000  1.000000
 Range of M.O.s used for correlation:     1   126
 NBasis=   126 NAE=    24 NBE=    24 NFC=     0 NFV=     0
 NROrb=    126 NOA=    24 NOB=    24 NVA=   102 NVB=   102

 **** Warning!!: The largest alpha MO coefficient is  0.31101673D+02

 Symmetrizing basis deriv contribution to polar:
 IMax=3 JMax=2 DiffMx= 0.00D+00
 G2DrvN: will do    13 centers at a time, making    1 passes.
 Calling FoFCou, ICntrl=  3107 FMM=F I1Cent=   0 AccDes= 0.00D+00.
 End of G2Drv F.D. properties file   721 does not exist.
 End of G2Drv F.D. properties file   722 does not exist.
 End of G2Drv F.D. properties file   788 does not exist.
          IDoAtm=111111111111
          Differentiating once with respect to nuclear coordinates.
 Keep R1 ints in memory in canonical form, NReq=47193241.
          There are    39 degrees of freedom in the 1st order CPHF.  IDoFFX=6 NUNeed=     0.
     33 vectors produced by pass  0 Test12= 6.28D-15 2.56D-09 XBig12= 1.96D-01 2.22D-01.
 AX will form    33 AO Fock derivatives at one time.
     33 vectors produced by pass  1 Test12= 6.28D-15 2.56D-09 XBig12= 5.68D-02 6.64D-02.
     33 vectors produced by pass  2 Test12= 6.28D-15 2.56D-09 XBig12= 1.44D-03 6.54D-03.
     33 vectors produced by pass  3 Test12= 6.28D-15 2.56D-09 XBig12= 9.79D-06 4.19D-04.
     33 vectors produced by pass  4 Test12= 6.28D-15 2.56D-09 XBig12= 2.12D-08 1.88D-05.
     29 vectors produced by pass  5 Test12= 6.28D-15 2.56D-09 XBig12= 2.60D-11 6.98D-07.
      6 vectors produced by pass  6 Test12= 6.28D-15 2.56D-09 XBig12= 2.57D-14 2.13D-08.
 InvSVY:  IOpt=1 It=  1 EMax= 2.22D-15
 Solved reduced A of dimension   200 with    33 vectors.
 End of Minotr F.D. properties file   721 does not exist.
 End of Minotr F.D. properties file   722 does not exist.
 End of Minotr F.D. properties file   788 does not exist.
 Calling FoFJK, ICntrl=    100127 FMM=F ISym2X=0 I1Cent= 0 IOpClX= 0 NMat=1 NMatS=1 NMatT=0.
 -------------------------------------------------------------------
 Center     Atomic                   Forces (Hartrees/Bohr)
 Number     Number              X              Y              Z
 -------------------------------------------------------------------
      1        6          -0.024747646    0.035234782   -0.057097348
      2        6           0.009194900   -0.010579180   -0.020103179
      3        6           0.000004178   -0.001781566    0.003090101
      4        8          -0.007942899    0.000891182    0.021400061
      5        8           0.000510406   -0.000120160   -0.001620399
      6        8          -0.001384207    0.000468884    0.000305432
      7        1           0.000003295   -0.000009650   -0.000204566
      8        1           0.003596486    0.000057885    0.026005688
      9        1           0.001851772   -0.000772469    0.003057379
     10        1           0.000143714   -0.000054493   -0.000192216
     11        1          -0.000718564   -0.000015035    0.000263431
     12        1           0.019488564   -0.023320181    0.025095618
 -------------------------------------------------------------------
 Cartesian Forces:  Max     0.057097348 RMS     0.015375906
 IRC-IRC-IRC-IRC-IRC-IRC-IRC-IRC-IRC-IRC-IRC-IRC-IRC-IRC-IRC-IRC-IRC-IRC
 Pt  3 Step number   1 out of a maximum of 100
 Modified Bulirsch-Stoer Extrapolation Cycles:
    EPS =    0.000010000000000
      PEZero:  N= 2 I= 1 D=  8.38D-04 Err=  6.12D-05
      PEZero:  N= 3 I= 2 D=  8.38D-04 Err=  4.07D-05
      PEZero:  N= 3 I= 1 D=  1.68D-03 Err=  1.42D-07
 Maximum DWI energy   std dev =  0.000033532 at pt    28
 Maximum DWI gradient std dev =  0.013080002 at pt    26
 CORRECTOR INTEGRATION CONVERGENCE:
   Recorrection delta-x convergence threshold:    0.010000
   Delta-x Convergence Met
 Point Number:   3          Path Number:   1
   CHANGE IN THE REACTION COORDINATE =    0.16071
   NET REACTION COORDINATE UP TO THIS POINT =    0.48225
  # OF POINTS ALONG THE PATH =   3
  # OF STEPS =   1

 Calculating another point on the path.
 IRC-IRC-IRC-IRC-IRC-IRC-IRC-IRC-IRC-IRC-IRC-IRC-IRC-IRC-IRC-IRC-IRC-IRC
                          Input orientation:                          
 ---------------------------------------------------------------------
 Center     Atomic      Atomic             Coordinates (Angstroms)
 Number     Number       Type             X           Y           Z
 ---------------------------------------------------------------------
      1          6           0        0.309202   -0.502870    0.230742
      2          6           0       -0.453673    0.703352    0.195358
      3          6           0       -1.855783    0.559605   -0.059205
      4          8           0        1.568038   -0.679341   -0.251458
      5          8           0        2.298895    0.574844   -0.100753
      6          8           0       -2.454473   -0.522000   -0.148581
      7          1           0        3.196834    0.208791    0.010114
      8          1           0        0.648216   -0.866874    1.802617
      9          1           0       -0.272185   -1.415131    0.078760
     10          1           0       -2.414811    1.509831   -0.179174
     11          1           0        0.034577    1.667738    0.262827
     12          1           0        0.207293   -0.211624    1.604243
 ---------------------------------------------------------------------
                    Distance matrix (angstroms):
                    1          2          3          4          5
     1  C    0.000000
     2  C    1.427657   0.000000
     3  C    2.429008   1.432262   0.000000
     4  O    1.359532   2.489739   3.646162   0.000000
     5  O    2.286970   2.771430   4.154913   1.459398   0.000000
     6  O    2.789651   2.371282   1.239471   4.026901   4.878510
     7  H    2.982207   3.688511   5.065256   1.873546   0.976003
     8  H    1.648703   2.502609   3.430923   2.258422   2.902776
     9  H    1.092396   2.129437   2.535034   2.009191   3.256175
    10  H    3.411634   2.153310   1.108979   4.545413   4.806181
    11  H    2.188147   1.083043   2.214751   2.850398   2.540422
    12  H    1.407734   1.805274   2.760096   2.348193   2.810755
                    6          7          8          9         10
     6  O    0.000000
     7  H    5.700571   0.000000
     8  H    3.681412   3.296298   0.000000
     9  H    2.368913   3.830917   2.029633   0.000000
    10  H    2.032448   5.763602   4.354119   3.634938   0.000000
    11  H    3.340596   3.491742   3.028492   3.103557   2.493953
    12  H    3.202143   3.413994   0.814321   2.001356   3.608242
                   11         12
    11  H    0.000000
    12  H    2.315433   0.000000
 Symmetry turned off by external request.
 Stoichiometry    C3H6O3
 Framework group  C1[X(C3H6O3)]
 Deg. of freedom    30
 Full point group                 C1      NOp   1
 Rotational constants (GHZ):          10.9119468           1.7395025           1.5810595
 Standard basis: 6-31+G(d) (6D, 7F)
   126 basis functions,   216 primitive gaussians,   126 cartesian basis functions
    24 alpha electrons       24 beta electrons
       nuclear repulsion energy       237.1980329535 Hartrees.
 NAtoms=   12 NActive=   12 NUniq=   12 SFac= 1.00D+00 NAtFMM=   60 NAOKFM=F Big=F
 Integral buffers will be    131072 words long.
 Raffenetti 2 integral format.
 Two-electron integral symmetry is turned off.
 One-electron integrals computed using PRISM.
 NBasis=   126 RedAO= T EigKep=  8.49D-05  NBF=   126
 NBsUse=   126 1.00D-06 EigRej= -1.00D+00 NBFU=   126
 Initial guess from the checkpoint file:  "/scratch/bell/zhao922/YARP/paper-example/KHP-network/pp_0/IRC-folder/Gau-36077.chk"
 B after Tr=     0.000749   -0.000736    0.001735
         Rot=    1.000000   -0.000027   -0.000039   -0.000017 Ang=  -0.01 deg.
 ExpMin= 4.38D-02 ExpMax= 5.48D+03 ExpMxC= 8.25D+02 IAcc=3 IRadAn=         5 AccDes= 0.00D+00
 Harris functional with IExCor=  402 and IRadAn=       5 diagonalized for initial guess.
 HarFok:  IExCor=  402 AccDes= 0.00D+00 IRadAn=         5 IDoV= 1 UseB2=F ITyADJ=14
 ICtDFT=  3500011 ScaDFX=  1.000000  1.000000  1.000000  1.000000
 FoFCou: FMM=F IPFlag=           0 FMFlag=      100000 FMFlg1=           0
         NFxFlg=           0 DoJE=T BraDBF=F KetDBF=T FulRan=T
         wScrn=  0.000000 ICntrl=       500 IOpCl=  0 I1Cent=   200000004 NGrid=           0
         NMat0=    1 NMatS0=      1 NMatT0=    0 NMatD0=    1 NMtDS0=    0 NMtDT0=    0
 Symmetry not used in FoFCou.
 Keep R1 ints in memory in canonical form, NReq=47237219.
 Requested convergence on RMS density matrix=1.00D-08 within 128 cycles.
 Requested convergence on MAX density matrix=1.00D-06.
 Requested convergence on             energy=1.00D-06.
 No special actions if energy rises.
 SCF Done:  E(RB3LYP) =  -343.359362550     A.U. after   13 cycles
            NFock= 13  Conv=0.32D-08     -V/T= 2.0089
 DoSCS=F DFT=T ScalE2(SS,OS)=  1.000000  1.000000
 Range of M.O.s used for correlation:     1   126
 NBasis=   126 NAE=    24 NBE=    24 NFC=     0 NFV=     0
 NROrb=    126 NOA=    24 NOB=    24 NVA=   102 NVB=   102

 **** Warning!!: The largest alpha MO coefficient is  0.33771811D+02

 Symmetrizing basis deriv contribution to polar:
 IMax=3 JMax=2 DiffMx= 0.00D+00
 G2DrvN: will do    13 centers at a time, making    1 passes.
 Calling FoFCou, ICntrl=  3107 FMM=F I1Cent=   0 AccDes= 0.00D+00.
 End of G2Drv F.D. properties file   721 does not exist.
 End of G2Drv F.D. properties file   722 does not exist.
 End of G2Drv F.D. properties file   788 does not exist.
          IDoAtm=111111111111
          Differentiating once with respect to nuclear coordinates.
 Keep R1 ints in memory in canonical form, NReq=47193241.
          There are    39 degrees of freedom in the 1st order CPHF.  IDoFFX=6 NUNeed=     0.
     33 vectors produced by pass  0 Test12= 6.28D-15 2.56D-09 XBig12= 1.89D-01 2.14D-01.
 AX will form    33 AO Fock derivatives at one time.
     33 vectors produced by pass  1 Test12= 6.28D-15 2.56D-09 XBig12= 5.63D-02 6.68D-02.
     33 vectors produced by pass  2 Test12= 6.28D-15 2.56D-09 XBig12= 1.45D-03 6.04D-03.
     33 vectors produced by pass  3 Test12= 6.28D-15 2.56D-09 XBig12= 1.03D-05 4.05D-04.
     33 vectors produced by pass  4 Test12= 6.28D-15 2.56D-09 XBig12= 2.31D-08 1.87D-05.
     29 vectors produced by pass  5 Test12= 6.28D-15 2.56D-09 XBig12= 2.77D-11 7.28D-07.
      5 vectors produced by pass  6 Test12= 6.28D-15 2.56D-09 XBig12= 2.78D-14 2.03D-08.
 InvSVY:  IOpt=1 It=  1 EMax= 1.78D-15
 Solved reduced A of dimension   199 with    33 vectors.
 End of Minotr F.D. properties file   721 does not exist.
 End of Minotr F.D. properties file   722 does not exist.
 End of Minotr F.D. properties file   788 does not exist.
 Calling FoFJK, ICntrl=    100127 FMM=F ISym2X=0 I1Cent= 0 IOpClX= 0 NMat=1 NMatS=1 NMatT=0.
 -------------------------------------------------------------------
 Center     Atomic                   Forces (Hartrees/Bohr)
 Number     Number              X              Y              Z
 -------------------------------------------------------------------
      1        6          -0.027698991    0.038646825   -0.067510460
      2        6           0.013149858   -0.013609040   -0.020463888
      3        6          -0.001819814   -0.002934184    0.003892290
      4        8          -0.008867269    0.001391334    0.024344574
      5        8           0.000713661   -0.000119014   -0.001856690
      6        8          -0.001295581    0.001663936    0.000378502
      7        1           0.000000494    0.000007036   -0.000243101
      8        1           0.006095809   -0.002987529    0.029943824
      9        1           0.002326879   -0.000852429    0.003154782
     10        1           0.000130928   -0.000114482   -0.000303581
     11        1          -0.000861645   -0.000027586   -0.000168730
     12        1           0.018125672   -0.021064865    0.028832477
 -------------------------------------------------------------------
 Cartesian Forces:  Max     0.067510460 RMS     0.017374604
 IRC-IRC-IRC-IRC-IRC-IRC-IRC-IRC-IRC-IRC-IRC-IRC-IRC-IRC-IRC-IRC-IRC-IRC
 Pt  4 Step number   1 out of a maximum of 100
 Modified Bulirsch-Stoer Extrapolation Cycles:
    EPS =    0.000010000000000
      PEZero:  N= 2 I= 1 D=  8.37D-04 Err=  6.61D-05
      PEZero:  N= 3 I= 2 D=  8.37D-04 Err=  4.40D-05
      PEZero:  N= 3 I= 1 D=  1.67D-03 Err=  2.10D-07
 Maximum DWI energy   std dev =  0.000025394 at pt    33
 Maximum DWI gradient std dev =  0.010646127 at pt    25
 CORRECTOR INTEGRATION CONVERGENCE:
   Recorrection delta-x convergence threshold:    0.010000
   Delta-x Convergence Met
 Point Number:   4          Path Number:   1
   CHANGE IN THE REACTION COORDINATE =    0.16068
   NET REACTION COORDINATE UP TO THIS POINT =    0.64293
  # OF POINTS ALONG THE PATH =   4
  # OF STEPS =   1

 Calculating another point on the path.
 IRC-IRC-IRC-IRC-IRC-IRC-IRC-IRC-IRC-IRC-IRC-IRC-IRC-IRC-IRC-IRC-IRC-IRC
                          Input orientation:                          
 ---------------------------------------------------------------------
 Center     Atomic      Atomic             Coordinates (Angstroms)
 Number     Number       Type             X           Y           Z
 ---------------------------------------------------------------------
      1          6           0        0.305723   -0.498051    0.222028
      2          6           0       -0.451844    0.701538    0.192900
      3          6           0       -1.856128    0.559175   -0.058682
      4          8           0        1.567196   -0.679184   -0.249123
      5          8           0        2.298968    0.574833   -0.100934
      6          8           0       -2.454586   -0.521789   -0.148543
      7          1           0        3.196837    0.208802    0.009744
      8          1           0        0.658200   -0.872582    1.847857
      9          1           0       -0.268547   -1.416416    0.083303
     10          1           0       -2.414634    1.509622   -0.179688
     11          1           0        0.033267    1.667688    0.262228
     12          1           0        0.232553   -0.240718    1.647951
 ---------------------------------------------------------------------
                    Distance matrix (angstroms):
                    1          2          3          4          5
     1  C    0.000000
     2  C    1.419074   0.000000
     3  C    2.422834   1.433727   0.000000
     4  O    1.358714   2.485619   3.645400   0.000000
     5  O    2.286571   2.769361   4.155340   1.459455   0.000000
     6  O    2.785174   2.371515   1.238834   4.026116   4.878639
     7  H    2.983830   3.686355   5.065560   1.873836   0.975909
     8  H    1.705238   2.539476   3.465063   2.293687   2.930003
     9  H    1.091982   2.128694   2.538411   2.005983   3.254404
    10  H    3.404771   2.155078   1.109018   4.544299   4.806045
    11  H    2.183179   1.083321   2.213956   2.849951   2.541577
    12  H    1.450804   1.863712   2.813364   2.360596   2.827330
                    6          7          8          9         10
     6  O    0.000000
     7  H    5.700649   0.000000
     8  H    3.714580   3.315529   0.000000
     9  H    2.373368   3.828267   2.065978   0.000000
    10  H    2.032042   5.763386   4.384991   3.638207   0.000000
    11  H    3.339454   3.492888   3.059041   3.103998   2.492488
    12  H    3.244551   3.416544   0.787648   2.020270   3.662179
                   11         12
    11  H    0.000000
    12  H    2.366845   0.000000
 Symmetry turned off by external request.
 Stoichiometry    C3H6O3
 Framework group  C1[X(C3H6O3)]
 Deg. of freedom    30
 Full point group                 C1      NOp   1
 Rotational constants (GHZ):          10.8751191           1.7382837           1.5816512
 Standard basis: 6-31+G(d) (6D, 7F)
   126 basis functions,   216 primitive gaussians,   126 cartesian basis functions
    24 alpha electrons       24 beta electrons
       nuclear repulsion energy       237.0331203682 Hartrees.
 NAtoms=   12 NActive=   12 NUniq=   12 SFac= 1.00D+00 NAtFMM=   60 NAOKFM=F Big=F
 Integral buffers will be    131072 words long.
 Raffenetti 2 integral format.
 Two-electron integral symmetry is turned off.
 One-electron integrals computed using PRISM.
 NBasis=   126 RedAO= T EigKep=  8.33D-05  NBF=   126
 NBsUse=   126 1.00D-06 EigRej= -1.00D+00 NBFU=   126
 Initial guess from the checkpoint file:  "/scratch/bell/zhao922/YARP/paper-example/KHP-network/pp_0/IRC-folder/Gau-36077.chk"
 B after Tr=     0.000733   -0.000713    0.001800
         Rot=    1.000000    0.000015   -0.000033   -0.000019 Ang=   0.00 deg.
 ExpMin= 4.38D-02 ExpMax= 5.48D+03 ExpMxC= 8.25D+02 IAcc=3 IRadAn=         5 AccDes= 0.00D+00
 Harris functional with IExCor=  402 and IRadAn=       5 diagonalized for initial guess.
 HarFok:  IExCor=  402 AccDes= 0.00D+00 IRadAn=         5 IDoV= 1 UseB2=F ITyADJ=14
 ICtDFT=  3500011 ScaDFX=  1.000000  1.000000  1.000000  1.000000
 FoFCou: FMM=F IPFlag=           0 FMFlag=      100000 FMFlg1=           0
         NFxFlg=           0 DoJE=T BraDBF=F KetDBF=T FulRan=T
         wScrn=  0.000000 ICntrl=       500 IOpCl=  0 I1Cent=   200000004 NGrid=           0
         NMat0=    1 NMatS0=      1 NMatT0=    0 NMatD0=    1 NMtDS0=    0 NMtDT0=    0
 Symmetry not used in FoFCou.
 Keep R1 ints in memory in canonical form, NReq=47237219.
 Requested convergence on RMS density matrix=1.00D-08 within 128 cycles.
 Requested convergence on MAX density matrix=1.00D-06.
 Requested convergence on             energy=1.00D-06.
 No special actions if energy rises.
 SCF Done:  E(RB3LYP) =  -343.368569254     A.U. after   13 cycles
            NFock= 13  Conv=0.27D-08     -V/T= 2.0089
 DoSCS=F DFT=T ScalE2(SS,OS)=  1.000000  1.000000
 Range of M.O.s used for correlation:     1   126
 NBasis=   126 NAE=    24 NBE=    24 NFC=     0 NFV=     0
 NROrb=    126 NOA=    24 NOB=    24 NVA=   102 NVB=   102

 **** Warning!!: The largest alpha MO coefficient is  0.36340246D+02

 Symmetrizing basis deriv contribution to polar:
 IMax=3 JMax=2 DiffMx= 0.00D+00
 G2DrvN: will do    13 centers at a time, making    1 passes.
 Calling FoFCou, ICntrl=  3107 FMM=F I1Cent=   0 AccDes= 0.00D+00.
 End of G2Drv F.D. properties file   721 does not exist.
 End of G2Drv F.D. properties file   722 does not exist.
 End of G2Drv F.D. properties file   788 does not exist.
          IDoAtm=111111111111
          Differentiating once with respect to nuclear coordinates.
 Keep R1 ints in memory in canonical form, NReq=47193241.
          There are    39 degrees of freedom in the 1st order CPHF.  IDoFFX=6 NUNeed=     0.
     33 vectors produced by pass  0 Test12= 6.28D-15 2.56D-09 XBig12= 1.82D-01 2.04D-01.
 AX will form    33 AO Fock derivatives at one time.
     33 vectors produced by pass  1 Test12= 6.28D-15 2.56D-09 XBig12= 5.54D-02 6.66D-02.
     33 vectors produced by pass  2 Test12= 6.28D-15 2.56D-09 XBig12= 1.42D-03 5.78D-03.
     33 vectors produced by pass  3 Test12= 6.28D-15 2.56D-09 XBig12= 9.16D-06 3.37D-04.
     33 vectors produced by pass  4 Test12= 6.28D-15 2.56D-09 XBig12= 1.94D-08 1.66D-05.
     29 vectors produced by pass  5 Test12= 6.28D-15 2.56D-09 XBig12= 2.28D-11 5.98D-07.
      6 vectors produced by pass  6 Test12= 6.28D-15 2.56D-09 XBig12= 2.26D-14 1.73D-08.
 InvSVY:  IOpt=1 It=  1 EMax= 2.22D-15
 Solved reduced A of dimension   200 with    33 vectors.
 End of Minotr F.D. properties file   721 does not exist.
 End of Minotr F.D. properties file   722 does not exist.
 End of Minotr F.D. properties file   788 does not exist.
 Calling FoFJK, ICntrl=    100127 FMM=F ISym2X=0 I1Cent= 0 IOpClX= 0 NMat=1 NMatS=1 NMatT=0.
 -------------------------------------------------------------------
 Center     Atomic                   Forces (Hartrees/Bohr)
 Number     Number              X              Y              Z
 -------------------------------------------------------------------
      1        6          -0.028199904    0.038688169   -0.072539558
      2        6           0.016082549   -0.015337835   -0.019119730
      3        6          -0.003667926   -0.003978191    0.004522385
      4        8          -0.009186421    0.001998298    0.025820263
      5        8           0.000865899   -0.000110923   -0.002039481
      6        8          -0.001155914    0.002839230    0.000426494
      7        1          -0.000001044    0.000006265   -0.000259885
      8        1           0.007976678   -0.005599630    0.031398046
      9        1           0.002581063   -0.000825340    0.002992842
     10        1           0.000111731   -0.000165857   -0.000380690
     11        1          -0.000898608   -0.000056833   -0.000646546
     12        1           0.015491897   -0.017457355    0.029825860
 -------------------------------------------------------------------
 Cartesian Forces:  Max     0.072539558 RMS     0.018078304
 IRC-IRC-IRC-IRC-IRC-IRC-IRC-IRC-IRC-IRC-IRC-IRC-IRC-IRC-IRC-IRC-IRC-IRC
 Pt  5 Step number   1 out of a maximum of 100
 Modified Bulirsch-Stoer Extrapolation Cycles:
    EPS =    0.000010000000000
      PEZero:  N= 2 I= 1 D=  8.37D-04 Err=  5.46D-05
      PEZero:  N= 3 I= 2 D=  8.37D-04 Err=  3.63D-05
      PEZero:  N= 3 I= 1 D=  1.67D-03 Err=  1.92D-07
 Maximum DWI energy   std dev =  0.000015880 at pt    45
 Maximum DWI gradient std dev =  0.007263159 at pt    25
 CORRECTOR INTEGRATION CONVERGENCE:
   Recorrection delta-x convergence threshold:    0.010000
   Delta-x Convergence Met
 Point Number:   5          Path Number:   1
   CHANGE IN THE REACTION COORDINATE =    0.16071
   NET REACTION COORDINATE UP TO THIS POINT =    0.80364
  # OF POINTS ALONG THE PATH =   5
  # OF STEPS =   1

 Calculating another point on the path.
 IRC-IRC-IRC-IRC-IRC-IRC-IRC-IRC-IRC-IRC-IRC-IRC-IRC-IRC-IRC-IRC-IRC-IRC
                          Input orientation:                          
 ---------------------------------------------------------------------
 Center     Atomic      Atomic             Coordinates (Angstroms)
 Number     Number       Type             X           Y           Z
 ---------------------------------------------------------------------
      1          6           0        0.302239   -0.493301    0.212807
      2          6           0       -0.449700    0.699562    0.190626
      3          6           0       -1.856690    0.558622   -0.058081
      4          8           0        1.566332   -0.678965   -0.246657
      5          8           0        2.299054    0.574823   -0.101134
      6          8           0       -2.454690   -0.521474   -0.148502
      7          1           0        3.196835    0.208800    0.009353
      8          1           0        0.670486   -0.881550    1.894517
      9          1           0       -0.264634   -1.417622    0.087557
     10          1           0       -2.414485    1.509347   -0.180289
     11          1           0        0.031960    1.667587    0.260914
     12          1           0        0.254152   -0.264913    1.692428
 ---------------------------------------------------------------------
                    Distance matrix (angstroms):
                    1          2          3          4          5
     1  C    0.000000
     2  C    1.410257   0.000000
     3  C    2.416795   1.435737   0.000000
     4  O    1.357759   2.481116   3.644758   0.000000
     5  O    2.286203   2.767008   4.155999   1.459468   0.000000
     6  O    2.780646   2.371903   1.237896   4.025302   4.878750
     7  H    2.985469   3.683873   5.066068   1.874089   0.975803
     8  H    1.764793   2.580306   3.503336   2.329851   2.959034
     9  H    1.091513   2.127754   2.541928   2.002435   3.252374
    10  H    3.397898   2.157246   1.109029   4.543128   4.805939
    11  H    2.178256   1.083517   2.213269   2.849251   2.542622
    12  H    1.497916   1.918601   2.863241   2.377668   2.846691
                    6          7          8          9         10
     6  O    0.000000
     7  H    5.700698   0.000000
     8  H    3.751041   3.335438   0.000000
     9  H    2.378057   3.825327   2.104027   0.000000
    10  H    2.031467   5.763185   4.420210   3.641531   0.000000
    11  H    3.338119   3.493963   3.094265   3.104276   2.490942
    12  H    3.285221   3.422941   0.770983   2.042912   3.711697
                   11         12
    11  H    0.000000
    12  H    2.415193   0.000000
 Symmetry turned off by external request.
 Stoichiometry    C3H6O3
 Framework group  C1[X(C3H6O3)]
 Deg. of freedom    30
 Full point group                 C1      NOp   1
 Rotational constants (GHZ):          10.8354448           1.7369293           1.5822061
 Standard basis: 6-31+G(d) (6D, 7F)
   126 basis functions,   216 primitive gaussians,   126 cartesian basis functions
    24 alpha electrons       24 beta electrons
       nuclear repulsion energy       236.8690057452 Hartrees.
 NAtoms=   12 NActive=   12 NUniq=   12 SFac= 1.00D+00 NAtFMM=   60 NAOKFM=F Big=F
 Integral buffers will be    131072 words long.
 Raffenetti 2 integral format.
 Two-electron integral symmetry is turned off.
 One-electron integrals computed using PRISM.
 NBasis=   126 RedAO= T EigKep=  8.15D-05  NBF=   126
 NBsUse=   126 1.00D-06 EigRej= -1.00D+00 NBFU=   126
 Initial guess from the checkpoint file:  "/scratch/bell/zhao922/YARP/paper-example/KHP-network/pp_0/IRC-folder/Gau-36077.chk"
 B after Tr=     0.000712   -0.000687    0.001822
         Rot=    1.000000    0.000051   -0.000029   -0.000020 Ang=   0.01 deg.
 ExpMin= 4.38D-02 ExpMax= 5.48D+03 ExpMxC= 8.25D+02 IAcc=3 IRadAn=         5 AccDes= 0.00D+00
 Harris functional with IExCor=  402 and IRadAn=       5 diagonalized for initial guess.
 HarFok:  IExCor=  402 AccDes= 0.00D+00 IRadAn=         5 IDoV= 1 UseB2=F ITyADJ=14
 ICtDFT=  3500011 ScaDFX=  1.000000  1.000000  1.000000  1.000000
 FoFCou: FMM=F IPFlag=           0 FMFlag=      100000 FMFlg1=           0
         NFxFlg=           0 DoJE=T BraDBF=F KetDBF=T FulRan=T
         wScrn=  0.000000 ICntrl=       500 IOpCl=  0 I1Cent=   200000004 NGrid=           0
         NMat0=    1 NMatS0=      1 NMatT0=    0 NMatD0=    1 NMtDS0=    0 NMtDT0=    0
 Symmetry not used in FoFCou.
 Keep R1 ints in memory in canonical form, NReq=47237219.
 Requested convergence on RMS density matrix=1.00D-08 within 128 cycles.
 Requested convergence on MAX density matrix=1.00D-06.
 Requested convergence on             energy=1.00D-06.
 No special actions if energy rises.
 SCF Done:  E(RB3LYP) =  -343.377641433     A.U. after   12 cycles
            NFock= 12  Conv=0.10D-07     -V/T= 2.0089
 DoSCS=F DFT=T ScalE2(SS,OS)=  1.000000  1.000000
 Range of M.O.s used for correlation:     1   126
 NBasis=   126 NAE=    24 NBE=    24 NFC=     0 NFV=     0
 NROrb=    126 NOA=    24 NOB=    24 NVA=   102 NVB=   102

 **** Warning!!: The largest alpha MO coefficient is  0.38586934D+02

 Symmetrizing basis deriv contribution to polar:
 IMax=3 JMax=2 DiffMx= 0.00D+00
 G2DrvN: will do    13 centers at a time, making    1 passes.
 Calling FoFCou, ICntrl=  3107 FMM=F I1Cent=   0 AccDes= 0.00D+00.
 End of G2Drv F.D. properties file   721 does not exist.
 End of G2Drv F.D. properties file   722 does not exist.
 End of G2Drv F.D. properties file   788 does not exist.
          IDoAtm=111111111111
          Differentiating once with respect to nuclear coordinates.
 Keep R1 ints in memory in canonical form, NReq=47193241.
          There are    39 degrees of freedom in the 1st order CPHF.  IDoFFX=6 NUNeed=     0.
     33 vectors produced by pass  0 Test12= 6.28D-15 2.56D-09 XBig12= 1.76D-01 1.95D-01.
 AX will form    33 AO Fock derivatives at one time.
     33 vectors produced by pass  1 Test12= 6.28D-15 2.56D-09 XBig12= 5.46D-02 6.63D-02.
     33 vectors produced by pass  2 Test12= 6.28D-15 2.56D-09 XBig12= 1.37D-03 5.95D-03.
     33 vectors produced by pass  3 Test12= 6.28D-15 2.56D-09 XBig12= 7.84D-06 3.74D-04.
     33 vectors produced by pass  4 Test12= 6.28D-15 2.56D-09 XBig12= 1.52D-08 1.51D-05.
     29 vectors produced by pass  5 Test12= 6.28D-15 2.56D-09 XBig12= 1.77D-11 5.53D-07.
      6 vectors produced by pass  6 Test12= 6.28D-15 2.56D-09 XBig12= 1.69D-14 1.58D-08.
 InvSVY:  IOpt=1 It=  1 EMax= 2.22D-15
 Solved reduced A of dimension   200 with    33 vectors.
 End of Minotr F.D. properties file   721 does not exist.
 End of Minotr F.D. properties file   722 does not exist.
 End of Minotr F.D. properties file   788 does not exist.
 Calling FoFJK, ICntrl=    100127 FMM=F ISym2X=0 I1Cent= 0 IOpClX= 0 NMat=1 NMatS=1 NMatT=0.
 -------------------------------------------------------------------
 Center     Atomic                   Forces (Hartrees/Bohr)
 Number     Number              X              Y              Z
 -------------------------------------------------------------------
      1        6          -0.027033490    0.036503865   -0.073684929
      2        6           0.017699959   -0.015780675   -0.017066529
      3        6          -0.005130942   -0.004734854    0.005009201
      4        8          -0.009072330    0.002617263    0.026388152
      5        8           0.000974694   -0.000080017   -0.002194778
      6        8          -0.001097854    0.003749314    0.000454255
      7        1          -0.000001601   -0.000010930   -0.000261921
      8        1           0.008770937   -0.006905319    0.030954961
      9        1           0.002623721   -0.000731851    0.002684110
     10        1           0.000088180   -0.000198229   -0.000408851
     11        1          -0.000834040   -0.000092137   -0.001103246
     12        1           0.013012766   -0.014336428    0.029229573
 -------------------------------------------------------------------
 Cartesian Forces:  Max     0.073684929 RMS     0.017916357
 IRC-IRC-IRC-IRC-IRC-IRC-IRC-IRC-IRC-IRC-IRC-IRC-IRC-IRC-IRC-IRC-IRC-IRC
 Pt  6 Step number   1 out of a maximum of 100
 Modified Bulirsch-Stoer Extrapolation Cycles:
    EPS =    0.000010000000000
      PEZero:  N= 2 I= 1 D=  8.38D-04 Err=  3.71D-05
      PEZero:  N= 3 I= 2 D=  8.38D-04 Err=  2.47D-05
      PEZero:  N= 3 I= 1 D=  1.68D-03 Err=  1.25D-07
 Maximum DWI energy   std dev =  0.000008933 at pt    34
 Maximum DWI gradient std dev =  0.004784980 at pt    47
 CORRECTOR INTEGRATION CONVERGENCE:
   Recorrection delta-x convergence threshold:    0.010000
   Delta-x Convergence Met
 Point Number:   6          Path Number:   1
   CHANGE IN THE REACTION COORDINATE =    0.16077
   NET REACTION COORDINATE UP TO THIS POINT =    0.96441
  # OF POINTS ALONG THE PATH =   6
  # OF STEPS =   1

 Calculating another point on the path.
 IRC-IRC-IRC-IRC-IRC-IRC-IRC-IRC-IRC-IRC-IRC-IRC-IRC-IRC-IRC-IRC-IRC-IRC
                          Input orientation:                          
 ---------------------------------------------------------------------
 Center     Atomic      Atomic             Coordinates (Angstroms)
 Number     Number       Type             X           Y           Z
 ---------------------------------------------------------------------
      1          6           0        0.298815   -0.488711    0.203174
      2          6           0       -0.447324    0.697506    0.188528
      3          6           0       -1.857437    0.557967   -0.057396
      4          8           0        1.565455   -0.678678   -0.244046
      5          8           0        2.299155    0.574818   -0.101358
      6          8           0       -2.454801   -0.521071   -0.148456
      7          1           0        3.196831    0.208762    0.008947
      8          1           0        0.684005   -0.892260    1.941725
      9          1           0       -0.260606   -1.418709    0.091461
     10          1           0       -2.414369    1.509022   -0.180924
     11          1           0        0.030758    1.667427    0.258855
     12          1           0        0.273153   -0.285829    1.737324
 ---------------------------------------------------------------------
                    Distance matrix (angstroms):
                    1          2          3          4          5
     1  C    0.000000
     2  C    1.401445   0.000000
     3  C    2.410986   1.438182   0.000000
     4  O    1.356639   2.476344   3.644217   0.000000
     5  O    2.285868   2.764459   4.156858   1.459428   0.000000
     6  O    2.776164   2.372436   1.236713   4.024479   4.878861
     7  H    2.987087   3.681167   5.066752   1.874285   0.975699
     8  H    1.825865   2.623159   3.543807   2.366467   2.989182
     9  H    1.091021   2.126652   2.545442   1.998676   3.250185
    10  H    3.391141   2.159703   1.109026   4.541917   4.805869
    11  H    2.173451   1.083631   2.212735   2.848230   2.543457
    12  H    1.547720   1.970991   2.910743   2.397958   2.868126
                    6          7          8          9         10
     6  O    0.000000
     7  H    5.700735   0.000000
     8  H    3.789293   3.355916   0.000000
     9  H    2.382814   3.822217   2.143109   0.000000
    10  H    2.030756   5.763011   4.457770   3.644791   0.000000
    11  H    3.336679   3.494879   3.132217   3.104376   2.489406
    12  H    3.324640   3.432172   0.760485   2.068134   3.758183
                   11         12
    11  H    0.000000
    12  H    2.461674   0.000000
 Symmetry turned off by external request.
 Stoichiometry    C3H6O3
 Framework group  C1[X(C3H6O3)]
 Deg. of freedom    30
 Full point group                 C1      NOp   1
 Rotational constants (GHZ):          10.7936871           1.7354575           1.5827192
 Standard basis: 6-31+G(d) (6D, 7F)
   126 basis functions,   216 primitive gaussians,   126 cartesian basis functions
    24 alpha electrons       24 beta electrons
       nuclear repulsion energy       236.7115346654 Hartrees.
 NAtoms=   12 NActive=   12 NUniq=   12 SFac= 1.00D+00 NAtFMM=   60 NAOKFM=F Big=F
 Integral buffers will be    131072 words long.
 Raffenetti 2 integral format.
 Two-electron integral symmetry is turned off.
 One-electron integrals computed using PRISM.
 NBasis=   126 RedAO= T EigKep=  7.97D-05  NBF=   126
 NBsUse=   126 1.00D-06 EigRej= -1.00D+00 NBFU=   126
 Initial guess from the checkpoint file:  "/scratch/bell/zhao922/YARP/paper-example/KHP-network/pp_0/IRC-folder/Gau-36077.chk"
 B after Tr=     0.000689   -0.000662    0.001819
         Rot=    1.000000    0.000079   -0.000025   -0.000019 Ang=   0.01 deg.
 ExpMin= 4.38D-02 ExpMax= 5.48D+03 ExpMxC= 8.25D+02 IAcc=3 IRadAn=         5 AccDes= 0.00D+00
 Harris functional with IExCor=  402 and IRadAn=       5 diagonalized for initial guess.
 HarFok:  IExCor=  402 AccDes= 0.00D+00 IRadAn=         5 IDoV= 1 UseB2=F ITyADJ=14
 ICtDFT=  3500011 ScaDFX=  1.000000  1.000000  1.000000  1.000000
 FoFCou: FMM=F IPFlag=           0 FMFlag=      100000 FMFlg1=           0
         NFxFlg=           0 DoJE=T BraDBF=F KetDBF=T FulRan=T
         wScrn=  0.000000 ICntrl=       500 IOpCl=  0 I1Cent=   200000004 NGrid=           0
         NMat0=    1 NMatS0=      1 NMatT0=    0 NMatD0=    1 NMtDS0=    0 NMtDT0=    0
 Symmetry not used in FoFCou.
 Keep R1 ints in memory in canonical form, NReq=47237219.
 Requested convergence on RMS density matrix=1.00D-08 within 128 cycles.
 Requested convergence on MAX density matrix=1.00D-06.
 Requested convergence on             energy=1.00D-06.
 No special actions if energy rises.
 SCF Done:  E(RB3LYP) =  -343.386304109     A.U. after   12 cycles
            NFock= 12  Conv=0.67D-08     -V/T= 2.0089
 DoSCS=F DFT=T ScalE2(SS,OS)=  1.000000  1.000000
 Range of M.O.s used for correlation:     1   126
 NBasis=   126 NAE=    24 NBE=    24 NFC=     0 NFV=     0
 NROrb=    126 NOA=    24 NOB=    24 NVA=   102 NVB=   102

 **** Warning!!: The largest alpha MO coefficient is  0.40469755D+02

 Symmetrizing basis deriv contribution to polar:
 IMax=3 JMax=2 DiffMx= 0.00D+00
[...]
  10                    1.49145  -0.19688   0.02988   1.34027  -0.46413
  11                    1.49450  -0.21329   0.03812   1.34776  -0.44535
  12                    1.49664  -0.22794   0.04465   1.35791  -0.42548
  13                    1.49798  -0.24064   0.04950   1.37045  -0.40467
  14                    1.49875  -0.25127   0.05292   1.38517  -0.38276
  15                    1.49919  -0.25944   0.05527   1.40206  -0.35935
  16                    1.49957  -0.26430   0.05691   1.42126  -0.33386
  17                    1.50009  -0.26477   0.05818   1.44282  -0.30566
  18                    1.50091  -0.26004   0.05934   1.46653  -0.27436
  19                    1.50200  -0.25042   0.06042   1.49179  -0.23995
  20                    1.50319  -0.23752   0.06128   1.51777  -0.20274
  21                    1.50429  -0.22369   0.06165   1.54359  -0.16322
  22                    1.50517  -0.21105   0.06134   1.56842  -0.12199
  23                    1.50576  -0.20091   0.06027   1.59142  -0.07985
  24                    1.50609  -0.19370   0.05853   1.61182  -0.03793
  25                    1.50623  -0.18913   0.05635   1.62903   0.00252
  26                    1.50628  -0.18656   0.05401   1.64280   0.04032
  27                    1.50631  -0.18526   0.05174   1.65327   0.07475
  28                    1.50638  -0.18465   0.04971   1.66082   0.10550
  29                    1.50652  -0.18431   0.04795   1.66593   0.13260
  30                    1.50674  -0.18400   0.04648   1.66913   0.15622
  31                    1.50701  -0.18360   0.04525   1.67086   0.17656
  32                    1.50734  -0.18308   0.04422   1.67156   0.19376
  33                    1.50768  -0.18247   0.04337   1.67159   0.20801
  34                    1.50802  -0.18182   0.04264   1.67125   0.21961
  35                    1.50835  -0.18117   0.04201   1.67074   0.22902
  36                    1.50867  -0.18056   0.04143   1.67017   0.23670
  37                    1.50896  -0.17999   0.04089   1.66961   0.24300
  38                    1.50923  -0.17950   0.04035   1.66910   0.24819
  39                    1.50947  -0.17909   0.03979   1.66866   0.25243
  40                    1.50968  -0.17877   0.03919   1.66830   0.25582
  41                    1.50983  -0.17859   0.03851   1.66805   0.25837
  42                    1.50995  -0.17851   0.03774   1.66788   0.26053
  43                    1.50999  -0.17858   0.03683   1.66780   0.26194
  44                    1.50995  -0.17881   0.03577   1.66776   0.26270
  45                    1.50982  -0.17918   0.03457   1.66774   0.26280
  46                    1.50962  -0.17969   0.03326   1.66768   0.26221
  47                    1.50935  -0.18029   0.03196   1.66758   0.26090
  48                    1.50902  -0.18092   0.03076   1.66742   0.25885
  49                    1.50867  -0.18153   0.02976   1.66721   0.25601
  50                    1.50830  -0.18203   0.02905   1.66694   0.25236
  51                    1.50792  -0.18235   0.02871   1.66665   0.24787
  52                    1.50756  -0.18238   0.02878   1.66634   0.24254
  53                    1.50722  -0.18200   0.02929   1.66602   0.23641
  54                    1.50692  -0.18105   0.03022   1.66572   0.22957
  55                    1.50667  -0.17938   0.03150   1.66542   0.22218
  56                    1.50651  -0.17678   0.03304   1.66512   0.21447
  57                    1.50645  -0.17305   0.03471   1.66479   0.20675
  58                    1.50652  -0.16801   0.03637   1.66439   0.19938
  59                    1.50675  -0.16145   0.03792   1.66391   0.19274
  60                    1.50714  -0.15325   0.03925   1.66329   0.18718
  61                    1.50770  -0.14331   0.04034   1.66252   0.18295
  62                    1.50843  -0.13160   0.04117   1.66156   0.18012
  63                    1.50931  -0.11817   0.04179   1.66035   0.17857
  64                    1.51030  -0.10310   0.04227   1.65887   0.17799
  65                    1.51135  -0.08652   0.04268   1.65709   0.17792
  66                    1.51245  -0.06858   0.04311   1.65497   0.17784
  67                    1.51354  -0.04946   0.04361   1.65251   0.17724
  68                    1.51462  -0.02940   0.04425   1.64973   0.17571
  69                    1.51566  -0.00865   0.04506   1.64663   0.17293
  70                    1.51668   0.01244   0.04605   1.64323   0.16872
  71                    1.51770   0.03344   0.04724   1.63956   0.16305
  72                    1.51875   0.05383   0.04862   1.63563   0.15597
  73                    1.51990   0.07300   0.05017   1.63146   0.14770
  74                    1.52121   0.09028   0.05190   1.62708   0.13852
  75                    1.52279   0.10494   0.05377   1.62252   0.12884
  76                    1.52471   0.11630   0.05576   1.61783   0.11914
  77                    1.52700   0.12381   0.05781   1.61312   0.10987
  78                    1.52962   0.12721   0.05985   1.60856   0.10144
  79                    1.53244   0.12667   0.06175   1.60438   0.09405
  80                    1.53523   0.12286   0.06339   1.60084   0.08770
  81                    1.53777   0.11678   0.06464   1.59816   0.08223
                          X12       Y12       Z12
   1                   -0.31958   1.39681   1.08708
   2                   -0.32887   1.38809   1.10555
   3                   -0.33772   1.37805   1.12389
   4                   -0.34583   1.36670   1.14167
   5                   -0.35291   1.35429   1.15837
   6                   -0.35889   1.34120   1.17368
   7                   -0.36390   1.32775   1.18766
   8                   -0.36832   1.31398   1.20073
   9                   -0.37271   1.29971   1.21357
  10                   -0.37778   1.28472   1.22689
  11                   -0.38410   1.26902   1.24107
  12                   -0.39188   1.25289   1.25595
  13                   -0.40116   1.23643   1.27124
  14                   -0.41203   1.21937   1.28675
  15                   -0.42485   1.20109   1.30237
  16                   -0.44014   1.18074   1.31793
  17                   -0.45840   1.15730   1.33303
  18                   -0.47965   1.12989   1.34705
  19                   -0.50303   1.09809   1.35926
  20                   -0.52678   1.06199   1.36908
  21                   -0.54854   1.02201   1.37632
  22                   -0.56581   0.97857   1.38114
  23                   -0.57621   0.93200   1.38396
  24                   -0.57790   0.88261   1.38515
  25                   -0.56998   0.83081   1.38483
  26                   -0.55269   0.77718   1.38280
  27                   -0.52714   0.72235   1.37867
  28                   -0.49484   0.66684   1.37220
  29                   -0.45735   0.61103   1.36355
  30                   -0.41600   0.55507   1.35363
  31                   -0.37194   0.49899   1.34419
  32                   -0.32626   0.44284   1.33763
  33                   -0.28001   0.38683   1.33602
  34                   -0.23401   0.33124   1.34002
  35                   -0.18865   0.27619   1.34895
  36                   -0.14403   0.22169   1.36160
  37                   -0.10012   0.16771   1.37696
  38                   -0.05689   0.11428   1.39451
  39                   -0.01442   0.06152   1.41417
  40                    0.02715   0.00971   1.43632
  41                    0.06737  -0.04045   1.46227
  42                    0.10664  -0.08926   1.49092
  43                    0.14351  -0.13476   1.52462
  44                    0.17725  -0.17579   1.56278
  45                    0.20694  -0.21107   1.60438
  46                    0.23229  -0.24031   1.64794
  47                    0.25399  -0.26465   1.69238
  48                    0.27305  -0.28566   1.73728
  49                    0.29026  -0.30447   1.78253
  50                    0.30611  -0.32179   1.82813
  51                    0.32088  -0.33800   1.87403
  52                    0.33478  -0.35337   1.92020
  53                    0.34796  -0.36810   1.96656
  54                    0.36050  -0.38233   2.01299
  55                    0.37250  -0.39616   2.05940
  56                    0.38400  -0.40970   2.10563
  57                    0.39506  -0.42300   2.15154
  58                    0.40570  -0.43612   2.19697
  59                    0.41595  -0.44909   2.24173
  60                    0.42582  -0.46193   2.28565
  61                    0.43531  -0.47463   2.32854
  62                    0.44442  -0.48718   2.37025
  63                    0.45314  -0.49956   2.41066
  64                    0.46149  -0.51178   2.44975
  65                    0.46949  -0.52383   2.48755
  66                    0.47716  -0.53572   2.52414
  67                    0.48456  -0.54748   2.55964
  68                    0.49175  -0.55912   2.59420
  69                    0.49877  -0.57069   2.62797
  70                    0.50572  -0.58223   2.66111
  71                    0.51266  -0.59377   2.69380
  72                    0.51968  -0.60537   2.72623
  73                    0.52691  -0.61708   2.75858
  74                    0.53447  -0.62899   2.79099
  75                    0.54251  -0.64116   2.82361
  76                    0.55118  -0.65367   2.85664
  77                    0.56058  -0.66658   2.89031
  78                    0.57086  -0.67991   2.92484
  79                    0.58209  -0.69368   2.96040
  80                    0.59427  -0.70784   2.99718
  81                    0.60731  -0.72231   3.03540
 --------------------------------------------------------------------------
 
 Total number of points:                   80
 Total number of gradient calculations:    81
 Total number of Hessian calculations:     81
 IRC-IRC-IRC-IRC-IRC-IRC-IRC-IRC-IRC-IRC-IRC-IRC-IRC-IRC-IRC-IRC-IRC-IRC
                          Input orientation:                          
 ---------------------------------------------------------------------
 Center     Atomic      Atomic             Coordinates (Angstroms)
 Number     Number       Type             X           Y           Z
 ---------------------------------------------------------------------
      1          6           0        0.363942   -0.569393    0.369296
      2          6           0       -0.443162    0.726688    0.225481
      3          6           0       -1.923922    0.522735   -0.005025
      4          8           0        1.531741   -0.584502   -0.442832
      5          8           0        2.391766    0.501070    0.037051
      6          8           0       -2.467613   -0.551499   -0.159176
      7          1           0        3.228202    0.013023    0.139379
      8          1           0        0.633709   -0.767560    1.414064
      9          1           0       -0.210092   -1.418791   -0.016863
     10          1           0       -2.522504    1.458654   -0.043199
     11          1           0       -0.064845    1.297598   -0.636341
     12          1           0       -0.319503    1.396888    1.087156
 ---------------------------------------------------------------------
                    Distance matrix (angstroms):
                    1          2          3          4          5
     1  C    0.000000
     2  C    1.533599   0.000000
     3  C    2.562652   1.512409   0.000000
     4  O    1.422510   2.462946   3.655032   0.000000
     5  O    2.316970   2.850128   4.315948   1.465741   0.000000
     6  O    2.880505   2.424896   1.213812   4.009536   4.975939
     7  H    2.931902   3.741075   5.179290   1.890498   0.973799
     8  H    1.097080   2.192067   3.196898   2.070757   2.568337
     9  H    1.095496   2.171665   2.589764   1.977744   3.233951
    10  H    3.551718   2.220726   1.111621   4.557532   5.007341
    11  H    2.163520   1.100818   2.110721   2.475648   2.668867
    12  H    2.201972   1.098610   2.128654   3.113499   3.042399
                    6          7          8          9         10
     6  O    0.000000
     7  H    5.731502   0.000000
     8  H    3.484245   2.994249   0.000000
     9  H    2.422571   3.727783   1.784280   0.000000
    10  H    2.014244   5.932436   4.128114   3.691562   0.000000
    11  H    3.069225   3.618844   2.992827   2.789913   2.533347
    12  H    3.156570   3.924229   2.387534   3.026364   2.476839
                   11         12
    11  H    0.000000
    12  H    1.745037   0.000000
 Symmetry turned off by external request.
 Stoichiometry    C3H6O3
 Framework group  C1[X(C3H6O3)]
 Deg. of freedom    30
 Full point group                 C1      NOp   1
 Rotational constants (GHZ):          11.0669031           1.6794811           1.5342644

 **********************************************************************

            Population analysis using the SCF Density.

 **********************************************************************

 Alpha  occ. eigenvalues --  -19.22646 -19.22367 -19.17311 -10.29742 -10.25294
 Alpha  occ. eigenvalues --  -10.21414  -1.13084  -1.06636  -0.93458  -0.78701
 Alpha  occ. eigenvalues --   -0.66875  -0.58572  -0.53571  -0.50924  -0.50244
 Alpha  occ. eigenvalues --   -0.45816  -0.44987  -0.44357  -0.40969  -0.38153
 Alpha  occ. eigenvalues --   -0.36439  -0.33509  -0.28260  -0.26913
 Alpha virt. eigenvalues --   -0.04304  -0.01294   0.00759   0.01167   0.03319
 Alpha virt. eigenvalues --    0.04072   0.05341   0.06518   0.06939   0.08741
 Alpha virt. eigenvalues --    0.09266   0.11422   0.12301   0.12757   0.15086
 Alpha virt. eigenvalues --    0.16199   0.18204   0.18443   0.20098   0.21743
 Alpha virt. eigenvalues --    0.22871   0.23611   0.24370   0.25195   0.25754
 Alpha virt. eigenvalues --    0.27776   0.28855   0.29552   0.30698   0.32401
 Alpha virt. eigenvalues --    0.33528   0.34342   0.35877   0.37241   0.37579
 Alpha virt. eigenvalues --    0.45971   0.63781   0.65355   0.66645   0.69267
 Alpha virt. eigenvalues --    0.69429   0.71719   0.75806   0.82770   0.85330
 Alpha virt. eigenvalues --    0.91918   0.93952   0.95920   1.03014   1.03928
 Alpha virt. eigenvalues --    1.04435   1.08443   1.11411   1.14673   1.16570
 Alpha virt. eigenvalues --    1.20680   1.23493   1.24551   1.26640   1.27678
 Alpha virt. eigenvalues --    1.29875   1.30856   1.40560   1.47495   1.50313
 Alpha virt. eigenvalues --    1.53581   1.55998   1.60291   1.60444   1.66789
 Alpha virt. eigenvalues --    1.68619   1.76300   1.78111   1.80077   1.83271
 Alpha virt. eigenvalues --    1.86411   1.94147   1.95785   1.97027   2.06077
 Alpha virt. eigenvalues --    2.07964   2.11155   2.24701   2.28702   2.33803
 Alpha virt. eigenvalues --    2.39201   2.44918   2.46663   2.54235   2.55685
 Alpha virt. eigenvalues --    2.58723   2.72270   2.84147   2.90080   3.06039
 Alpha virt. eigenvalues --    3.12321   3.96434   4.11750   4.18880   4.25724
 Alpha virt. eigenvalues --    4.35198   4.54197
          Condensed to atoms (all electrons):
               1          2          3          4          5          6
     1  C    5.385652  -0.207424   0.051305   0.150832  -0.079087   0.064815
     2  C   -0.207424   6.583446  -0.101591  -0.045296   0.021838  -0.207278
     3  C    0.051305  -0.101591   5.044150   0.015034   0.006638   0.479511
     4  O    0.150832  -0.045296   0.015034   8.088503   0.073629  -0.000793
     5  O   -0.079087   0.021838   0.006638   0.073629   8.329897  -0.001094
     6  O    0.064815  -0.207278   0.479511  -0.000793  -0.001094   8.093764
     7  H    0.004817   0.000214  -0.000475  -0.027134   0.183695   0.000003
     8  H    0.414004  -0.077280   0.012483  -0.046698  -0.000011  -0.000841
     9  H    0.433170  -0.077851  -0.003354  -0.044066   0.009502   0.002221
    10  H    0.035419  -0.186672   0.420519  -0.000502  -0.000161  -0.065349
    11  H   -0.025588   0.354186  -0.015287  -0.004919  -0.000135  -0.000305
    12  H   -0.031740   0.357122  -0.023701   0.002407   0.000174   0.001399
               7          8          9         10         11         12
     1  C    0.004817   0.414004   0.433170   0.035419  -0.025588  -0.031740
     2  C    0.000214  -0.077280  -0.077851  -0.186672   0.354186   0.357122
     3  C   -0.000475   0.012483  -0.003354   0.420519  -0.015287  -0.023701
     4  O   -0.027134  -0.046698  -0.044066  -0.000502  -0.004919   0.002407
     5  O    0.183695  -0.000011   0.009502  -0.000161  -0.000135   0.000174
     6  O    0.000003  -0.000841   0.002221  -0.065349  -0.000305   0.001399
     7  H    0.353719   0.001139  -0.000254  -0.000000  -0.000000   0.000034
     8  H    0.001139   0.532171  -0.028847  -0.000215   0.002652  -0.004576
     9  H   -0.000254  -0.028847   0.467580   0.000347   0.000829   0.003185
    10  H   -0.000000  -0.000215   0.000347   0.633730   0.000806   0.001717
    11  H   -0.000000   0.002652   0.000829   0.000806   0.456540  -0.025716
    12  H    0.000034  -0.004576   0.003185   0.001717  -0.025716   0.488036
 Mulliken charges:
               1
     1  C   -0.196174
     2  C   -0.413413
     3  C    0.114767
     4  O   -0.160998
     5  O   -0.544885
     6  O   -0.366052
     7  H    0.484242
     8  H    0.196020
     9  H    0.237537
    10  H    0.160362
    11  H    0.256937
    12  H    0.231658
 Sum of Mulliken charges =  -0.00000
 Mulliken charges with hydrogens summed into heavy atoms:
               1
     1  C    0.237383
     2  C    0.075182
     3  C    0.275129
     4  O   -0.160998
     5  O   -0.060643
     6  O   -0.366052
 APT charges:
               1
     1  C   -0.664485
     2  C   -0.658409
     3  C   -0.470629
     4  O   -0.135068
     5  O   -0.933071
     6  O   -0.218993
     7  H    0.837711
     8  H    0.435053
     9  H    0.422377
    10  H    0.516813
    11  H    0.409266
    12  H    0.459437
 Sum of APT charges =  -0.00000
 APT charges with hydrogens summed into heavy atoms:
               1
     1  C    0.192945
     2  C    0.210293
     3  C    0.046183
     4  O   -0.135068
     5  O   -0.095360
     6  O   -0.218993
 Electronic spatial extent (au):  <R**2>=            736.2097
 Charge=             -0.0000 electrons
 Dipole moment (field-independent basis, Debye):
    X=              1.5985    Y=              1.4290    Z=              1.4735  Tot=              2.6017
 Quadrupole moment (field-independent basis, Debye-Ang):
   XX=            -36.5439   YY=            -36.0119   ZZ=            -35.9353
   XY=             -6.4694   XZ=              1.1743   YZ=             -0.8551
 Traceless Quadrupole moment (field-independent basis, Debye-Ang):
   XX=             -0.3802   YY=              0.1518   ZZ=              0.2284
   XY=             -6.4694   XZ=              1.1743   YZ=             -0.8551
 Octapole moment (field-independent basis, Debye-Ang**2):
  XXX=             58.8954  YYY=             -3.8766  ZZZ=             -2.5805  XYY=             -1.0575
  XXY=              5.7966  XXZ=              5.3660  XZZ=              0.2273  YZZ=             -0.8691
  YYZ=             -0.8533  XYZ=             -0.4739
 Hexadecapole moment (field-independent basis, Debye-Ang**3):
 XXXX=           -609.9966 YYYY=           -137.0554 ZZZZ=            -63.4862 XXXY=            -38.1309
 XXXZ=              5.9321 YYYX=              2.2325 YYYZ=             -3.7270 ZZZX=              0.9688
 ZZZY=             -4.8755 XXYY=           -146.0570 XXZZ=           -129.4230 YYZZ=            -32.5793
 XXYZ=             -3.7003 YYXZ=              1.1341 ZZXY=              0.6221
 N-N= 2.350548760437D+02 E-N=-1.274832331506D+03  KE= 3.403710041917D+02
  Exact polarizability:   0.000   0.000   0.000   0.000   0.000   0.000
 Approx polarizability:  72.581  12.596  76.008   2.964   4.366  53.220

 This type of calculation cannot be archived.


 CONFIDENCE IS WHAT YOU FEEL BEFORE YOU FULLY
 COMPREHEND THE SITUATION.
 Job cpu time:       0 days  5 hours 59 minutes 40.1 seconds.
 Elapsed time:       0 days  0 hours 23 minutes  1.7 seconds.
 File lengths (MBytes):  RWF=     28 Int=      0 D2E=      0 Chk=      4 Scr=      1
 Normal termination of Gaussian 16 at Wed Dec 23 22:39:50 2020.
