 Entering Gaussian System, Link 0=g16
 Initial command:
 /apps/cent7/gaussian/g16-B.01/g16-haswell/g16/l1.exe "/scratch/bell/zhao922/YARP/paper-example/KHP-network/pp_0/IRC-folder/Gau-60192.inp" -scrdir="/scratch/bell/zhao922/YARP/paper-example/KHP-network/pp_0/IRC-folder/"
 Entering Link 1 = /apps/cent7/gaussian/g16-B.01/g16-haswell/g16/l1.exe PID=     60193.
  
 Copyright (c) 1988-2017, Gaussian, Inc.  All Rights Reserved.
  
 This is part of the Gaussian(R) 16 program.  It is based on
 the Gaussian(R) 09 system (copyright 2009, Gaussian, Inc.),
 the Gaussian(R) 03 system (copyright 2003, Gaussian, Inc.),
 the Gaussian(R) 98 system (copyright 1998, Gaussian, Inc.),
 the Gaussian(R) 94 system (copyright 1995, Gaussian, Inc.),
 the Gaussian 92(TM) system (copyright 1992, Gaussian, Inc.),
 the Gaussian 90(TM) system (copyright 1990, Gaussian, Inc.),
 the Gaussian 88(TM) system (copyright 1988, Gaussian, Inc.),
 the Gaussian 86(TM) system (copyright 1986, Carnegie Mellon
 University), and the Gaussian 82(TM) system (copyright 1983,
 Carnegie Mellon University). Gaussian is a federally registered
 trademark of Gaussian, Inc.
  
 This software contains proprietary and confidential information,
 including trade secrets, belonging to Gaussian, Inc.
  
 This software is provided under written license and may be
 used, copied, transmitted, or stored only in accord with that
 written license.
  
 The following legend is applicable only to US Government
 contracts under FAR:
  
                    RESTRICTED RIGHTS LEGEND
  
 Use, reproduction and disclosure by the US Government is
 subject to restrictions as set forth in subparagraphs (a)
 and (c) of the Commercial Computer Software - Restricted
 Rights clause in FAR 52.227-19.
  
 Gaussian, Inc.
 340 Quinnipiac St., Bldg. 40, Wallingford CT 06492
  
  
 ---------------------------------------------------------------
 Warning -- This program may not be used in any manner that
 competes with the business of Gaussian, Inc. or will provide
 assistance to any competitor of Gaussian, Inc.  The licensee
 of this program is prohibited from giving any competitor of
 Gaussian, Inc. access to this program.  By using this program,
 the user acknowledges that Gaussian, Inc. is engaged in the
 business of creating and licensing software in the field of
 computational chemistry and represents and warrants to the
 licensee that it is not a competitor of Gaussian, Inc. and that
 it will not use this program in any manner prohibited above.
 ---------------------------------------------------------------
  

 Cite this work as:
 Gaussian 16, Revision B.01,
 M. J. Frisch, G. W. Trucks, H. B. Schlegel, G. E. Scuseria, 
 M. A. Robb, J. R. Cheeseman, G. Scalmani, V. Barone, 
 G. A. Petersson, H. Nakatsuji, X. Li, M. Caricato, A. V. Marenich, 
 J. Bloino, B. G. Janesko, R. Gomperts, B. Mennucci, H. P. Hratchian, 
 J. V. Ortiz, A. F. Izmaylov, J. L. Sonnenberg, D. Williams-Young, 
 F. Ding, F. Lipparini, F. Egidi, J. Goings, B. Peng, A. Petrone, 
 T. Henderson, D. Ranasinghe, V. G. Zakrzewski, J. Gao, N. Rega, 
 G. Zheng, W. Liang, M. Hada, M. Ehara, K. Toyota, R. Fukuda, 
 J. Hasegawa, M. Ishida, T. Nakajima, Y. Honda, O. Kitao, H. Nakai, 
 T. Vreven, K. Throssell, J. A. Montgomery, Jr., J. E. Peralta, 
 F. Ogliaro, M. J. Bearpark, J. J. Heyd, E. N. Brothers, K. N. Kudin, 
 V. N. Staroverov, T. A. Keith, R. Kobayashi, J. Normand, 
 K. Raghavachari, A. P. Rendell, J. C. Burant, S. S. Iyengar, 
 J. Tomasi, M. Cossi, J. M. Millam, M. Klene, C. Adamo, R. Cammi, 
 J. W. Ochterski, R. L. Martin, K. Morokuma, O. Farkas, 
 J. B. Foresman, and D. J. Fox, Gaussian, Inc., Wallingford CT, 2016.
 
 ******************************************
 Gaussian 16:  ES64L-G16RevB.01 20-Dec-2017
                23-Dec-2020 
 ******************************************
 %NProcShared=16
 Will use up to   16 processors via shared memory.
 %Mem=6GB
 ----------------------------------------------------------------------
 # B3LYP/6-31+G* IRC=(CALCALL, maxpoints=40, StepSize=15, maxcyc=100, R
 eport=Cartesians)
 ----------------------------------------------------------------------
 1/6=100,10=4,18=10,26=3,38=1,39=15,42=40,44=3,71=1,129=10,172=1/1,23;
 2/12=2,17=6,18=5,29=1,40=1/2;
 3/5=1,6=6,7=11,11=2,25=1,30=1,71=2,74=-5,140=1/1,2,3;
 4//1;
 5/5=2,38=5/2;
 8/6=4,10=90,11=11/1;
 11/6=1,8=1,9=11,15=111,16=1/1,2,10;
 10/6=1,13=1/2;
 6/7=2,8=2,9=2,10=2,18=1,28=1/1;
 7/10=1,25=1/1,2,3,16;
 1/6=100,10=4,18=10,26=3,39=15,42=40,44=3,71=1,129=10/23(2);
 2/29=1/2;
 99/5=20/99;
 2/29=1/2;
 3/5=1,6=6,7=11,11=2,25=1,30=1,71=2,74=-5,140=1/1,2,3;
 4/5=5,16=3,69=1/1;
 5/5=2,38=5/2;
 8/6=4,10=90,11=11/1;
 11/6=1,8=1,9=11,15=111,16=1/1,2,10;
 10/6=1,13=1/2;
 7/10=1,25=1/1,2,3,16;
 1/6=100,10=4,18=10,26=3,39=15,42=40,44=3,71=1,129=10/23(-8);
 2/29=1/2;
 6/7=2,8=2,9=2,10=2,18=1,19=2,28=1/1;
 99/5=20/99;
 ----------
 pp_1_0 IRC
 ----------
 Symbolic Z-matrix:
 Charge =  0 Multiplicity = 1
 C                    -0.54126  -0.62013   0.43851 
 C                     1.3679    1.26163  -0.06056 
 C                     2.08684   0.07782  -0.04769 
 O                    -1.5477    0.21727   0.56078 
 O                    -2.5003    0.00662  -0.52269 
 O                     1.60041  -1.0726   -0.30251 
 H                    -2.80351   0.92715  -0.64895 
 H                     0.02941  -0.7388    1.3469 
 H                    -0.60403  -1.36334  -0.34143 
 H                     3.16209   0.11701   0.20589 
 H                     0.51073   1.34053  -0.72413 
 H                     1.80507   2.19121   0.29543 
 
 IRC-IRC-IRC-IRC-IRC-IRC-IRC-IRC-IRC-IRC-IRC-IRC-IRC-IRC-IRC-IRC-IRC-IRC
 ------------------------------------------------------------------------
 INPUT DATA FOR L123
 ------------------------------------------------------------------------
 GENERAL PARAMETERS:
 Follow reaction path in both directions.
 Maximum points per path      =  40
 Step size                    =   0.150 bohr
 Integration scheme           = HPC                                 
    Redo corrector integration= Yes                                 
    DWI Weight Power          =  2
    DWI will use Hessian update vectors when possible.
    Max correction cycles     = 100
 Initial Hessian              = CalcFC
 Hessian evaluation           = Analytic at all predictor steps
                              = Update at all corrector steps
 Hessian updating method      = Bofill                              
 ------------------------------------------------------------------------
 IRC-IRC-IRC-IRC-IRC-IRC-IRC-IRC-IRC-IRC-IRC-IRC-IRC-IRC-IRC-IRC-IRC-IRC
                          Input orientation:                          
 ---------------------------------------------------------------------
 Center     Atomic      Atomic             Coordinates (Angstroms)
 Number     Number       Type             X           Y           Z
 ---------------------------------------------------------------------
      1          6           0       -0.541258   -0.620130    0.438506
      2          6           0        1.367900    1.261628   -0.060557
      3          6           0        2.086843    0.077821   -0.047688
      4          8           0       -1.547695    0.217272    0.560781
      5          8           0       -2.500300    0.006621   -0.522685
      6          8           0        1.600410   -1.072602   -0.302507
      7          1           0       -2.803510    0.927147   -0.648945
      8          1           0        0.029414   -0.738795    1.346904
      9          1           0       -0.604029   -1.363338   -0.341434
     10          1           0        3.162095    0.117010    0.205893
     11          1           0        0.510732    1.340533   -0.724131
     12          1           0        1.805072    2.191205    0.295428
 ---------------------------------------------------------------------
                    Distance matrix (angstroms):
                    1          2          3          4          5
     1  C    0.000000
     2  C    2.726713   0.000000
     3  C    2.762324   1.385079   0.000000
     4  O    1.314956   3.158708   3.687756   0.000000
     5  O    2.270364   4.092869   4.612220   1.457988   0.000000
     6  O    2.310968   2.358226   1.274764   3.509930   4.246060
     7  H    2.948627   4.225960   4.999842   1.882666   0.977367
     8  H    1.079321   2.788222   2.616250   2.004826   3.232717
     9  H    1.079169   3.295124   3.066597   2.050079   2.346377
    10  H    3.783161   2.144827   1.105444   4.724206   5.710143
    11  H    2.510499   1.086873   2.129822   2.673918   3.299427
    12  H    3.664606   1.087179   2.159517   3.899727   4.896728
                    6          7          8          9         10
     6  O    0.000000
     7  H    4.849075   0.000000
     8  H    2.302176   3.845027   0.000000
     9  H    2.223869   3.190392   1.908347   0.000000
    10  H    2.027932   6.080749   3.442092   4.083465   0.000000
    11  H    2.681116   3.340770   2.973963   2.949588   3.064585
    12  H    3.324432   4.871212   3.583778   4.340983   2.480285
                   11         12
    11  H    0.000000
    12  H    1.854308   0.000000
 Symmetry turned off by external request.
 Stoichiometry    C3H6O3
 Framework group  C1[X(C3H6O3)]
 Deg. of freedom    30
 Full point group                 C1      NOp   1
 Rotational constants (GHZ):           7.3215699           1.7094749           1.5209290
 Standard basis: 6-31+G(d) (6D, 7F)
   126 basis functions,   216 primitive gaussians,   126 cartesian basis functions
    24 alpha electrons       24 beta electrons
       nuclear repulsion energy       228.5463737977 Hartrees.
 NAtoms=   12 NActive=   12 NUniq=   12 SFac= 1.00D+00 NAtFMM=   60 NAOKFM=F Big=F
 Integral buffers will be    131072 words long.
 Raffenetti 2 integral format.
 Two-electron integral symmetry is turned off.
 One-electron integrals computed using PRISM.
 NBasis=   126 RedAO= T EigKep=  1.51D-04  NBF=   126
 NBsUse=   126 1.00D-06 EigRej= -1.00D+00 NBFU=   126
 ExpMin= 4.38D-02 ExpMax= 5.48D+03 ExpMxC= 8.25D+02 IAcc=3 IRadAn=         5 AccDes= 0.00D+00
 Harris functional with IExCor=  402 and IRadAn=       5 diagonalized for initial guess.
 HarFok:  IExCor=  402 AccDes= 0.00D+00 IRadAn=         5 IDoV= 1 UseB2=F ITyADJ=14
 ICtDFT=  3500011 ScaDFX=  1.000000  1.000000  1.000000  1.000000
 FoFCou: FMM=F IPFlag=           0 FMFlag=      100000 FMFlg1=           0
         NFxFlg=           0 DoJE=T BraDBF=F KetDBF=T FulRan=T
         wScrn=  0.000000 ICntrl=       500 IOpCl=  0 I1Cent=   200000004 NGrid=           0
         NMat0=    1 NMatS0=      1 NMatT0=    0 NMatD0=    1 NMtDS0=    0 NMtDT0=    0
 Symmetry not used in FoFCou.
 Keep R1 ints in memory in canonical form, NReq=47237219.
 Requested convergence on RMS density matrix=1.00D-08 within 128 cycles.
 Requested convergence on MAX density matrix=1.00D-06.
 Requested convergence on             energy=1.00D-06.
 No special actions if energy rises.
 EnCoef did     3 forward-backward iterations
 EnCoef did     3 forward-backward iterations
 SCF Done:  E(RB3LYP) =  -343.372723279     A.U. after   17 cycles
            NFock= 17  Conv=0.83D-08     -V/T= 2.0093
 DoSCS=F DFT=T ScalE2(SS,OS)=  1.000000  1.000000
 Range of M.O.s used for correlation:     1   126
 NBasis=   126 NAE=    24 NBE=    24 NFC=     0 NFV=     0
 NROrb=    126 NOA=    24 NOB=    24 NVA=   102 NVB=   102

 **** Warning!!: The largest alpha MO coefficient is  0.31456273D+02


 **** Warning!!: The smallest alpha delta epsilon is  0.84739267D-01

 Symmetrizing basis deriv contribution to polar:
 IMax=3 JMax=2 DiffMx= 0.00D+00
 G2DrvN: will do    13 centers at a time, making    1 passes.
 Calling FoFCou, ICntrl=  3107 FMM=F I1Cent=   0 AccDes= 0.00D+00.
 End of G2Drv F.D. properties file   721 does not exist.
 End of G2Drv F.D. properties file   722 does not exist.
 End of G2Drv F.D. properties file   788 does not exist.
          IDoAtm=111111111111
          Differentiating once with respect to nuclear coordinates.
 Keep R1 ints in memory in canonical form, NReq=47193248.
          There are    39 degrees of freedom in the 1st order CPHF.  IDoFFX=6 NUNeed=     0.
     33 vectors produced by pass  0 Test12= 6.28D-15 2.56D-09 XBig12= 2.29D-01 2.11D-01.
 AX will form    33 AO Fock derivatives at one time.
     33 vectors produced by pass  1 Test12= 6.28D-15 2.56D-09 XBig12= 2.60D-02 4.75D-02.
     33 vectors produced by pass  2 Test12= 6.28D-15 2.56D-09 XBig12= 7.88D-04 5.62D-03.
     33 vectors produced by pass  3 Test12= 6.28D-15 2.56D-09 XBig12= 8.59D-06 4.99D-04.
     33 vectors produced by pass  4 Test12= 6.28D-15 2.56D-09 XBig12= 2.70D-08 2.15D-05.
     29 vectors produced by pass  5 Test12= 6.28D-15 2.56D-09 XBig12= 3.31D-11 7.16D-07.
      6 vectors produced by pass  6 Test12= 6.28D-15 2.56D-09 XBig12= 3.17D-14 2.64D-08.
 InvSVY:  IOpt=1 It=  1 EMax= 1.89D-15
 Solved reduced A of dimension   200 with    33 vectors.
 End of Minotr F.D. properties file   721 does not exist.
 End of Minotr F.D. properties file   722 does not exist.
 End of Minotr F.D. properties file   788 does not exist.

 **********************************************************************

            Population analysis using the SCF Density.

 **********************************************************************

 Alpha  occ. eigenvalues --  -19.32235 -19.28377 -19.12199 -10.33364 -10.23595
 Alpha  occ. eigenvalues --  -10.16225  -1.21859  -1.01803  -0.99473  -0.71437
 Alpha  occ. eigenvalues --   -0.70964  -0.61944  -0.56392  -0.54442  -0.52548
 Alpha  occ. eigenvalues --   -0.47203  -0.45234  -0.42896  -0.41226  -0.37548
 Alpha  occ. eigenvalues --   -0.36772  -0.34277  -0.24416  -0.19728
 Alpha virt. eigenvalues --   -0.11254  -0.07007  -0.00987   0.02596   0.02811
 Alpha virt. eigenvalues --    0.03563   0.04720   0.05507   0.07009   0.08032
 Alpha virt. eigenvalues --    0.08779   0.10081   0.10870   0.13149   0.13807
 Alpha virt. eigenvalues --    0.14704   0.15227   0.18006   0.18216   0.19968
 Alpha virt. eigenvalues --    0.20640   0.22391   0.23638   0.25106   0.26573
 Alpha virt. eigenvalues --    0.27209   0.27697   0.28476   0.29795   0.30332
 Alpha virt. eigenvalues --    0.33522   0.34352   0.34872   0.38412   0.40628
 Alpha virt. eigenvalues --    0.44862   0.63553   0.65465   0.68715   0.72455
 Alpha virt. eigenvalues --    0.75310   0.76544   0.78164   0.82007   0.88579
 Alpha virt. eigenvalues --    0.91033   0.94460   0.95298   0.96850   1.02148
 Alpha virt. eigenvalues --    1.02477   1.05833   1.09490   1.11524   1.12626
 Alpha virt. eigenvalues --    1.14560   1.17902   1.21982   1.23262   1.25309
 Alpha virt. eigenvalues --    1.28251   1.30174   1.33948   1.42671   1.48088
 Alpha virt. eigenvalues --    1.48927   1.49707   1.53160   1.56701   1.60018
 Alpha virt. eigenvalues --    1.69067   1.72901   1.76185   1.81208   1.83507
 Alpha virt. eigenvalues --    1.83815   1.91840   1.96116   2.03829   2.05078
 Alpha virt. eigenvalues --    2.09505   2.12311   2.22075   2.24466   2.28418
 Alpha virt. eigenvalues --    2.31704   2.36620   2.40388   2.48510   2.60848
 Alpha virt. eigenvalues --    2.63575   2.70041   2.82688   2.92870   3.03518
 Alpha virt. eigenvalues --    3.05377   3.88816   4.11975   4.22533   4.27487
 Alpha virt. eigenvalues --    4.28570   4.41090
          Condensed to atoms (all electrons):
               1          2          3          4          5          6
     1  C    5.232616   0.005043  -0.039536   0.140219  -0.003188   0.051491
     2  C    0.005043   5.649189   0.510962  -0.033640  -0.002616  -0.208674
     3  C   -0.039536   0.510962   4.779268   0.003554   0.004839   0.303112
     4  O    0.140219  -0.033640   0.003554   7.885358   0.098234   0.011315
     5  O   -0.003188  -0.002616   0.004839   0.098234   8.157971  -0.003512
     6  O    0.051491  -0.208674   0.303112   0.011315  -0.003512   8.452608
     7  H    0.004754  -0.000390   0.000687  -0.022394   0.197358   0.000083
     8  H    0.391854  -0.001726  -0.011919  -0.046979   0.006631  -0.013199
     9  H    0.386872   0.010476   0.002710  -0.048495   0.002003  -0.040785
    10  H    0.009300  -0.116042   0.402889  -0.000035  -0.000009  -0.060638
    11  H    0.012556   0.357056  -0.029455   0.003525  -0.003532  -0.005273
    12  H    0.005870   0.354418  -0.023524  -0.000458   0.000117   0.008124
               7          8          9         10         11         12
     1  C    0.004754   0.391854   0.386872   0.009300   0.012556   0.005870
     2  C   -0.000390  -0.001726   0.010476  -0.116042   0.357056   0.354418
     3  C    0.000687  -0.011919   0.002710   0.402889  -0.029455  -0.023524
     4  O   -0.022394  -0.046979  -0.048495  -0.000035   0.003525  -0.000458
     5  O    0.197358   0.006631   0.002003  -0.000009  -0.003532   0.000117
     6  O    0.000083  -0.013199  -0.040785  -0.060638  -0.005273   0.008124
     7  H    0.334361  -0.000256   0.000235  -0.000000   0.000044  -0.000001
     8  H   -0.000256   0.414329  -0.018095  -0.000692  -0.000624  -0.000019
     9  H    0.000235  -0.018095   0.420657  -0.000184  -0.000893  -0.000015
    10  H   -0.000000  -0.000692  -0.000184   0.601848   0.003812   0.001252
    11  H    0.000044  -0.000624  -0.000893   0.003812   0.516867  -0.030412
    12  H   -0.000001  -0.000019  -0.000015   0.001252  -0.030412   0.506549
 Mulliken charges:
               1
     1  C   -0.197852
     2  C   -0.524056
     3  C    0.096413
     4  O    0.009795
     5  O   -0.454297
     6  O   -0.494654
     7  H    0.485520
     8  H    0.280693
     9  H    0.285512
    10  H    0.158497
    11  H    0.176329
    12  H    0.178100
 Sum of Mulliken charges =   0.00000
 Mulliken charges with hydrogens summed into heavy atoms:
               1
     1  C    0.368354
     2  C   -0.169628
     3  C    0.254910
     4  O    0.009795
     5  O    0.031222
     6  O   -0.494654
 APT charges:
               1
     1  C   -0.696602
     2  C   -0.911720
     3  C   -0.367989
     4  O    0.120353
     5  O   -0.710798
     6  O   -0.510507
     7  H    0.747316
     8  H    0.476467
     9  H    0.472855
    10  H    0.591738
    11  H    0.208246
    12  H    0.580641
 Sum of APT charges =   0.00000
 APT charges with hydrogens summed into heavy atoms:
               1
     1  C    0.252720
     2  C   -0.122833
     3  C    0.223749
     4  O    0.120353
     5  O    0.036518
     6  O   -0.510507
 Electronic spatial extent (au):  <R**2>=            764.7006
 Charge=              0.0000 electrons
 Dipole moment (field-independent basis, Debye):
    X=             -3.9326    Y=              1.6521    Z=              0.7725  Tot=              4.3349
 Quadrupole moment (field-independent basis, Debye-Ang):
   XX=            -34.2806   YY=            -37.5449   ZZ=            -36.8921
   XY=             -1.0168   XZ=              4.0944   YZ=             -2.8715
 Traceless Quadrupole moment (field-independent basis, Debye-Ang):
   XX=              1.9586   YY=             -1.3057   ZZ=             -0.6529
   XY=             -1.0168   XZ=              4.0944   YZ=             -2.8715
 Octapole moment (field-independent basis, Debye-Ang**2):
  XXX=            -28.5478  YYY=              0.3352  ZZZ=              1.5755  XYY=            -19.1858
  XXY=             18.9440  XXZ=             -2.4793  XZZ=             -9.1320  YZZ=             -3.1917
  YYZ=              0.0818  XYZ=              3.6393
 Hexadecapole moment (field-independent basis, Debye-Ang**3):
 XXXX=           -637.8801 YYYY=           -190.0991 ZZZZ=            -78.8859 XXXY=            -49.7632
 XXXZ=             32.8030 YYYX=             -6.6566 YYYZ=              1.9071 ZZZX=              5.2477
 ZZZY=             -2.7139 XXYY=           -146.3984 XXZZ=           -132.3992 YYZZ=            -47.1845
 XXYZ=             -9.6406 YYXZ=             10.7422 ZZXY=             -8.2315
 N-N= 2.285463737977D+02 E-N=-1.261157676156D+03  KE= 3.402228840408D+02
  Exact polarizability:   0.000   0.000   0.000   0.000   0.000   0.000
 Approx polarizability: 213.920  18.487 115.575 -18.215   0.500  66.757
 Calling FoFJK, ICntrl=    100127 FMM=F ISym2X=0 I1Cent= 0 IOpClX= 0 NMat=1 NMatS=1 NMatT=0.
 -------------------------------------------------------------------
 Center     Atomic                   Forces (Hartrees/Bohr)
 Number     Number              X              Y              Z
 -------------------------------------------------------------------
      1        6           0.000000002   -0.000000032    0.000000295
      2        6          -0.000000180   -0.000000022   -0.000000129
      3        6           0.000000292   -0.000000620   -0.000000043
      4        8           0.000000018    0.000000373   -0.000000112
      5        8           0.000000045   -0.000000057   -0.000000290
      6        8           0.000000184    0.000000408    0.000000691
      7        1           0.000000121    0.000000107   -0.000000470
      8        1          -0.000000398    0.000000344   -0.000000013
      9        1          -0.000000126   -0.000000000    0.000000395
     10        1          -0.000000451   -0.000000206    0.000000241
     11        1           0.000000242   -0.000000400   -0.000000180
     12        1           0.000000253    0.000000107   -0.000000386
 -------------------------------------------------------------------
 Cartesian Forces:  Max     0.000000691 RMS     0.000000289
 IRC-IRC-IRC-IRC-IRC-IRC-IRC-IRC-IRC-IRC-IRC-IRC-IRC-IRC-IRC-IRC-IRC-IRC
          ******** Start new reaction path calculation ********
 Supplied step size of   0.1500 bohr.
    Integration on MW PES will use step size of   0.2705 sqrt(amu)*bohr.
 Point Number:   0          Path Number:   1
 Calculating another point on the path.
 IRC-IRC-IRC-IRC-IRC-IRC-IRC-IRC-IRC-IRC-IRC-IRC-IRC-IRC-IRC-IRC-IRC-IRC
                          Input orientation:                          
 ---------------------------------------------------------------------
 Center     Atomic      Atomic             Coordinates (Angstroms)
 Number     Number       Type             X           Y           Z
 ---------------------------------------------------------------------
      1          6           0       -0.519720   -0.610461    0.439383
      2          6           0        1.403114    1.297413   -0.058670
      3          6           0        2.107470    0.112048   -0.046598
      4          8           0       -1.514211    0.243148    0.555700
      5          8           0       -2.476342    0.033736   -0.520401
      6          8           0        1.605885   -1.040490   -0.296005
      7          1           0       -2.776084    0.955453   -0.646978
      8          1           0        0.057460   -0.712314    1.345896
      9          1           0       -0.605569   -1.372498   -0.320958
     10          1           0        3.184770    0.135691    0.195750
     11          1           0        0.519580    1.370735   -0.688869
     12          1           0        1.854552    2.228351    0.274511
 ---------------------------------------------------------------------
                    Distance matrix (angstroms):
                    1          2          3          4          5
     1  C    0.000000
     2  C    2.754147   0.000000
     3  C    2.767729   1.378896   0.000000
     4  O    1.315747   3.162232   3.673761   0.000000
     5  O    2.272564   4.106124   4.608900   1.458610   0.000000
     6  O    2.289960   2.358651   1.281459   3.479673   4.227162
     7  H    2.953548   4.234234   4.992082   1.883119   0.977460
     8  H    1.079480   2.796890   2.611734   2.001866   3.234163
     9  H    1.079903   3.351422   3.104792   2.050481   2.348843
    10  H    3.786732   2.142108   1.104476   4.713972   5.707141
    11  H    2.505641   1.087731   2.125606   2.637558   3.285042
    12  H    3.704484   1.086946   2.155416   3.920289   4.919844
                    6          7          8          9         10
     6  O    0.000000
     7  H    4.827900   0.000000
     8  H    2.280605   3.844733   0.000000
     9  H    2.236377   3.199497   1.911506   0.000000
    10  H    2.029311   6.075687   3.438315   4.111970   0.000000
    11  H    2.673650   3.321990   2.948376   2.987750   3.067755
    12  H    3.327559   4.890010   3.609005   4.401466   2.480909
                   11         12
    11  H    0.000000
    12  H    1.856275   0.000000
 Symmetry turned off by external request.
 Stoichiometry    C3H6O3
 Framework group  C1[X(C3H6O3)]
 Deg. of freedom    30
 Full point group                 C1      NOp   1
 Rotational constants (GHZ):           7.2918699           1.7174840           1.5237029
 Standard basis: 6-31+G(d) (6D, 7F)
   126 basis functions,   216 primitive gaussians,   126 cartesian basis functions
    24 alpha electrons       24 beta electrons
       nuclear repulsion energy       228.6005338372 Hartrees.
 NAtoms=   12 NActive=   12 NUniq=   12 SFac= 1.00D+00 NAtFMM=   60 NAOKFM=F Big=F
 Integral buffers will be    131072 words long.
 Raffenetti 2 integral format.
 Two-electron integral symmetry is turned off.
 One-electron integrals computed using PRISM.
 NBasis=   126 RedAO= T EigKep=  1.48D-04  NBF=   126
 NBsUse=   126 1.00D-06 EigRej= -1.00D+00 NBFU=   126
 Initial guess from the checkpoint file:  "/scratch/bell/zhao922/YARP/paper-example/KHP-network/pp_0/IRC-folder/Gau-60193.chk"
 B after Tr=     0.043406    0.050809    0.003086
         Rot=    1.000000    0.000231   -0.000160    0.000084 Ang=   0.03 deg.
 ExpMin= 4.38D-02 ExpMax= 5.48D+03 ExpMxC= 8.25D+02 IAcc=3 IRadAn=         5 AccDes= 0.00D+00
 Harris functional with IExCor=  402 and IRadAn=       5 diagonalized for initial guess.
 HarFok:  IExCor=  402 AccDes= 0.00D+00 IRadAn=         5 IDoV= 1 UseB2=F ITyADJ=14
 ICtDFT=  3500011 ScaDFX=  1.000000  1.000000  1.000000  1.000000
 FoFCou: FMM=F IPFlag=           0 FMFlag=      100000 FMFlg1=           0
         NFxFlg=           0 DoJE=T BraDBF=F KetDBF=T FulRan=T
         wScrn=  0.000000 ICntrl=       500 IOpCl=  0 I1Cent=   200000004 NGrid=           0
         NMat0=    1 NMatS0=      1 NMatT0=    0 NMatD0=    1 NMtDS0=    0 NMtDT0=    0
 Symmetry not used in FoFCou.
 Keep R1 ints in memory in canonical form, NReq=47237219.
 Requested convergence on RMS density matrix=1.00D-08 within 128 cycles.
 Requested convergence on MAX density matrix=1.00D-06.
 Requested convergence on             energy=1.00D-06.
 No special actions if energy rises.
 SCF Done:  E(RB3LYP) =  -343.373048204     A.U. after   13 cycles
            NFock= 13  Conv=0.44D-08     -V/T= 2.0093
 DoSCS=F DFT=T ScalE2(SS,OS)=  1.000000  1.000000
 Range of M.O.s used for correlation:     1   126
 NBasis=   126 NAE=    24 NBE=    24 NFC=     0 NFV=     0
 NROrb=    126 NOA=    24 NOB=    24 NVA=   102 NVB=   102

 **** Warning!!: The largest alpha MO coefficient is  0.32928249D+02


 **** Warning!!: The smallest alpha delta epsilon is  0.82234842D-01

 Symmetrizing basis deriv contribution to polar:
 IMax=3 JMax=2 DiffMx= 0.00D+00
 G2DrvN: will do    13 centers at a time, making    1 passes.
 Calling FoFCou, ICntrl=  3107 FMM=F I1Cent=   0 AccDes= 0.00D+00.
 End of G2Drv F.D. properties file   721 does not exist.
 End of G2Drv F.D. properties file   722 does not exist.
 End of G2Drv F.D. properties file   788 does not exist.
          IDoAtm=111111111111
          Differentiating once with respect to nuclear coordinates.
 Keep R1 ints in memory in canonical form, NReq=47193248.
          There are    39 degrees of freedom in the 1st order CPHF.  IDoFFX=6 NUNeed=     0.
     33 vectors produced by pass  0 Test12= 6.28D-15 2.56D-09 XBig12= 2.20D-01 1.97D-01.
 AX will form    33 AO Fock derivatives at one time.
     33 vectors produced by pass  1 Test12= 6.28D-15 2.56D-09 XBig12= 2.67D-02 5.04D-02.
     33 vectors produced by pass  2 Test12= 6.28D-15 2.56D-09 XBig12= 8.76D-04 5.66D-03.
     33 vectors produced by pass  3 Test12= 6.28D-15 2.56D-09 XBig12= 1.03D-05 6.16D-04.
     33 vectors produced by pass  4 Test12= 6.28D-15 2.56D-09 XBig12= 3.12D-08 2.39D-05.
     31 vectors produced by pass  5 Test12= 6.28D-15 2.56D-09 XBig12= 3.75D-11 7.42D-07.
      5 vectors produced by pass  6 Test12= 6.28D-15 2.56D-09 XBig12= 3.44D-14 2.93D-08.
 InvSVY:  IOpt=1 It=  1 EMax= 1.33D-15
 Solved reduced A of dimension   201 with    33 vectors.
 End of Minotr F.D. properties file   721 does not exist.
 End of Minotr F.D. properties file   722 does not exist.
 End of Minotr F.D. properties file   788 does not exist.
 Calling FoFJK, ICntrl=    100127 FMM=F ISym2X=0 I1Cent= 0 IOpClX= 0 NMat=1 NMatS=1 NMatT=0.
 -------------------------------------------------------------------
 Center     Atomic                   Forces (Hartrees/Bohr)
 Number     Number              X              Y              Z
 -------------------------------------------------------------------
      1        6           0.000037922   -0.003596148   -0.000285423
      2        6           0.001972930    0.001705772   -0.000310797
      3        6          -0.000205690    0.001640716   -0.000069494
      4        8           0.002849975   -0.000540431   -0.001803798
      5        8           0.000292413    0.000030905    0.000203125
      6        8          -0.005015283    0.001264096    0.001304134
      7        1           0.000074894    0.000009179   -0.000001132
      8        1          -0.000032860   -0.000067295   -0.000084607
      9        1          -0.000390885   -0.000337373    0.000658501
     10        1          -0.000119332   -0.000193195   -0.000119664
     11        1           0.000236239    0.000128009    0.000965149
     12        1           0.000299676   -0.000044235   -0.000455995
 -------------------------------------------------------------------
 Cartesian Forces:  Max     0.005015283 RMS     0.001343591
 IRC-IRC-IRC-IRC-IRC-IRC-IRC-IRC-IRC-IRC-IRC-IRC-IRC-IRC-IRC-IRC-IRC-IRC
 Pt  1 Step number   1 out of a maximum of 100
 Modified Bulirsch-Stoer Extrapolation Cycles:
    EPS =    0.000010000000000
      PEZero:  N= 2 I= 1 D=  7.05D-04 Err=  1.10D-03
      PEZero:  N= 3 I= 2 D=  7.05D-04 Err=  7.36D-04
      PEZero:  N= 3 I= 1 D=  1.41D-03 Err=  1.65D-07
 Maximum DWI energy   std dev =  0.000000316 at pt     1
 Maximum DWI gradient std dev =  0.075634163 at pt    27
 CORRECTOR INTEGRATION CONVERGENCE:
   Recorrection delta-x convergence threshold:    0.010000
   Delta-x Convergence Met
 Point Number:   1          Path Number:   1
   CHANGE IN THE REACTION COORDINATE =    0.27047
   NET REACTION COORDINATE UP TO THIS POINT =    0.27047
  # OF POINTS ALONG THE PATH =   1
  # OF STEPS =   1

 Calculating another point on the path.
 IRC-IRC-IRC-IRC-IRC-IRC-IRC-IRC-IRC-IRC-IRC-IRC-IRC-IRC-IRC-IRC-IRC-IRC
                          Input orientation:                          
 ---------------------------------------------------------------------
 Center     Atomic      Atomic             Coordinates (Angstroms)
 Number     Number       Type             X           Y           Z
 ---------------------------------------------------------------------
      1          6           0       -0.519450   -0.627144    0.438916
      2          6           0        1.414611    1.305429   -0.058872
      3          6           0        2.105107    0.119268   -0.046839
      4          8           0       -1.503467    0.241314    0.549141
      5          8           0       -2.474979    0.033717   -0.519759
      6          8           0        1.587112   -1.035449   -0.291174
      7          1           0       -2.771057    0.956651   -0.646650
      8          1           0        0.060362   -0.714806    1.345293
      9          1           0       -0.629242   -1.407947   -0.299373
     10          1           0        3.182988    0.125668    0.188204
     11          1           0        0.506610    1.375840   -0.653384
     12          1           0        1.878872    2.236633    0.253313
 ---------------------------------------------------------------------
                    Distance matrix (angstroms):
                    1          2          3          4          5
     1  C    0.000000
     2  C    2.779069   0.000000
     3  C    2.771532   1.372554   0.000000
     4  O    1.317065   3.164996   3.659493   0.000000
     5  O    2.275937   4.118079   4.605231   1.459274   0.000000
     6  O    2.266572   2.358692   1.288949   3.447888   4.206655
     7  H    2.959154   4.241102   4.983769   1.883722   0.977533
     8  H    1.079530   2.808383   2.610496   1.998396   3.235222
     9  H    1.080174   3.405522   3.142104   2.050441   2.352384
    10  H    3.786507   2.140102   1.103229   4.701756   5.702829
    11  H    2.501572   1.087598   2.121806   2.602619   3.272464
    12  H    3.740003   1.086342   2.150467   3.938151   4.940294
                    6          7          8          9         10
     6  O    0.000000
     7  H    4.805046   0.000000
     8  H    2.260929   3.844287   0.000000
     9  H    2.247453   3.209252   1.913354   0.000000
    10  H    2.030965   6.069446   3.434537   4.137971   0.000000
    11  H    2.667019   3.304371   2.926542   3.027367   3.071515
    12  H    3.329882   4.906132   3.634610   4.458594   2.482163
                   11         12
    11  H    0.000000
    12  H    1.856387   0.000000
 Symmetry turned off by external request.
 Stoichiometry    C3H6O3
 Framework group  C1[X(C3H6O3)]
 Deg. of freedom    30
 Full point group                 C1      NOp   1
 Rotational constants (GHZ):           7.2647886           1.7263207           1.5273006
 Standard basis: 6-31+G(d) (6D, 7F)
   126 basis functions,   216 primitive gaussians,   126 cartesian basis functions
    24 alpha electrons       24 beta electrons
       nuclear repulsion energy       228.6811220033 Hartrees.
 NAtoms=   12 NActive=   12 NUniq=   12 SFac= 1.00D+00 NAtFMM=   60 NAOKFM=F Big=F
 Integral buffers will be    131072 words long.
 Raffenetti 2 integral format.
 Two-electron integral symmetry is turned off.
 One-electron integrals computed using PRISM.
 NBasis=   126 RedAO= T EigKep=  1.46D-04  NBF=   126
 NBsUse=   126 1.00D-06 EigRej= -1.00D+00 NBFU=   126
 Initial guess from the checkpoint file:  "/scratch/bell/zhao922/YARP/paper-example/KHP-network/pp_0/IRC-folder/Gau-60193.chk"
 B after Tr=    -0.000131   -0.000645    0.000579
         Rot=    1.000000    0.000203   -0.000128    0.000092 Ang=   0.03 deg.
 ExpMin= 4.38D-02 ExpMax= 5.48D+03 ExpMxC= 8.25D+02 IAcc=3 IRadAn=         5 AccDes= 0.00D+00
 Harris functional with IExCor=  402 and IRadAn=       5 diagonalized for initial guess.
 HarFok:  IExCor=  402 AccDes= 0.00D+00 IRadAn=         5 IDoV= 1 UseB2=F ITyADJ=14
 ICtDFT=  3500011 ScaDFX=  1.000000  1.000000  1.000000  1.000000
 FoFCou: FMM=F IPFlag=           0 FMFlag=      100000 FMFlg1=           0
         NFxFlg=           0 DoJE=T BraDBF=F KetDBF=T FulRan=T
         wScrn=  0.000000 ICntrl=       500 IOpCl=  0 I1Cent=   200000004 NGrid=           0
         NMat0=    1 NMatS0=      1 NMatT0=    0 NMatD0=    1 NMtDS0=    0 NMtDT0=    0
 Symmetry not used in FoFCou.
 Keep R1 ints in memory in canonical form, NReq=47237219.
 Requested convergence on RMS density matrix=1.00D-08 within 128 cycles.
 Requested convergence on MAX density matrix=1.00D-06.
 Requested convergence on             energy=1.00D-06.
 No special actions if energy rises.
 SCF Done:  E(RB3LYP) =  -343.374029056     A.U. after   13 cycles
            NFock= 13  Conv=0.40D-08     -V/T= 2.0094
 DoSCS=F DFT=T ScalE2(SS,OS)=  1.000000  1.000000
 Range of M.O.s used for correlation:     1   126
 NBasis=   126 NAE=    24 NBE=    24 NFC=     0 NFV=     0
 NROrb=    126 NOA=    24 NOB=    24 NVA=   102 NVB=   102

 **** Warning!!: The largest alpha MO coefficient is  0.33763525D+02


 **** Warning!!: The smallest alpha delta epsilon is  0.80796935D-01

 Symmetrizing basis deriv contribution to polar:
 IMax=3 JMax=2 DiffMx= 0.00D+00
 G2DrvN: will do    13 centers at a time, making    1 passes.
 Calling FoFCou, ICntrl=  3107 FMM=F I1Cent=   0 AccDes= 0.00D+00.
 End of G2Drv F.D. properties file   721 does not exist.
 End of G2Drv F.D. properties file   722 does not exist.
 End of G2Drv F.D. properties file   788 does not exist.
          IDoAtm=111111111111
          Differentiating once with respect to nuclear coordinates.
 Keep R1 ints in memory in canonical form, NReq=47193248.
          There are    39 degrees of freedom in the 1st order CPHF.  IDoFFX=6 NUNeed=     0.
     33 vectors produced by pass  0 Test12= 6.28D-15 2.56D-09 XBig12= 2.06D-01 1.79D-01.
 AX will form    33 AO Fock derivatives at one time.
     33 vectors produced by pass  1 Test12= 6.28D-15 2.56D-09 XBig12= 2.89D-02 5.36D-02.
     33 vectors produced by pass  2 Test12= 6.28D-15 2.56D-09 XBig12= 9.91D-04 4.85D-03.
     33 vectors produced by pass  3 Test12= 6.28D-15 2.56D-09 XBig12= 1.26D-05 7.44D-04.
     33 vectors produced by pass  4 Test12= 6.28D-15 2.56D-09 XBig12= 3.65D-08 2.70D-05.
     31 vectors produced by pass  5 Test12= 6.28D-15 2.56D-09 XBig12= 4.31D-11 8.55D-07.
      6 vectors produced by pass  6 Test12= 6.28D-15 2.56D-09 XBig12= 4.02D-14 3.23D-08.
 InvSVY:  IOpt=1 It=  1 EMax= 1.78D-15
 Solved reduced A of dimension   202 with    33 vectors.
 End of Minotr F.D. properties file   721 does not exist.
 End of Minotr F.D. properties file   722 does not exist.
 End of Minotr F.D. properties file   788 does not exist.
 Calling FoFJK, ICntrl=    100127 FMM=F ISym2X=0 I1Cent= 0 IOpClX= 0 NMat=1 NMatS=1 NMatT=0.
 -------------------------------------------------------------------
 Center     Atomic                   Forces (Hartrees/Bohr)
 Number     Number              X              Y              Z
 -------------------------------------------------------------------
      1        6           0.000342928   -0.006935848   -0.000413683
      2        6           0.004118285    0.003314177   -0.000472902
      3        6          -0.000723152    0.002914489   -0.000112283
      4        8           0.005747907   -0.001073557   -0.003529719
      5        8           0.000793368    0.000027145    0.000330739
      6        8          -0.010285838    0.002743635    0.002542401
      7        1           0.000171953    0.000027982    0.000004788
      8        1           0.000002785   -0.000124559   -0.000032361
      9        1          -0.000761273   -0.000882905    0.001063250
     10        1          -0.000156566   -0.000363717   -0.000179974
     11        1           0.000046389    0.000232812    0.001565483
     12        1           0.000703213    0.000120348   -0.000765740
 -------------------------------------------------------------------
 Cartesian Forces:  Max     0.010285838 RMS     0.002682762
 IRC-IRC-IRC-IRC-IRC-IRC-IRC-IRC-IRC-IRC-IRC-IRC-IRC-IRC-IRC-IRC-IRC-IRC
 Pt  2 Step number   1 out of a maximum of 100
 Modified Bulirsch-Stoer Extrapolation Cycles:
    EPS =    0.000010000000000
      PEZero:  N= 2 I= 1 D=  1.41D-03 Err=  4.27D-05
      PEZero:  N= 3 I= 2 D=  1.41D-03 Err=  2.84D-05
      PEZero:  N= 3 I= 1 D=  2.82D-03 Err=  1.06D-07
 Maximum DWI energy   std dev =  0.000001168 at pt    24
 Maximum DWI gradient std dev =  0.042552332 at pt    23
 CORRECTOR INTEGRATION CONVERGENCE:
   Recorrection delta-x convergence threshold:    0.010000
   Delta-x Convergence Met
 Point Number:   2          Path Number:   1
   CHANGE IN THE REACTION COORDINATE =    0.27040
   NET REACTION COORDINATE UP TO THIS POINT =    0.54087
  # OF POINTS ALONG THE PATH =   2
  # OF STEPS =   1

 Calculating another point on the path.
 IRC-IRC-IRC-IRC-IRC-IRC-IRC-IRC-IRC-IRC-IRC-IRC-IRC-IRC-IRC-IRC-IRC-IRC
                          Input orientation:                          
 ---------------------------------------------------------------------
 Center     Atomic      Atomic             Coordinates (Angstroms)
 Number     Number       Type             X           Y           Z
 ---------------------------------------------------------------------
      1          6           0       -0.518236   -0.643456    0.438541
      2          6           0        1.425678    1.313241   -0.059542
      3          6           0        2.102793    0.126384   -0.047036
      4          8           0       -1.492700    0.239262    0.542640
      5          8           0       -2.473334    0.033730   -0.519226
      6          8           0        1.567725   -1.030255   -0.286531
      7          1           0       -2.765722    0.957849   -0.646454
      8          1           0        0.061617   -0.718440    1.346164
      9          1           0       -0.652176   -1.442361   -0.276433
     10          1           0        3.180338    0.114962    0.183552
     11          1           0        0.494550    1.382404   -0.616826
     12          1           0        1.901945    2.244054    0.233250
 ---------------------------------------------------------------------
                    Distance matrix (angstroms):
                    1          2          3          4          5
     1  C    0.000000
     2  C    2.802775   0.000000
     3  C    2.774569   1.366481   0.000000
     4  O    1.318941   3.167488   3.645275   0.000000
     5  O    2.279979   4.129255   4.601357   1.459947   0.000000
     6  O    2.242003   2.358744   1.296715   3.415464   4.185256
     7  H    2.965229   4.247187   4.975246   1.884382   0.977585
     8  H    1.079645   2.822127   2.611731   1.994679   3.235957
     9  H    1.080453   3.458014   3.178591   2.050662   2.356780
    10  H    3.784134   2.138644   1.102000   4.688462   5.697763
    11  H    2.498729   1.087358   2.118654   2.569105   3.261408
    12  H    3.773212   1.085804   2.145560   3.954557   4.959316
                    6          7          8          9         10
     6  O    0.000000
     7  H    4.781303   0.000000
     8  H    2.243053   3.843737   0.000000
     9  H    2.257851   3.219472   1.914780   0.000000
    10  H    2.032983   6.062590   3.431130   4.162331   0.000000
    11  H    2.661151   3.287932   2.907630   3.067597   3.075788
    12  H    3.332113   4.920906   3.660841   4.513642   2.483907
                   11         12
    11  H    0.000000
    12  H    1.856294   0.000000
 Symmetry turned off by external request.
 Stoichiometry    C3H6O3
 Framework group  C1[X(C3H6O3)]
 Deg. of freedom    30
 Full point group                 C1      NOp   1
 Rotational constants (GHZ):           7.2383907           1.7355094           1.5312491
 Standard basis: 6-31+G(d) (6D, 7F)
   126 basis functions,   216 primitive gaussians,   126 cartesian basis functions
    24 alpha electrons       24 beta electrons
       nuclear repulsion energy       228.7649863408 Hartrees.
 NAtoms=   12 NActive=   12 NUniq=   12 SFac= 1.00D+00 NAtFMM=   60 NAOKFM=F Big=F
 Integral buffers will be    131072 words long.
 Raffenetti 2 integral format.
 Two-electron integral symmetry is turned off.
 One-electron integrals computed using PRISM.
 NBasis=   126 RedAO= T EigKep=  1.44D-04  NBF=   126
 NBsUse=   126 1.00D-06 EigRej= -1.00D+00 NBFU=   126
 Initial guess from the checkpoint file:  "/scratch/bell/zhao922/YARP/paper-example/KHP-network/pp_0/IRC-folder/Gau-60193.chk"
 B after Tr=    -0.000167   -0.000648    0.000726
         Rot=    1.000000    0.000173   -0.000105    0.000096 Ang=   0.03 deg.
 ExpMin= 4.38D-02 ExpMax= 5.48D+03 ExpMxC= 8.25D+02 IAcc=3 IRadAn=         5 AccDes= 0.00D+00
 Harris functional with IExCor=  402 and IRadAn=       5 diagonalized for initial guess.
 HarFok:  IExCor=  402 AccDes= 0.00D+00 IRadAn=         5 IDoV= 1 UseB2=F ITyADJ=14
 ICtDFT=  3500011 ScaDFX=  1.000000  1.000000  1.000000  1.000000
 FoFCou: FMM=F IPFlag=           0 FMFlag=      100000 FMFlg1=           0
         NFxFlg=           0 DoJE=T BraDBF=F KetDBF=T FulRan=T
         wScrn=  0.000000 ICntrl=       500 IOpCl=  0 I1Cent=   200000004 NGrid=           0
         NMat0=    1 NMatS0=      1 NMatT0=    0 NMatD0=    1 NMtDS0=    0 NMtDT0=    0
 Symmetry not used in FoFCou.
 Keep R1 ints in memory in canonical form, NReq=47237219.
 Requested convergence on RMS density matrix=1.00D-08 within 128 cycles.
 Requested convergence on MAX density matrix=1.00D-06.
 Requested convergence on             energy=1.00D-06.
 No special actions if energy rises.
 SCF Done:  E(RB3LYP) =  -343.375648082     A.U. after   13 cycles
            NFock= 13  Conv=0.42D-08     -V/T= 2.0094
 DoSCS=F DFT=T ScalE2(SS,OS)=  1.000000  1.000000
 Range of M.O.s used for correlation:     1   126
 NBasis=   126 NAE=    24 NBE=    24 NFC=     0 NFV=     0
 NROrb=    126 NOA=    24 NOB=    24 NVA=   102 NVB=   102

 **** Warning!!: The largest alpha MO coefficient is  0.34274300D+02


 **** Warning!!: The smallest alpha delta epsilon is  0.80570742D-01

 Symmetrizing basis deriv contribution to polar:
 IMax=3 JMax=2 DiffMx= 0.00D+00
 G2DrvN: will do    13 centers at a time, making    1 passes.
 Calling FoFCou, ICntrl=  3107 FMM=F I1Cent=   0 AccDes= 0.00D+00.
 End of G2Drv F.D. properties file   721 does not exist.
 End of G2Drv F.D. properties file   722 does not exist.
 End of G2Drv F.D. properties file   788 does not exist.
          IDoAtm=111111111111
          Differentiating once with respect to nuclear coordinates.
 Keep R1 ints in memory in canonical form, NReq=47193248.
          There are    39 degrees of freedom in the 1st order CPHF.  IDoFFX=6 NUNeed=     0.
     33 vectors produced by pass  0 Test12= 6.28D-15 2.56D-09 XBig12= 1.89D-01 1.74D-01.
 AX will form    33 AO Fock derivatives at one time.
     33 vectors produced by pass  1 Test12= 6.28D-15 2.56D-09 XBig12= 3.29D-02 5.65D-02.
     33 vectors produced by pass  2 Test12= 6.28D-15 2.56D-09 XBig12= 1.11D-03 5.16D-03.
     33 vectors produced by pass  3 Test12= 6.28D-15 2.56D-09 XBig12= 1.49D-05 8.36D-04.
     33 vectors produced by pass  4 Test12= 6.28D-15 2.56D-09 XBig12= 4.09D-08 2.97D-05.
     31 vectors produced by pass  5 Test12= 6.28D-15 2.56D-09 XBig12= 4.78D-11 9.57D-07.
      6 vectors produced by pass  6 Test12= 6.28D-15 2.56D-09 XBig12= 4.45D-14 3.35D-08.
 InvSVY:  IOpt=1 It=  1 EMax= 2.22D-15
 Solved reduced A of dimension   202 with    33 vectors.
 End of Minotr F.D. properties file   721 does not exist.
 End of Minotr F.D. properties file   722 does not exist.
 End of Minotr F.D. properties file   788 does not exist.
 Calling FoFJK, ICntrl=    100127 FMM=F ISym2X=0 I1Cent= 0 IOpClX= 0 NMat=1 NMatS=1 NMatT=0.
 -------------------------------------------------------------------
 Center     Atomic                   Forces (Hartrees/Bohr)
 Number     Number              X              Y              Z
 -------------------------------------------------------------------
      1        6           0.001062805   -0.009936265   -0.000411946
      2        6           0.005969080    0.004824858   -0.000834498
      3        6          -0.001225176    0.003923675   -0.000155868
      4        8           0.008530035   -0.001724942   -0.005161041
      5        8           0.001435109    0.000037422    0.000393002
      6        8          -0.015661818    0.004359981    0.003631845
      7        1           0.000278933    0.000044864    0.000005602
      8        1          -0.000044122   -0.000235238    0.000061689
      9        1          -0.001076227   -0.001380811    0.001469712
     10        1          -0.000227935   -0.000546682   -0.000135547
     11        1          -0.000081240    0.000394290    0.002147492
     12        1           0.001040556    0.000238848   -0.001010440
 -------------------------------------------------------------------
 Cartesian Forces:  Max     0.015661818 RMS     0.003983666
 IRC-IRC-IRC-IRC-IRC-IRC-IRC-IRC-IRC-IRC-IRC-IRC-IRC-IRC-IRC-IRC-IRC-IRC
 Pt  3 Step number   1 out of a maximum of 100
 Modified Bulirsch-Stoer Extrapolation Cycles:
    EPS =    0.000010000000000
      PEZero:  N= 2 I= 1 D=  1.41D-03 Err=  4.41D-05
      PEZero:  N= 3 I= 2 D=  1.41D-03 Err=  2.93D-05
      PEZero:  N= 3 I= 1 D=  2.82D-03 Err=  8.38D-08
 Maximum DWI energy   std dev =  0.000002174 at pt    17
 Maximum DWI gradient std dev =  0.024688725 at pt    24
 CORRECTOR INTEGRATION CONVERGENCE:
   Recorrection delta-x convergence threshold:    0.010000
   Delta-x Convergence Met
 Point Number:   3          Path Number:   1
   CHANGE IN THE REACTION COORDINATE =    0.27042
   NET REACTION COORDINATE UP TO THIS POINT =    0.81129
  # OF POINTS ALONG THE PATH =   3
  # OF STEPS =   1

 Calculating another point on the path.
 IRC-IRC-IRC-IRC-IRC-IRC-IRC-IRC-IRC-IRC-IRC-IRC-IRC-IRC-IRC-IRC-IRC-IRC
                          Input orientation:                          
 ---------------------------------------------------------------------
 Center     Atomic      Atomic             Coordinates (Angstroms)
 Number     Number       Type             X           Y           Z
 ---------------------------------------------------------------------
      1          6           0       -0.516022   -0.659433    0.438337
      2          6           0        1.436276    1.320980   -0.060717
      3          6           0        2.100427    0.133059   -0.047227
      4          8           0       -1.481915    0.237000    0.536195
      5          8           0       -2.471359    0.033748   -0.518800
      6          8           0        1.547698   -1.024735   -0.282065
      7          1           0       -2.759956    0.959026   -0.646410
      8          1           0        0.060888   -0.723528    1.348835
      9          1           0       -0.673982   -1.475461   -0.252429
     10          1           0        3.176779    0.103675    0.181793
     11          1           0        0.483930    1.390716   -0.580005
     12          1           0        1.923846    2.250662    0.214802
 ---------------------------------------------------------------------
                    Distance matrix (angstroms):
                    1          2          3          4          5
     1  C    0.000000
     2  C    2.825342   0.000000
     3  C    2.776621   1.361042   0.000000
     4  O    1.321407   3.169724   3.631027   0.000000
     5  O    2.284721   4.139615   4.597116   1.460590   0.000000
     6  O    2.216160   2.358769   1.304280   3.382319   4.162841
     7  H    2.971754   4.252341   4.966343   1.885011   0.977606
     8  H    1.079787   2.838757   2.615808   1.990789   3.236325
     9  H    1.080746   3.508565   3.213533   2.051147   2.362039
    10  H    3.779541   2.137755   1.100839   4.674057   5.691852
    11  H    2.498006   1.086961   2.116274   2.538014   3.252514
    12  H    3.804152   1.085331   2.141047   3.969551   4.977018
                    6          7          8          9         10
     6  O    0.000000
     7  H    4.756463   0.000000
     8  H    2.227367   3.843066   0.000000
     9  H    2.267134   3.230052   1.915590   0.000000
    10  H    2.035283   6.054946   3.428560   4.184565   0.000000
    11  H    2.656082   3.273158   2.892995   3.108543   3.080299
    12  H    3.334155   4.934370   3.688150   4.566290   2.486057
                   11         12
    11  H    0.000000
    12  H    1.855958   0.000000
 Symmetry turned off by external request.
 Stoichiometry    C3H6O3
 Framework group  C1[X(C3H6O3)]
 Deg. of freedom    30
 Full point group                 C1      NOp   1
 Rotational constants (GHZ):           7.2125465           1.7451155           1.5356185
 Standard basis: 6-31+G(d) (6D, 7F)
   126 basis functions,   216 primitive gaussians,   126 cartesian basis functions
    24 alpha electrons       24 beta electrons
       nuclear repulsion energy       228.8562663410 Hartrees.
 NAtoms=   12 NActive=   12 NUniq=   12 SFac= 1.00D+00 NAtFMM=   60 NAOKFM=F Big=F
 Integral buffers will be    131072 words long.
 Raffenetti 2 integral format.
 Two-electron integral symmetry is turned off.
 One-electron integrals computed using PRISM.
 NBasis=   126 RedAO= T EigKep=  1.42D-04  NBF=   126
 NBsUse=   126 1.00D-06 EigRej= -1.00D+00 NBFU=   126
 Initial guess from the checkpoint file:  "/scratch/bell/zhao922/YARP/paper-example/KHP-network/pp_0/IRC-folder/Gau-60193.chk"
 B after Tr=    -0.000188   -0.000644    0.000867
         Rot=    1.000000    0.000143   -0.000079    0.000100 Ang=   0.02 deg.
 ExpMin= 4.38D-02 ExpMax= 5.48D+03 ExpMxC= 8.25D+02 IAcc=3 IRadAn=         5 AccDes= 0.00D+00
 Harris functional with IExCor=  402 and IRadAn=       5 diagonalized for initial guess.
 HarFok:  IExCor=  402 AccDes= 0.00D+00 IRadAn=         5 IDoV= 1 UseB2=F ITyADJ=14
 ICtDFT=  3500011 ScaDFX=  1.000000  1.000000  1.000000  1.000000
 FoFCou: FMM=F IPFlag=           0 FMFlag=      100000 FMFlg1=           0
         NFxFlg=           0 DoJE=T BraDBF=F KetDBF=T FulRan=T
         wScrn=  0.000000 ICntrl=       500 IOpCl=  0 I1Cent=   200000004 NGrid=           0
         NMat0=    1 NMatS0=      1 NMatT0=    0 NMatD0=    1 NMtDS0=    0 NMtDT0=    0
 Symmetry not used in FoFCou.
 Keep R1 ints in memory in canonical form, NReq=47237219.
 Requested convergence on RMS density matrix=1.00D-08 within 128 cycles.
 Requested convergence on MAX density matrix=1.00D-06.
 Requested convergence on             energy=1.00D-06.
 No special actions if energy rises.
 SCF Done:  E(RB3LYP) =  -343.377852916     A.U. after   13 cycles
            NFock= 13  Conv=0.52D-08     -V/T= 2.0095
 DoSCS=F DFT=T ScalE2(SS,OS)=  1.000000  1.000000
 Range of M.O.s used for correlation:     1   126
 NBasis=   126 NAE=    24 NBE=    24 NFC=     0 NFV=     0
 NROrb=    126 NOA=    24 NOB=    24 NVA=   102 NVB=   102

 **** Warning!!: The largest alpha MO coefficient is  0.34502169D+02


 **** Warning!!: The smallest alpha delta epsilon is  0.81822710D-01

 Symmetrizing basis deriv contribution to polar:
 IMax=3 JMax=2 DiffMx= 0.00D+00
 G2DrvN: will do    13 centers at a time, making    1 passes.
 Calling FoFCou, ICntrl=  3107 FMM=F I1Cent=   0 AccDes= 0.00D+00.
 End of G2Drv F.D. properties file   721 does not exist.
 End of G2Drv F.D. properties file   722 does not exist.
 End of G2Drv F.D. properties file   788 does not exist.
          IDoAtm=111111111111
          Differentiating once with respect to nuclear coordinates.
 Keep R1 ints in memory in canonical form, NReq=47193248.
          There are    39 degrees of freedom in the 1st order CPHF.  IDoFFX=6 NUNeed=     0.
     33 vectors produced by pass  0 Test12= 6.28D-15 2.56D-09 XBig12= 1.72D-01 1.65D-01.
 AX will form    33 AO Fock derivatives at one time.
     33 vectors produced by pass  1 Test12= 6.28D-15 2.56D-09 XBig12= 3.80D-02 5.87D-02.
     33 vectors produced by pass  2 Test12= 6.28D-15 2.56D-09 XBig12= 1.21D-03 5.37D-03.
     33 vectors produced by pass  3 Test12= 6.28D-15 2.56D-09 XBig12= 1.63D-05 8.66D-04.
     33 vectors produced by pass  4 Test12= 6.28D-15 2.56D-09 XBig12= 4.32D-08 3.08D-05.
     30 vectors produced by pass  5 Test12= 6.28D-15 2.56D-09 XBig12= 5.08D-11 1.02D-06.
      5 vectors produced by pass  6 Test12= 6.28D-15 2.56D-09 XBig12= 4.52D-14 3.11D-08.
 InvSVY:  IOpt=1 It=  1 EMax= 1.67D-15
 Solved reduced A of dimension   200 with    33 vectors.
 End of Minotr F.D. properties file   721 does not exist.
 End of Minotr F.D. properties file   722 does not exist.
 End of Minotr F.D. properties file   788 does not exist.
 Calling FoFJK, ICntrl=    100127 FMM=F ISym2X=0 I1Cent= 0 IOpClX= 0 NMat=1 NMatS=1 NMatT=0.
 -------------------------------------------------------------------
 Center     Atomic                   Forces (Hartrees/Bohr)
 Number     Number              X              Y              Z
 -------------------------------------------------------------------
      1        6           0.002113350   -0.012437341   -0.000300383
      2        6           0.007413664    0.006197393   -0.001333218
      3        6          -0.001762751    0.004442626   -0.000201957
      4        8           0.010961099   -0.002393302   -0.006565146
      5        8           0.002193092    0.000025693    0.000393342
      6        8          -0.020687028    0.006069486    0.004514315
      7        1           0.000391631    0.000055888    0.000000072
      8        1          -0.000169184   -0.000396566    0.000213372
      9        1          -0.001299855   -0.001769887    0.001838149
     10        1          -0.000320532   -0.000719771   -0.000026401
     11        1          -0.000143380    0.000604550    0.002621151
     12        1           0.001309895    0.000321232   -0.001153295
 -------------------------------------------------------------------
 Cartesian Forces:  Max     0.020687028 RMS     0.005153216
 IRC-IRC-IRC-IRC-IRC-IRC-IRC-IRC-IRC-IRC-IRC-IRC-IRC-IRC-IRC-IRC-IRC-IRC
 Pt  4 Step number   1 out of a maximum of 100
 Modified Bulirsch-Stoer Extrapolation Cycles:
    EPS =    0.000010000000000
      PEZero:  N= 2 I= 1 D=  1.41D-03 Err=  4.48D-05
      PEZero:  N= 3 I= 2 D=  1.41D-03 Err=  2.98D-05
      PEZero:  N= 3 I= 1 D=  2.82D-03 Err=  9.56D-08
 Maximum DWI energy   std dev =  0.000003380 at pt    26
 Maximum DWI gradient std dev =  0.017915668 at pt    24
 CORRECTOR INTEGRATION CONVERGENCE:
   Recorrection delta-x convergence threshold:    0.010000
   Delta-x Convergence Met
 Point Number:   4          Path Number:   1
   CHANGE IN THE REACTION COORDINATE =    0.27042
   NET REACTION COORDINATE UP TO THIS POINT =    1.08171
  # OF POINTS ALONG THE PATH =   4
  # OF STEPS =   1

 Calculating another point on the path.
 IRC-IRC-IRC-IRC-IRC-IRC-IRC-IRC-IRC-IRC-IRC-IRC-IRC-IRC-IRC-IRC-IRC-IRC
                          Input orientation:                          
 ---------------------------------------------------------------------
 Center     Atomic      Atomic             Coordinates (Angstroms)
 Number     Number       Type             X           Y           Z
 ---------------------------------------------------------------------
      1          6           0       -0.512797   -0.675101    0.438343
      2          6           0        1.446400    1.328789   -0.062342
      3          6           0        2.097845    0.138949   -0.047446
      4          8           0       -1.471132    0.234559    0.529803
      5          8           0       -2.469028    0.033728   -0.518473
      6          8           0        1.527085   -1.018733   -0.277728
      7          1           0       -2.753669    0.960143   -0.646545
      8          1           0        0.057935   -0.730332    1.353502
      9          1           0       -0.694304   -1.506952   -0.227787
     10          1           0        3.172378    0.091990    0.182169
     11          1           0        0.475149    1.400942   -0.543757
     12          1           0        1.944839    2.256543    0.198308
 ---------------------------------------------------------------------
                    Distance matrix (angstroms):
                    1          2          3          4          5
     1  C    0.000000
     2  C    2.846878   0.000000
     3  C    2.777430   1.356585   0.000000
     4  O    1.324482   3.171746   3.616622   0.000000
     5  O    2.290148   4.149195   4.592305   1.461168   0.000000
     6  O    2.189054   2.358763   1.311115   3.348455   4.139390
     7  H    2.978676   4.256498   4.956860   1.885515   0.977582
     8  H    1.079954   2.858747   2.622888   1.986842   3.236298
     9  H    1.081042   3.556883   3.246169   2.051893   2.368088
    10  H    3.772872   2.137395   1.099795   4.658687   5.685047
    11  H    2.500102   1.086414   2.114732   2.510177   3.246243
    12  H    3.833031   1.084945   2.137291   3.983361   4.993686
                    6          7          8          9         10
     6  O    0.000000
     7  H    4.730415   0.000000
     8  H    2.214156   3.842266   0.000000
     9  H    2.274955   3.240818   1.915588   0.000000
    10  H    2.037695   6.046361   3.427535   4.204273   0.000000
    11  H    2.651823   3.260388   2.883745   3.150128   3.084699
    12  H    3.335950   4.946757   3.717029   4.616333   2.488454
                   11         12
    11  H    0.000000
    12  H    1.855452   0.000000
 Symmetry turned off by external request.
 Stoichiometry    C3H6O3
 Framework group  C1[X(C3H6O3)]
 Deg. of freedom    30
 Full point group                 C1      NOp   1
 Rotational constants (GHZ):           7.1872337           1.7551793           1.5404457
 Standard basis: 6-31+G(d) (6D, 7F)
   126 basis functions,   216 primitive gaussians,   126 cartesian basis functions
    24 alpha electrons       24 beta electrons
       nuclear repulsion energy       228.9590252594 Hartrees.
 NAtoms=   12 NActive=   12 NUniq=   12 SFac= 1.00D+00 NAtFMM=   60 NAOKFM=F Big=F
 Integral buffers will be    131072 words long.
 Raffenetti 2 integral format.
 Two-electron integral symmetry is turned off.
 One-electron integrals computed using PRISM.
 NBasis=   126 RedAO= T EigKep=  1.41D-04  NBF=   126
 NBsUse=   126 1.00D-06 EigRej= -1.00D+00 NBFU=   126
 Initial guess from the checkpoint file:  "/scratch/bell/zhao922/YARP/paper-example/KHP-network/pp_0/IRC-folder/Gau-60193.chk"
 B after Tr=    -0.000191   -0.000632    0.000978
         Rot=    1.000000    0.000112   -0.000055    0.000104 Ang=   0.02 deg.
 ExpMin= 4.38D-02 ExpMax= 5.48D+03 ExpMxC= 8.25D+02 IAcc=3 IRadAn=         5 AccDes= 0.00D+00
 Harris functional with IExCor=  402 and IRadAn=       5 diagonalized for initial guess.
 HarFok:  IExCor=  402 AccDes= 0.00D+00 IRadAn=         5 IDoV= 1 UseB2=F ITyADJ=14
 ICtDFT=  3500011 ScaDFX=  1.000000  1.000000  1.000000  1.000000
 FoFCou: FMM=F IPFlag=           0 FMFlag=      100000 FMFlg1=           0
         NFxFlg=           0 DoJE=T BraDBF=F KetDBF=T FulRan=T
         wScrn=  0.000000 ICntrl=       500 IOpCl=  0 I1Cent=   200000004 NGrid=           0
         NMat0=    1 NMatS0=      1 NMatT0=    0 NMatD0=    1 NMtDS0=    0 NMtDT0=    0
 Symmetry not used in FoFCou.
 Keep R1 ints in memory in canonical form, NReq=47237219.
 Requested convergence on RMS density matrix=1.00D-08 within 128 cycles.
 Requested convergence on MAX density matrix=1.00D-06.
 Requested convergence on             energy=1.00D-06.
 No special actions if energy rises.
 SCF Done:  E(RB3LYP) =  -343.380544871     A.U. after   13 cycles
            NFock= 13  Conv=0.54D-08     -V/T= 2.0095
 DoSCS=F DFT=T ScalE2(SS,OS)=  1.000000  1.000000
 Range of M.O.s used for correlation:     1   126
 NBasis=   126 NAE=    24 NBE=    24 NFC=     0 NFV=     0
 NROrb=    126 NOA=    24 NOB=    24 NVA=   102 NVB=   102

 **** Warning!!: The largest alpha MO coefficient is  0.34458626D+02


 **** Warning!!: The smallest alpha delta epsilon is  0.84654794D-01

 Symmetrizing basis deriv contribution to polar:
 IMax=3 JMax=2 DiffMx= 0.00D+00
 G2DrvN: will do    13 centers at a time, making    1 passes.
 Calling FoFCou, ICntrl=  3107 FMM=F I1Cent=   0 AccDes= 0.00D+00.
 End of G2Drv F.D. properties file   721 does not exist.
 End of G2Drv F.D. properties file   722 does not exist.
 End of G2Drv F.D. properties file   788 does not exist.
          IDoAtm=111111111111
          Differentiating once with respect to nuclear coordinates.
 Keep R1 ints in memory in canonical form, NReq=47193248.
          There are    39 degrees of freedom in the 1st order CPHF.  IDoFFX=6 NUNeed=     0.
     33 vectors produced by pass  0 Test12= 6.28D-15 2.56D-09 XBig12= 1.57D-01 1.52D-01.
 AX will form    33 AO Fock derivatives at one time.
     33 vectors produced by pass  1 Test12= 6.28D-15 2.56D-09 XBig12= 4.31D-02 6.08D-02.
     33 vectors produced by pass  2 Test12= 6.28D-15 2.56D-09 XBig12= 1.27D-03 5.24D-03.
     33 vectors produced by pass  3 Test12= 6.28D-15 2.56D-09 XBig12= 1.67D-05 8.50D-04.
     33 vectors produced by pass  4 Test12= 6.28D-15 2.56D-09 XBig12= 4.46D-08 3.05D-05.
     30 vectors produced by pass  5 Test12= 6.28D-15 2.56D-09 XBig12= 5.36D-11 1.05D-06.
      5 vectors produced by pass  6 Test12= 6.28D-15 2.56D-09 XBig12= 4.48D-14 3.11D-08.
 InvSVY:  IOpt=1 It=  1 EMax= 1.33D-15
 Solved reduced A of dimension   200 with    33 vectors.
 End of Minotr F.D. properties file   721 does not exist.
 End of Minotr F.D. properties file   722 does not exist.
 End of Minotr F.D. properties file   788 does not exist.
 Calling FoFJK, ICntrl=    100127 FMM=F ISym2X=0 I1Cent= 0 IOpClX= 0 NMat=1 NMatS=1 NMatT=0.
 -------------------------------------------------------------------
 Center     Atomic                   Forces (Hartrees/Bohr)
 Number     Number              X              Y              Z
 -------------------------------------------------------------------
      1        6           0.003384709   -0.014207358   -0.000089111
      2        6           0.008377534    0.007344853   -0.001817965
      3        6          -0.002433565    0.004397084   -0.000249614
      4        8           0.012872505   -0.003012136   -0.007633319
      5        8           0.003004132   -0.000051702    0.000339444
      6        8          -0.024923256    0.007734492    0.005188002
      7        1           0.000503860    0.000060514   -0.000013499
      8        1          -0.000354387   -0.000597806    0.000404058
      9        1          -0.001397173   -0.002007164    0.002102041
     10        1          -0.000416391   -0.000865836    0.000058900
     11        1          -0.000123209    0.000842161    0.002890243
     12        1           0.001505241    0.000362899   -0.001179181
 -------------------------------------------------------------------
 Cartesian Forces:  Max     0.024923256 RMS     0.006103855
 IRC-IRC-IRC-IRC-IRC-IRC-IRC-IRC-IRC-IRC-IRC-IRC-IRC-IRC-IRC-IRC-IRC-IRC
 Pt  5 Step number   1 out of a maximum of 100
 Modified Bulirsch-Stoer Extrapolation Cycles:
    EPS =    0.000010000000000
      PEZero:  N= 2 I= 1 D=  1.41D-03 Err=  4.64D-05
      PEZero:  N= 3 I= 2 D=  1.41D-03 Err=  3.09D-05
      PEZero:  N= 3 I= 1 D=  2.82D-03 Err=  1.07D-07
 Maximum DWI energy   std dev =  0.000003970 at pt    27
 Maximum DWI gradient std dev =  0.013772428 at pt    24
 CORRECTOR INTEGRATION CONVERGENCE:
   Recorrection delta-x convergence threshold:    0.010000
   Delta-x Convergence Met
 Point Number:   5          Path Number:   1
   CHANGE IN THE REACTION COORDINATE =    0.27042
   NET REACTION COORDINATE UP TO THIS POINT =    1.35213
  # OF POINTS ALONG THE PATH =   5
  # OF STEPS =   1

 Calculating another point on the path.
 IRC-IRC-IRC-IRC-IRC-IRC-IRC-IRC-IRC-IRC-IRC-IRC-IRC-IRC-IRC-IRC-IRC-IRC
                          Input orientation:                          
 ---------------------------------------------------------------------
 Center     Atomic      Atomic             Coordinates (Angstroms)
 Number     Number       Type             X           Y           Z
 ---------------------------------------------------------------------
      1          6           0       -0.508519   -0.690394    0.438565
      2          6           0        1.456062    1.336752   -0.064267
      3          6           0        2.094803    0.143851   -0.047709
      4          8           0       -1.460327    0.231949    0.523464
      5          8           0       -2.466323    0.033613   -0.518243
      6          8           0        1.505900   -1.012183   -0.273434
      7          1           0       -2.746748    0.961158   -0.646905
      8          1           0        0.052718   -0.739042    1.360185
      9          1           0       -0.712677   -1.536441   -0.203169
     10          1           0        3.167252    0.080008    0.183247
     11          1           0        0.468618    1.413118   -0.509240
     12          1           0        1.965222    2.261743    0.183981
 ---------------------------------------------------------------------
                    Distance matrix (angstroms):
                    1          2          3          4          5
     1  C    0.000000
     2  C    2.867358   0.000000
     3  C    2.776638   1.353247   0.000000
     4  O    1.328105   3.173538   3.601799   0.000000
     5  O    2.296229   4.158049   4.586658   1.461684   0.000000
     6  O    2.160642   2.358756   1.316880   3.313821   4.114873
     7  H    2.985890   4.259595   4.946478   1.885838   0.977512
     8  H    1.080156   2.882248   2.632826   1.982986   3.235901
     9  H    1.081341   3.602494   3.275591   2.052847   2.374788
    10  H    3.764306   2.137484   1.098891   4.642555   5.677271
    11  H    2.505573   1.085761   2.113889   2.486457   3.242992
    12  H    3.859964   1.084656   2.134464   3.996211   5.009618
                    6          7          8          9         10
     6  O    0.000000
     7  H    4.703038   0.000000
     8  H    2.203418   3.841367   0.000000
     9  H    2.280760   3.251515   1.914615   0.000000
    10  H    2.039983   6.036636   3.428752   4.220909   0.000000
    11  H    2.648328   3.249893   2.880887   3.192027   3.088583
    12  H    3.337483   4.958282   3.747777   4.663393   2.490952
                   11         12
    11  H    0.000000
    12  H    1.854870   0.000000
 Symmetry turned off by external request.
 Stoichiometry    C3H6O3
 Framework group  C1[X(C3H6O3)]
 Deg. of freedom    30
 Full point group                 C1      NOp   1
 Rotational constants (GHZ):           7.1626681           1.7657957           1.5458078
 Standard basis: 6-31+G(d) (6D, 7F)
   126 basis functions,   216 primitive gaussians,   126 cartesian basis functions
    24 alpha electrons       24 beta electrons
       nuclear repulsion energy       229.0798057999 Hartrees.
 NAtoms=   12 NActive=   12 NUniq=   12 SFac= 1.00D+00 NAtFMM=   60 NAOKFM=F Big=F
 Integral buffers will be    131072 words long.
 Raffenetti 2 integral format.
 Two-electron integral symmetry is turned off.
 One-electron integrals computed using PRISM.
 NBasis=   126 RedAO= T EigKep=  1.40D-04  NBF=   126
 NBsUse=   126 1.00D-06 EigRej= -1.00D+00 NBFU=   126
 Initial guess from the checkpoint file:  "/scratch/bell/zhao922/YARP/paper-example/KHP-network/pp_0/IRC-folder/Gau-60193.chk"
 B after Tr=    -0.000167   -0.000612    0.001031
         Rot=    1.000000    0.000082   -0.000037    0.000109 Ang=   0.02 deg.
 ExpMin= 4.38D-02 ExpMax= 5.48D+03 ExpMxC= 8.25D+02 IAcc=3 IRadAn=         5 AccDes= 0.00D+00
 Harris functional with IExCor=  402 and IRadAn=       5 diagonalized for initial guess.
 HarFok:  IExCor=  402 AccDes= 0.00D+00 IRadAn=         5 IDoV= 1 UseB2=F ITyADJ=14
 ICtDFT=  3500011 ScaDFX=  1.000000  1.000000  1.000000  1.000000
 FoFCou: FMM=F IPFlag=           0 FMFlag=      100000 FMFlg1=           0
         NFxFlg=           0 DoJE=T BraDBF=F KetDBF=T FulRan=T
         wScrn=  0.000000 ICntrl=       500 IOpCl=  0 I1Cent=   200000004 NGrid=           0
         NMat0=    1 NMatS0=      1 NMatT0=    0 NMatD0=    1 NMtDS0=    0 NMtDT0=    0
 Symmetry not used in FoFCou.
 Keep R1 ints in memory in canonical form, NReq=47237219.
 Requested convergence on RMS density matrix=1.00D-08 within 128 cycles.
 Requested convergence on MAX density matrix=1.00D-06.
 Requested convergence on             energy=1.00D-06.
 No special actions if energy rises.
 SCF Done:  E(RB3LYP) =  -343.383595288     A.U. after   13 cycles
            NFock= 13  Conv=0.48D-08     -V/T= 2.0096
 DoSCS=F DFT=T ScalE2(SS,OS)=  1.000000  1.000000
 Range of M.O.s used for correlation:     1   126
 NBasis=   126 NAE=    24 NBE=    24 NFC=     0 NFV=     0
 NROrb=    126 NOA=    24 NOB=    24 NVA=   102 NVB=   102

 **** Warning!!: The largest alpha MO coefficient is  0.34150892D+02


 **** Warning!!: The smallest alpha delta epsilon is  0.88863024D-01

 Symmetrizing basis deriv contribution to polar:
 IMax=3 JMax=2 DiffMx= 0.00D+00
 G2DrvN: will do    13 centers at a time, making    1 passes.
 Calling FoFCou, ICntrl=  3107 FMM=F I1Cent=   0 AccDes= 0.00D+00.
 End of G2Drv F.D. properties file   721 does not exist.
 End of G2Drv F.D. properties file   722 does not exist.
 End of G2Drv F.D. properties file   788 does not exist.
          IDoAtm=111111111111
          Differentiating once with respect to nuclear coordinates.
 Keep R1 ints in memory in canonical form, NReq=47193248.
          There are    39 degrees of freedom in the 1st order CPHF.  IDoFFX=6 NUNeed=     0.
     33 vectors produced by pass  0 Test12= 6.28D-15 2.56D-09 XBig12= 1.47D-01 1.39D-01.
 AX will form    33 AO Fock derivatives at one time.
     33 vectors produced by pass  1 Test12= 6.28D-15 2.56D-09 XBig12= 4.77D-02 7.06D-02.
     33 vectors produced by pass  2 Test12= 6.28D-15 2.56D-09 XBig12= 1.30D-03 5.00D-03.
     33 vectors produced by pass  3 Test12= 6.28D-15 2.56D-09 XBig12= 1.65D-05 8.19D-04.
     33 vectors produced by pass  4 Test12= 6.28D-15 2.56D-09 XBig12= 4.57D-08 2.96D-05.
     30 vectors produced by pass  5 Test12= 6.28D-15 2.56D-09 XBig12= 5.68D-11 1.07D-06.
      5 vectors produced by pass  6 Test12= 6.28D-15 2.56D-09 XBig12= 4.56D-14 3.35D-08.
 InvSVY:  IOpt=1 It=  1 EMax= 1.78D-15
 Solved reduced A of dimension   200 with    33 vectors.
 End of Minotr F.D. properties file   721 does not exist.
 End of Minotr F.D. properties file   722 does not exist.
 End of Minotr F.D. properties file   788 does not exist.
 Calling FoFJK, ICntrl=    100127 FMM=F ISym2X=0 I1Cent= 0 IOpClX= 0 NMat=1 NMatS=1 NMatT=0.
 -------------------------------------------------------------------
 Center     Atomic                   Forces (Hartrees/Bohr)
 Number     Number              X              Y              Z
 -------------------------------------------------------------------
      1        6           0.004779572   -0.015135964    0.000164672
      2        6           0.008910764    0.008155145   -0.002127670
      3        6          -0.003291774    0.004010363   -0.000290308
      4        8           0.014254436   -0.003554058   -0.008320378
      5        8           0.003805662   -0.000223867    0.000239900
      6        8          -0.028233071    0.009128162    0.005702216
      7        1           0.000610427    0.000060217   -0.000036983
      8        1          -0.000560131   -0.000809852    0.000598571
      9        1          -0.001361940   -0.002084030    0.002215521
     10        1          -0.000502370   -0.000984776    0.000049653
     11        1          -0.000046360    0.001075048    0.002914749
     12        1           0.001634785    0.000363612   -0.001109942
 -------------------------------------------------------------------
 Cartesian Forces:  Max     0.028233071 RMS     0.006810365
 IRC-IRC-IRC-IRC-IRC-IRC-IRC-IRC-IRC-IRC-IRC-IRC-IRC-IRC-IRC-IRC-IRC-IRC
 Pt  6 Step number   1 out of a maximum of 100
 Modified Bulirsch-Stoer Extrapolation Cycles:
    EPS =    0.000010000000000
      PEZero:  N= 2 I= 1 D=  1.41D-03 Err=  4.95D-05
      PEZero:  N= 3 I= 2 D=  1.41D-03 Err=  3.30D-05
      PEZero:  N= 3 I= 1 D=  2.82D-03 Err=  9.97D-08
 Maximum DWI energy   std dev =  0.000003479 at pt    27
 Maximum DWI gradient std dev =  0.010596916 at pt    47
 CORRECTOR INTEGRATION CONVERGENCE:
   Recorrection delta-x convergence threshold:    0.010000
   Delta-x Convergence Met
 Point Number:   6          Path Number:   1
   CHANGE IN THE REACTION COORDINATE =    0.27041
   NET REACTION COORDINATE UP TO THIS POINT =    1.62253
  # OF POINTS ALONG THE PATH =   6
  # OF STEPS =   1

 Calculating another point on the path.
 IRC-IRC-IRC-IRC-IRC-IRC-IRC-IRC-IRC-IRC-IRC-IRC-IRC-IRC-IRC-IRC-IRC-IRC
                          Input orientation:                          
 ---------------------------------------------------------------------
 Center     Atomic      Atomic             Coordinates (Angstroms)
 Number     Number       Type             X           Y           Z
 ---------------------------------------------------------------------
      1          6           0       -0.503136   -0.705160    0.438963
      2          6           0        1.465280    1.344828   -0.066293
      3          6           0        2.091085    0.147826   -0.048009
      4          8           0       -1.449458    0.229168    0.517206
      5          8           0       -2.463234    0.033346   -0.518114
      6          8           0        1.484118   -1.005171   -0.269102
      7          1           0       -2.739109    0.962036   -0.647561
      8          1           0        0.045496   -0.749581    1.368652
      9          1           0       -0.728637   -1.563504   -0.179395
     10          1           0        3.161501    0.067706    0.183609
     11          1           0        0.464490    1.427049   -0.477530
     12          1           0        1.985228    2.266245    0.171801
 ---------------------------------------------------------------------
                    Distance matrix (angstroms):
                    1          2          3          4          5
     1  C    0.000000
     2  C    2.886589   0.000000
     3  C    2.773934   1.350843   0.000000
     4  O    1.332147   3.175038   3.586297   0.000000
     5  O    2.302905   4.166215   4.579948   1.462182   0.000000
     6  O    2.130854   2.358809   1.321625   3.278375   4.089267
     7  H    2.993268   4.261606   4.934893   1.885995   0.977409
     8  H    1.080413   2.908849   2.645128   1.979343   3.235210
     9  H    1.081653   3.644785   3.301022   2.053901   2.381909
    10  H    3.753943   2.137909   1.098116   4.625830   5.668442
    11  H    2.514473   1.085106   2.113459   2.467310   3.242780
    12  H    3.884917   1.084456   2.132421   4.008249   5.025001
                    6          7          8          9         10
     6  O    0.000000
     7  H    4.674268   0.000000
     8  H    2.194811   3.840413   0.000000
     9  H    2.283871   3.261830   1.912642   0.000000
    10  H    2.041967   6.025601   3.432458   4.233886   0.000000
    11  H    2.645520   3.241635   2.884729   3.233550   3.091729
    12  H    3.338813   4.969072   3.780241   4.706950   2.493458
                   11         12
    11  H    0.000000
    12  H    1.854325   0.000000
 Symmetry turned off by external request.
 Stoichiometry    C3H6O3
 Framework group  C1[X(C3H6O3)]
 Deg. of freedom    30
 Full point group                 C1      NOp   1
 Rotational constants (GHZ):           7.1392769           1.7770742           1.5517936
 Standard basis: 6-31+G(d) (6D, 7F)
   126 basis functions,   216 primitive gaussians,   126 cartesian basis functions
    24 alpha electrons       24 beta electrons
       nuclear repulsion energy       229.2254300653 Hartrees.
 NAtoms=   12 NActive=   12 NUniq=   12 SFac= 1.00D+00 NAtFMM=   60 NAOKFM=F Big=F
 Integral buffers will be    131072 words long.
 Raffenetti 2 integral format.
 Two-electron integral symmetry is turned off.
 One-electron integrals computed using PRISM.
 NBasis=   126 RedAO= T EigKep=  1.40D-04  NBF=   126
 NBsUse=   126 1.00D-06 EigRej= -1.00D+00 NBFU=   126
 Initial guess from the checkpoint file:  "/scratch/bell/zhao922/YARP/paper-example/KHP-network/pp_0/IRC-folder/Gau-60193.chk"
 B after Tr=    -0.000118   -0.000588    0.001013
         Rot=    1.000000    0.000057   -0.000026    0.000115 Ang=   0.01 deg.
 ExpMin= 4.38D-02 ExpMax= 5.48D+03 ExpMxC= 8.25D+02 IAcc=3 IRadAn=         5 AccDes= 0.00D+00
 Harris functional with IExCor=  402 and IRadAn=       5 diagonalized for initial guess.
 HarFok:  IExCor=  402 AccDes= 0.00D+00 IRadAn=         5 IDoV= 1 UseB2=F ITyADJ=14
 ICtDFT=  3500011 ScaDFX=  1.000000  1.000000  1.000000  1.000000
 FoFCou: FMM=F IPFlag=           0 FMFlag=      100000 FMFlg1=           0
         NFxFlg=           0 DoJE=T BraDBF=F KetDBF=T FulRan=T
         wScrn=  0.000000 ICntrl=       500 IOpCl=  0 I1Cent=   200000004 NGrid=           0
         NMat0=    1 NMatS0=      1 NMatT0=    0 NMatD0=    1 NMtDS0=    0 NMtDT0=    0
 Symmetry not used in FoFCou.
 Keep R1 ints in memory in canonical form, NReq=47237219.
 Requested convergence on RMS density matrix=1.00D-08 within 128 cycles.
 Requested convergence on MAX density matrix=1.00D-06.
[...]
  12                    0.43468   0.25294   0.66134   1.33860  -0.96954
  13                    0.40933   0.27571   0.68585   1.34367  -0.97925
  14                    0.38359   0.29707   0.70961   1.34652  -0.98976
  15                    0.35827   0.31729   0.73096   1.34866  -1.00063
  16                    0.33500   0.33564   0.74835   1.35118  -1.01111
  17                    0.31462   0.35162   0.76146   1.35415  -1.02063
  18                    0.29692   0.36536   0.77078   1.35727  -1.02897
  19                    0.28146   0.37707   0.77686   1.36027  -1.03600
  20                    0.26785   0.38693   0.78010   1.36301  -1.04165
  21                    0.25582   0.39498   0.78077   1.36543  -1.04578
  22                    0.24519   0.40119   0.77908   1.36748  -1.04826
  23                    0.23582   0.40547   0.77519   1.36916  -1.04897
  24                    0.22760   0.40773   0.76926   1.37047  -1.04775
  25                    0.22045   0.40785   0.76146   1.37143  -1.04451
  26                    0.21425   0.40576   0.75197   1.37204  -1.03915
  27                    0.20890   0.40141   0.74099   1.37230  -1.03162
  28                    0.20428   0.39485   0.72876   1.37223  -1.02191
  29                    0.20025   0.38613   0.71550   1.37183  -1.01005
  30                    0.19667   0.37543   0.70143   1.37113  -0.99609
  31                    0.19339   0.36294   0.68676   1.37018  -0.98011
  32                    0.19025   0.34891   0.67166   1.36902  -0.96220
  33                    0.18709   0.33363   0.65628   1.36774  -0.94242
  34                    0.18376   0.31741   0.64072   1.36643  -0.92086
  35                    0.18010   0.30058   0.62509   1.36520  -0.89755
  36                    0.17598   0.28347   0.60944   1.36418  -0.87252
  37                    0.17125   0.26645   0.59385   1.36351  -0.84580
  38                    0.16580   0.24988   0.57839   1.36335  -0.81740
  39                    0.15953   0.23418   0.56315   1.36389  -0.78736
  40                    0.15237   0.21980   0.54826   1.36533  -0.75577
  41                    0.14422   0.20735   0.53373   1.36775  -0.72267
  42                    0.13533   0.19668   0.51991   1.37130  -0.68810
  43                    0.12550   0.18883   0.50696   1.37623  -0.65256
  44                    0.11489   0.18402   0.49502   1.38273  -0.61618
  45                    0.10367   0.18209   0.48447   1.39099  -0.57952
  46                    0.09203   0.18225   0.47571   1.40116  -0.54345
  47                    0.08005   0.18315   0.46915   1.41327  -0.50910
  48                    0.06773   0.18344   0.46494   1.42714  -0.47748
  49                    0.05504   0.18229   0.46293   1.44243  -0.44920
  50                    0.04198   0.17946   0.46279   1.45876  -0.42433
  51                    0.02858   0.17504   0.46409   1.47577  -0.40260
  52                    0.01492   0.16933   0.46644   1.49317  -0.38358
  53                    0.00106   0.16261   0.46951   1.51070  -0.36679
  54                   -0.01294   0.15516   0.47305   1.52820  -0.35175
  55                   -0.02701   0.14720   0.47689   1.54552  -0.33807
  56                   -0.04113   0.13891   0.48089   1.56260  -0.32543
  57                   -0.05524   0.13041   0.48497   1.57943  -0.31356
  58                   -0.06932   0.12180   0.48909   1.59601  -0.30227
  59                   -0.08335   0.11315   0.49324   1.61241  -0.29138
  60                   -0.09731   0.10450   0.49741   1.62869  -0.28074
  61                   -0.11121   0.09587   0.50165   1.64500  -0.27020
  62                   -0.12502   0.08727   0.50601   1.66153  -0.25965
  63                   -0.13871   0.07868   0.51059   1.67853  -0.24895
  64                   -0.15217   0.07009   0.51551   1.69634  -0.23797
  65                   -0.16518   0.06154   0.52093   1.71529  -0.22669
  66                   -0.17734   0.05315   0.52698   1.73558  -0.21517
  67                   -0.18821   0.04512   0.53371   1.75713  -0.20368
  68                   -0.19760   0.03765   0.54105   1.77949  -0.19247
  69                   -0.20573   0.03068   0.54880   1.80205  -0.18162
  70                   -0.21306   0.02389   0.55668   1.82405  -0.17085
  71                   -0.22004   0.01666   0.56433   1.84465  -0.15961
  72                   -0.22699   0.00812   0.57131   1.86290  -0.14717
  73                   -0.23403  -0.00280   0.57722   1.87792  -0.13270
  74                   -0.24109  -0.01722   0.58181   1.88923  -0.11539
  75                   -0.24791  -0.03607   0.58518   1.89706  -0.09459
  76                   -0.25415  -0.05993   0.58766   1.90210  -0.06983
  77                   -0.25949  -0.08904   0.58968   1.90509  -0.04083
  78                   -0.26362  -0.12336   0.59159   1.90654  -0.00755
  79                   -0.26637  -0.16269   0.59372   1.90670   0.02993
  80                   -0.26757  -0.20673   0.59630   1.90558   0.07139
  81                   -0.26713  -0.25498   0.59957   1.90313   0.11645
                          X12       Y12       Z12
   1                    0.85394   1.56698   0.75427
   2                    0.85963   1.57150   0.76178
   3                    0.86513   1.57790   0.76726
   4                    0.87075   1.58622   0.77061
   5                    0.87689   1.59624   0.77197
   6                    0.88398   1.60766   0.77168
   7                    0.89236   1.62016   0.77009
   8                    0.90221   1.63352   0.76745
   9                    0.91358   1.64761   0.76384
  10                    0.92638   1.66242   0.75916
  11                    0.94053   1.67802   0.75310
  12                    0.95610   1.69451   0.74521
  13                    0.97366   1.71207   0.73500
  14                    0.99437   1.73096   0.72233
  15                    1.01888   1.75123   0.70797
  16                    1.04616   1.77224   0.69343
  17                    1.07469   1.79327   0.67965
  18                    1.10370   1.81404   0.66675
  19                    1.13306   1.83455   0.65452
  20                    1.16281   1.85488   0.64271
  21                    1.19303   1.87508   0.63111
  22                    1.22378   1.89522   0.61956
  23                    1.25509   1.91530   0.60795
  24                    1.28695   1.93532   0.59617
  25                    1.31930   1.95526   0.58412
  26                    1.35209   1.97511   0.57172
  27                    1.38521   1.99481   0.55886
  28                    1.41856   2.01432   0.54546
  29                    1.45204   2.03359   0.53141
  30                    1.48555   2.05257   0.51661
  31                    1.51899   2.07117   0.50095
  32                    1.55227   2.08932   0.48437
  33                    1.58530   2.10695   0.46679
  34                    1.61800   2.12395   0.44820
  35                    1.65028   2.14024   0.42860
  36                    1.68203   2.15572   0.40804
  37                    1.71313   2.17031   0.38664
  38                    1.74344   2.18392   0.36456
  39                    1.77282   2.19650   0.34203
  40                    1.80112   2.20801   0.31933
  41                    1.82807   2.21842   0.29689
  42                    1.85405   2.22789   0.27463
  43                    1.87854   2.23633   0.25336
  44                    1.90170   2.24383   0.23333
  45                    1.92367   2.25051   0.21490
  46                    1.94473   2.25644   0.19842
  47                    1.96515   2.26167   0.18407
  48                    1.98518   2.26619   0.17186
  49                    2.00493   2.26997   0.16156
  50                    2.02442   2.27300   0.15283
  51                    2.04362   2.27532   0.14530
  52                    2.06248   2.27696   0.13863
  53                    2.08092   2.27797   0.13255
  54                    2.09891   2.27839   0.12686
  55                    2.11642   2.27825   0.12140
  56                    2.13346   2.27760   0.11606
  57                    2.15004   2.27644   0.11079
  58                    2.16621   2.27480   0.10552
  59                    2.18205   2.27268   0.10022
  60                    2.19764   2.27006   0.09486
  61                    2.21311   2.26692   0.08943
  62                    2.22863   2.26320   0.08391
  63                    2.24440   2.25883   0.07833
  64                    2.26061   2.25370   0.07278
  65                    2.27743   2.24769   0.06748
  66                    2.29487   2.24076   0.06287
  67                    2.31262   2.23298   0.05963
  68                    2.33021   2.22451   0.05849
  69                    2.34714   2.21548   0.05996
  70                    2.36302   2.20595   0.06423
  71                    2.37745   2.19601   0.07117
  72                    2.39007   2.18584   0.08036
  73                    2.40059   2.17582   0.09110
  74                    2.40905   2.16633   0.10235
  75                    2.41588   2.15761   0.11304
  76                    2.42172   2.14969   0.12228
  77                    2.42712   2.14248   0.12954
  78                    2.43239   2.13584   0.13466
  79                    2.43759   2.12967   0.13771
  80                    2.44264   2.12390   0.13889
  81                    2.44738   2.11847   0.13850
 --------------------------------------------------------------------------
 
 Total number of points:                   80
 Total number of gradient calculations:    81
 Total number of Hessian calculations:     81
 IRC-IRC-IRC-IRC-IRC-IRC-IRC-IRC-IRC-IRC-IRC-IRC-IRC-IRC-IRC-IRC-IRC-IRC
                          Input orientation:                          
 ---------------------------------------------------------------------
 Center     Atomic      Atomic             Coordinates (Angstroms)
 Number     Number       Type             X           Y           Z
 ---------------------------------------------------------------------
      1          6           0       -0.366231   -0.227699    0.515412
      2          6           0        0.719835    0.741703    0.042340
      3          6           0        2.046100    0.046749   -0.178457
      4          8           0       -1.643914    0.388535    0.664994
      5          8           0       -2.365117    0.161124   -0.591627
      6          8           0        2.158388   -1.145639   -0.381877
      7          1           0       -2.847684    1.004849   -0.658415
      8          1           0       -0.129461   -0.604150    1.517494
      9          1           0       -0.456923   -1.086311   -0.153532
     10          1           0        2.947985    0.697450   -0.164409
     11          1           0        0.430354    1.202974   -0.915293
     12          1           0        0.853902    1.567024    0.754229
 ---------------------------------------------------------------------
                    Distance matrix (angstroms):
                    1          2          3          4          5
     1  C    0.000000
     2  C    1.530712   0.000000
     3  C    2.525097   1.513503   0.000000
     4  O    1.426392   2.469765   3.800583   0.000000
     5  O    2.317814   3.202486   4.432000   1.466611   0.000000
     6  O    2.832215   2.410695   1.214815   4.231681   4.713143
     7  H    3.009095   3.645203   5.009735   1.892173   0.974271
     8  H    1.096332   2.169955   2.834252   2.001436   3.167364
     9  H    1.092212   2.182834   2.747648   2.062548   2.321471
    10  H    3.507433   2.238159   1.112208   4.676417   5.357164
    11  H    2.174463   1.101650   2.119061   2.731887   3.000811
    12  H    2.183298   1.098141   2.145338   2.763310   3.761644
                    6          7          8          9         10
     6  O    0.000000
     7  H    5.455440   0.000000
     8  H    3.022428   3.835648   0.000000
     9  H    2.625931   3.216147   1.769757   0.000000
    10  H    2.016862   5.824802   3.740807   3.843868   0.000000
    11  H    2.964222   3.294052   3.081808   2.570675   2.675415
    12  H    3.217290   4.001668   2.502713   3.095558   2.446474
                   11         12
    11  H    0.000000
    12  H    1.760463   0.000000
 Symmetry turned off by external request.
 Stoichiometry    C3H6O3
 Framework group  C1[X(C3H6O3)]
 Deg. of freedom    30
 Full point group                 C1      NOp   1
 Rotational constants (GHZ):           9.7319005           1.6183580           1.5584002

 **********************************************************************

            Population analysis using the SCF Density.

 **********************************************************************

 Alpha  occ. eigenvalues --  -19.22486 -19.22403 -19.17475 -10.29967 -10.25310
 Alpha  occ. eigenvalues --  -10.21662  -1.12865  -1.06782  -0.93409  -0.78907
 Alpha  occ. eigenvalues --   -0.66624  -0.58299  -0.55161  -0.50886  -0.48614
 Alpha  occ. eigenvalues --   -0.46640  -0.46090  -0.43360  -0.40023  -0.38929
 Alpha  occ. eigenvalues --   -0.36612  -0.34655  -0.28286  -0.26091
 Alpha virt. eigenvalues --   -0.04983  -0.01365   0.00403   0.01499   0.02822
 Alpha virt. eigenvalues --    0.03944   0.05149   0.06922   0.07605   0.08183
 Alpha virt. eigenvalues --    0.08896   0.11165   0.11695   0.13900   0.14720
 Alpha virt. eigenvalues --    0.15993   0.18038   0.18178   0.21006   0.21651
 Alpha virt. eigenvalues --    0.22396   0.22632   0.24093   0.25295   0.26534
 Alpha virt. eigenvalues --    0.26902   0.28295   0.29025   0.30285   0.32154
 Alpha virt. eigenvalues --    0.33118   0.34279   0.36238   0.36908   0.38257
 Alpha virt. eigenvalues --    0.44596   0.63044   0.65146   0.66441   0.67565
 Alpha virt. eigenvalues --    0.70162   0.71437   0.78373   0.83300   0.86494
 Alpha virt. eigenvalues --    0.90955   0.93752   0.96439   1.01020   1.05288
 Alpha virt. eigenvalues --    1.06382   1.07774   1.10908   1.15108   1.15677
 Alpha virt. eigenvalues --    1.20240   1.22510   1.23640   1.25950   1.28529
 Alpha virt. eigenvalues --    1.30300   1.31659   1.42428   1.46362   1.50240
 Alpha virt. eigenvalues --    1.52008   1.55913   1.59940   1.61966   1.64668
 Alpha virt. eigenvalues --    1.69755   1.75264   1.77611   1.80741   1.85638
 Alpha virt. eigenvalues --    1.88138   1.91604   1.96861   2.03256   2.05072
 Alpha virt. eigenvalues --    2.07587   2.11621   2.23649   2.26575   2.29269
 Alpha virt. eigenvalues --    2.40185   2.43924   2.47984   2.52160   2.55514
 Alpha virt. eigenvalues --    2.59383   2.71856   2.87961   2.90045   3.04948
 Alpha virt. eigenvalues --    3.12442   3.96755   4.12621   4.18477   4.26557
 Alpha virt. eigenvalues --    4.35268   4.54661
          Condensed to atoms (all electrons):
               1          2          3          4          5          6
     1  C    5.584133  -0.287367   0.013642   0.150859  -0.073723   0.049317
     2  C   -0.287367   6.691407  -0.155923  -0.103460   0.034632  -0.182696
     3  C    0.013642  -0.155923   5.110420   0.036854   0.013807   0.468406
     4  O    0.150859  -0.103460   0.036854   8.078007   0.104531  -0.000673
     5  O   -0.073723   0.034632   0.013807   0.104531   8.247801   0.000307
     6  O    0.049317  -0.182696   0.468406  -0.000673   0.000307   8.084444
     7  H    0.019691  -0.010549   0.000742  -0.030691   0.193246   0.000026
     8  H    0.409232  -0.073478   0.011920  -0.046121   0.006576  -0.001348
     9  H    0.432562  -0.075235  -0.006502  -0.024867  -0.014230   0.000881
    10  H    0.029234  -0.160503   0.404508  -0.000545   0.000071  -0.063120
    11  H   -0.033435   0.350523  -0.007305  -0.003650   0.005236  -0.003410
    12  H   -0.045289   0.385464  -0.037163  -0.000248   0.000085   0.004971
               7          8          9         10         11         12
     1  C    0.019691   0.409232   0.432562   0.029234  -0.033435  -0.045289
     2  C   -0.010549  -0.073478  -0.075235  -0.160503   0.350523   0.385464
     3  C    0.000742   0.011920  -0.006502   0.404508  -0.007305  -0.037163
     4  O   -0.030691  -0.046121  -0.024867  -0.000545  -0.003650  -0.000248
     5  O    0.193246   0.006576  -0.014230   0.000071   0.005236   0.000085
     6  O    0.000026  -0.001348   0.000881  -0.063120  -0.003410   0.004971
     7  H    0.356474  -0.000337   0.000305  -0.000000  -0.000309   0.000081
     8  H   -0.000337   0.509084  -0.025432  -0.000187   0.003530  -0.004813
     9  H    0.000305  -0.025432   0.470440  -0.000088  -0.003472   0.003467
    10  H   -0.000000  -0.000187  -0.000088   0.624722   0.001656   0.002020
    11  H   -0.000309   0.003530  -0.003472   0.001656   0.478135  -0.029682
    12  H    0.000081  -0.004813   0.003467   0.002020  -0.029682   0.499871
 Mulliken charges:
               1
     1  C   -0.248855
     2  C   -0.412816
     3  C    0.146593
     4  O   -0.159995
     5  O   -0.518341
     6  O   -0.357106
     7  H    0.471320
     8  H    0.211375
     9  H    0.242171
    10  H    0.162233
    11  H    0.242184
    12  H    0.221236
 Sum of Mulliken charges =  -0.00000
 Mulliken charges with hydrogens summed into heavy atoms:
               1
     1  C    0.204691
     2  C    0.050605
     3  C    0.308826
     4  O   -0.159995
     5  O   -0.047021
     6  O   -0.357106
 APT charges:
               1
     1  C   -0.759218
     2  C   -0.589172
     3  C   -0.430454
     4  O   -0.165509
     5  O   -0.811511
     6  O   -0.261249
     7  H    0.775117
     8  H    0.449165
     9  H    0.382413
    10  H    0.546364
    11  H    0.405111
    12  H    0.458942
 Sum of APT charges =  -0.00000
 APT charges with hydrogens summed into heavy atoms:
               1
     1  C    0.072360
     2  C    0.274880
     3  C    0.115910
     4  O   -0.165509
     5  O   -0.036393
     6  O   -0.261249
 Electronic spatial extent (au):  <R**2>=            747.7624
 Charge=             -0.0000 electrons
 Dipole moment (field-independent basis, Debye):
    X=              0.0409    Y=              3.3391    Z=              0.1237  Tot=              3.3416
 Quadrupole moment (field-independent basis, Debye-Ang):
   XX=            -37.2740   YY=            -36.5826   ZZ=            -35.6813
   XY=              1.9315   XZ=              3.4301   YZ=             -2.7884
 Traceless Quadrupole moment (field-independent basis, Debye-Ang):
   XX=             -0.7614   YY=             -0.0700   ZZ=              0.8313
   XY=              1.9315   XZ=              3.4301   YZ=             -2.7884
 Octapole moment (field-independent basis, Debye-Ang**2):
  XXX=            -23.4120  YYY=              1.2074  ZZZ=             -0.7775  XYY=            -14.0623
  XXY=             25.3743  XXZ=             -4.9590  XZZ=             -1.5670  YZZ=             -0.5502
  YYZ=             -0.8995  XYZ=              2.2201
 Hexadecapole moment (field-independent basis, Debye-Ang**3):
 XXXX=           -649.1260 YYYY=           -136.2396 ZZZZ=            -90.1824 XXXY=             27.5027
 XXXZ=             41.1010 YYYX=             44.5371 YYYZ=             -8.2422 ZZZX=             16.2524
 ZZZY=             -8.0304 XXYY=           -135.7555 XXZZ=           -130.7329 YYZZ=            -36.3517
 XXYZ=            -18.7149 YYXZ=             12.2605 ZZXY=             13.4350
 N-N= 2.336648333986D+02 E-N=-1.272015675087D+03  KE= 3.403622446037D+02
  Exact polarizability:   0.000   0.000   0.000   0.000   0.000   0.000
 Approx polarizability:  66.748  -4.349  74.082   5.815   3.625  59.857

 This type of calculation cannot be archived.


 ...THOSE SCIENCES ARE VAIN AND FULL OF ERRORS WHICH 
 ARE NOT BORN FROM EXPERIMENT, THE MOTHER OF CERTAINTY...

                          -- LEONARDO DA VINCI, 1452-1519
 Job cpu time:       0 days  7 hours 21 minutes  6.9 seconds.
 Elapsed time:       0 days  0 hours 33 minutes 24.3 seconds.
 File lengths (MBytes):  RWF=     28 Int=      0 D2E=      0 Chk=      4 Scr=      1
 Normal termination of Gaussian 16 at Thu Dec 24 00:00:00 2020.
