 Entering Gaussian System, Link 0=g16
 Initial command:
 /apps/cent7/gaussian/g16-B.01/g16-haswell/g16/l1.exe "/scratch/bell/zhao922/YARP/paper-example/KHP-network/pp_0/IRC-folder/Gau-109892.inp" -scrdir="/scratch/bell/zhao922/YARP/paper-example/KHP-network/pp_0/IRC-folder/"
 Entering Link 1 = /apps/cent7/gaussian/g16-B.01/g16-haswell/g16/l1.exe PID=    109893.
  
 Copyright (c) 1988-2017, Gaussian, Inc.  All Rights Reserved.
  
 This is part of the Gaussian(R) 16 program.  It is based on
 the Gaussian(R) 09 system (copyright 2009, Gaussian, Inc.),
 the Gaussian(R) 03 system (copyright 2003, Gaussian, Inc.),
 the Gaussian(R) 98 system (copyright 1998, Gaussian, Inc.),
 the Gaussian(R) 94 system (copyright 1995, Gaussian, Inc.),
 the Gaussian 92(TM) system (copyright 1992, Gaussian, Inc.),
 the Gaussian 90(TM) system (copyright 1990, Gaussian, Inc.),
 the Gaussian 88(TM) system (copyright 1988, Gaussian, Inc.),
 the Gaussian 86(TM) system (copyright 1986, Carnegie Mellon
 University), and the Gaussian 82(TM) system (copyright 1983,
 Carnegie Mellon University). Gaussian is a federally registered
 trademark of Gaussian, Inc.
  
 This software contains proprietary and confidential information,
 including trade secrets, belonging to Gaussian, Inc.
  
 This software is provided under written license and may be
 used, copied, transmitted, or stored only in accord with that
 written license.
  
 The following legend is applicable only to US Government
 contracts under FAR:
  
                    RESTRICTED RIGHTS LEGEND
  
 Use, reproduction and disclosure by the US Government is
 subject to restrictions as set forth in subparagraphs (a)
 and (c) of the Commercial Computer Software - Restricted
 Rights clause in FAR 52.227-19.
  
 Gaussian, Inc.
 340 Quinnipiac St., Bldg. 40, Wallingford CT 06492
  
  
 ---------------------------------------------------------------
 Warning -- This program may not be used in any manner that
 competes with the business of Gaussian, Inc. or will provide
 assistance to any competitor of Gaussian, Inc.  The licensee
 of this program is prohibited from giving any competitor of
 Gaussian, Inc. access to this program.  By using this program,
 the user acknowledges that Gaussian, Inc. is engaged in the
 business of creating and licensing software in the field of
 computational chemistry and represents and warrants to the
 licensee that it is not a competitor of Gaussian, Inc. and that
 it will not use this program in any manner prohibited above.
 ---------------------------------------------------------------
  

 Cite this work as:
 Gaussian 16, Revision B.01,
 M. J. Frisch, G. W. Trucks, H. B. Schlegel, G. E. Scuseria, 
 M. A. Robb, J. R. Cheeseman, G. Scalmani, V. Barone, 
 G. A. Petersson, H. Nakatsuji, X. Li, M. Caricato, A. V. Marenich, 
 J. Bloino, B. G. Janesko, R. Gomperts, B. Mennucci, H. P. Hratchian, 
 J. V. Ortiz, A. F. Izmaylov, J. L. Sonnenberg, D. Williams-Young, 
 F. Ding, F. Lipparini, F. Egidi, J. Goings, B. Peng, A. Petrone, 
 T. Henderson, D. Ranasinghe, V. G. Zakrzewski, J. Gao, N. Rega, 
 G. Zheng, W. Liang, M. Hada, M. Ehara, K. Toyota, R. Fukuda, 
 J. Hasegawa, M. Ishida, T. Nakajima, Y. Honda, O. Kitao, H. Nakai, 
 T. Vreven, K. Throssell, J. A. Montgomery, Jr., J. E. Peralta, 
 F. Ogliaro, M. J. Bearpark, J. J. Heyd, E. N. Brothers, K. N. Kudin, 
 V. N. Staroverov, T. A. Keith, R. Kobayashi, J. Normand, 
 K. Raghavachari, A. P. Rendell, J. C. Burant, S. S. Iyengar, 
 J. Tomasi, M. Cossi, J. M. Millam, M. Klene, C. Adamo, R. Cammi, 
 J. W. Ochterski, R. L. Martin, K. Morokuma, O. Farkas, 
 J. B. Foresman, and D. J. Fox, Gaussian, Inc., Wallingford CT, 2016.
 
 ******************************************
 Gaussian 16:  ES64L-G16RevB.01 20-Dec-2017
                23-Dec-2020 
 ******************************************
 %NProcShared=16
 Will use up to   16 processors via shared memory.
 %Mem=6GB
 ----------------------------------------------------------------------
 # B3LYP/6-31+G* IRC=(CALCALL, maxpoints=40, StepSize=15, maxcyc=100, R
 eport=Cartesians)
 ----------------------------------------------------------------------
 1/6=100,10=4,18=10,26=3,38=1,39=15,42=40,44=3,71=1,129=10,172=1/1,23;
 2/12=2,17=6,18=5,29=1,40=1/2;
 3/5=1,6=6,7=11,11=2,25=1,30=1,71=2,74=-5,140=1/1,2,3;
 4//1;
 5/5=2,38=5/2;
 8/6=4,10=90,11=11/1;
 11/6=1,8=1,9=11,15=111,16=1/1,2,10;
 10/6=1,13=1/2;
 6/7=2,8=2,9=2,10=2,18=1,28=1/1;
 7/10=1,25=1/1,2,3,16;
 1/6=100,10=4,18=10,26=3,39=15,42=40,44=3,71=1,129=10/23(2);
 2/29=1/2;
 99/5=20/99;
 2/29=1/2;
 3/5=1,6=6,7=11,11=2,25=1,30=1,71=2,74=-5,140=1/1,2,3;
 4/5=5,16=3,69=1/1;
 5/5=2,38=5/2;
 8/6=4,10=90,11=11/1;
 11/6=1,8=1,9=11,15=111,16=1/1,2,10;
 10/6=1,13=1/2;
 7/10=1,25=1/1,2,3,16;
 1/6=100,10=4,18=10,26=3,39=15,42=40,44=3,71=1,129=10/23(-8);
 2/29=1/2;
 6/7=2,8=2,9=2,10=2,18=1,19=2,28=1/1;
 99/5=20/99;
 -----------
 pp_12_1 IRC
 -----------
 Symbolic Z-matrix:
 Charge =  0 Multiplicity = 1
 C                    -0.36896   0.2795   -0.43795 
 C                     0.74411   1.11233  -0.066 
 C                     1.4754   -0.28996   0.44422 
 O                    -1.50835   0.42935   0.22857 
 O                    -2.36515  -0.73596  -0.0395 
 O                     2.46067  -0.71135  -0.21864 
 H                    -3.23229  -0.33475   0.16288 
 H                    -0.39287  -0.3096   -1.35098 
 H                     0.48082  -1.0085    0.39007 
 H                     1.48082  -0.16993   1.54744 
 H                     0.54214   1.82416   0.73434 
 H                     1.32073   1.53109  -0.88895 
 
 IRC-IRC-IRC-IRC-IRC-IRC-IRC-IRC-IRC-IRC-IRC-IRC-IRC-IRC-IRC-IRC-IRC-IRC
 ------------------------------------------------------------------------
 INPUT DATA FOR L123
 ------------------------------------------------------------------------
 GENERAL PARAMETERS:
 Follow reaction path in both directions.
 Maximum points per path      =  40
 Step size                    =   0.150 bohr
 Integration scheme           = HPC                                 
    Redo corrector integration= Yes                                 
    DWI Weight Power          =  2
    DWI will use Hessian update vectors when possible.
    Max correction cycles     = 100
 Initial Hessian              = CalcFC
 Hessian evaluation           = Analytic at all predictor steps
                              = Update at all corrector steps
 Hessian updating method      = Bofill                              
 ------------------------------------------------------------------------
 IRC-IRC-IRC-IRC-IRC-IRC-IRC-IRC-IRC-IRC-IRC-IRC-IRC-IRC-IRC-IRC-IRC-IRC
                          Input orientation:                          
 ---------------------------------------------------------------------
 Center     Atomic      Atomic             Coordinates (Angstroms)
 Number     Number       Type             X           Y           Z
 ---------------------------------------------------------------------
      1          6           0       -0.368958    0.279501   -0.437946
      2          6           0        0.744105    1.112333   -0.065996
      3          6           0        1.475403   -0.289963    0.444222
      4          8           0       -1.508352    0.429348    0.228574
      5          8           0       -2.365148   -0.735962   -0.039500
      6          8           0        2.460671   -0.711348   -0.218635
      7          1           0       -3.232288   -0.334750    0.162875
      8          1           0       -0.392873   -0.309598   -1.350977
      9          1           0        0.480818   -1.008501    0.390073
     10          1           0        1.480816   -0.169930    1.547444
     11          1           0        0.542136    1.824158    0.734337
     12          1           0        1.320729    1.531093   -0.888947
 ---------------------------------------------------------------------
                    Distance matrix (angstroms):
                    1          2          3          4          5
     1  C    0.000000
     2  C    1.439050   0.000000
     3  C    2.122305   1.661792   0.000000
     4  O    1.328504   2.372088   3.076801   0.000000
     5  O    2.274796   3.617230   3.896503   1.471024   0.000000
     6  O    3.006107   2.509125   1.260039   4.153833   4.829205
     7  H    2.989473   4.237704   4.716303   1.886827   0.976657
     8  H    1.086846   2.228404   2.591058   2.070100   2.406580
     9  H    1.751195   2.185236   1.228181   2.459734   2.891078
    10  H    2.750532   2.188637   1.109746   3.321698   4.198836
    11  H    2.142500   1.089963   2.329090   2.530967   3.950359
    12  H    2.150564   1.088625   2.262191   3.235181   4.409851
                    6          7          8          9         10
     6  O    0.000000
     7  H    5.718143   0.000000
     8  H    3.096177   3.217865   0.000000
     9  H    2.092521   3.780571   2.069555   0.000000
    10  H    2.091001   4.915033   3.454137   1.744335   0.000000
    11  H    3.319296   4.385628   3.126610   2.854161   2.349181
    12  H    2.603330   5.031666   2.556960   2.964942   2.975753
                   11         12
    11  H    0.000000
    12  H    1.824046   0.000000
 Symmetry turned off by external request.
 Stoichiometry    C3H6O3
 Framework group  C1[X(C3H6O3)]
 Deg. of freedom    30
 Full point group                 C1      NOp   1
 Rotational constants (GHZ):           9.1048426           1.7766303           1.6005107
 Standard basis: 6-31+G(d) (6D, 7F)
   126 basis functions,   216 primitive gaussians,   126 cartesian basis functions
    24 alpha electrons       24 beta electrons
       nuclear repulsion energy       237.0208567297 Hartrees.
 NAtoms=   12 NActive=   12 NUniq=   12 SFac= 1.00D+00 NAtFMM=   60 NAOKFM=F Big=F
 Integral buffers will be    131072 words long.
 Raffenetti 2 integral format.
 Two-electron integral symmetry is turned off.
 One-electron integrals computed using PRISM.
 NBasis=   126 RedAO= T EigKep=  9.14D-05  NBF=   126
 NBsUse=   126 1.00D-06 EigRej= -1.00D+00 NBFU=   126
 ExpMin= 4.38D-02 ExpMax= 5.48D+03 ExpMxC= 8.25D+02 IAcc=3 IRadAn=         5 AccDes= 0.00D+00
 Harris functional with IExCor=  402 and IRadAn=       5 diagonalized for initial guess.
 HarFok:  IExCor=  402 AccDes= 0.00D+00 IRadAn=         5 IDoV= 1 UseB2=F ITyADJ=14
 ICtDFT=  3500011 ScaDFX=  1.000000  1.000000  1.000000  1.000000
 FoFCou: FMM=F IPFlag=           0 FMFlag=      100000 FMFlg1=           0
         NFxFlg=           0 DoJE=T BraDBF=F KetDBF=T FulRan=T
         wScrn=  0.000000 ICntrl=       500 IOpCl=  0 I1Cent=   200000004 NGrid=           0
         NMat0=    1 NMatS0=      1 NMatT0=    0 NMatD0=    1 NMtDS0=    0 NMtDT0=    0
 Symmetry not used in FoFCou.
 Keep R1 ints in memory in canonical form, NReq=47237243.
 Requested convergence on RMS density matrix=1.00D-08 within 128 cycles.
 Requested convergence on MAX density matrix=1.00D-06.
 Requested convergence on             energy=1.00D-06.
 No special actions if energy rises.
 EnCoef did     3 forward-backward iterations
 EnCoef did     4 forward-backward iterations
 SCF Done:  E(RB3LYP) =  -343.388625143     A.U. after   17 cycles
            NFock= 17  Conv=0.21D-08     -V/T= 2.0091
 DoSCS=F DFT=T ScalE2(SS,OS)=  1.000000  1.000000
 Range of M.O.s used for correlation:     1   126
 NBasis=   126 NAE=    24 NBE=    24 NFC=     0 NFV=     0
 NROrb=    126 NOA=    24 NOB=    24 NVA=   102 NVB=   102

 **** Warning!!: The largest alpha MO coefficient is  0.24705410D+02

 Symmetrizing basis deriv contribution to polar:
 IMax=3 JMax=2 DiffMx= 0.00D+00
 G2DrvN: will do    13 centers at a time, making    1 passes.
 Calling FoFCou, ICntrl=  3107 FMM=F I1Cent=   0 AccDes= 0.00D+00.
 End of G2Drv F.D. properties file   721 does not exist.
 End of G2Drv F.D. properties file   722 does not exist.
 End of G2Drv F.D. properties file   788 does not exist.
          IDoAtm=111111111111
          Differentiating once with respect to nuclear coordinates.
 Keep R1 ints in memory in canonical form, NReq=47193251.
          There are    39 degrees of freedom in the 1st order CPHF.  IDoFFX=6 NUNeed=     0.
     33 vectors produced by pass  0 Test12= 6.28D-15 2.56D-09 XBig12= 2.15D-01 1.82D-01.
 AX will form    33 AO Fock derivatives at one time.
     33 vectors produced by pass  1 Test12= 6.28D-15 2.56D-09 XBig12= 5.08D-02 5.70D-02.
     33 vectors produced by pass  2 Test12= 6.28D-15 2.56D-09 XBig12= 1.15D-03 5.98D-03.
     33 vectors produced by pass  3 Test12= 6.28D-15 2.56D-09 XBig12= 8.74D-06 5.37D-04.
     33 vectors produced by pass  4 Test12= 6.28D-15 2.56D-09 XBig12= 2.58D-08 2.13D-05.
     30 vectors produced by pass  5 Test12= 6.28D-15 2.56D-09 XBig12= 3.28D-11 9.48D-07.
      7 vectors produced by pass  6 Test12= 6.28D-15 2.56D-09 XBig12= 3.11D-14 1.97D-08.
 InvSVY:  IOpt=1 It=  1 EMax= 1.11D-15
 Solved reduced A of dimension   202 with    33 vectors.
 End of Minotr F.D. properties file   721 does not exist.
 End of Minotr F.D. properties file   722 does not exist.
 End of Minotr F.D. properties file   788 does not exist.

 **********************************************************************

            Population analysis using the SCF Density.

 **********************************************************************

 Alpha  occ. eigenvalues --  -19.30779 -19.27465 -19.08955 -10.33166 -10.26772
 Alpha  occ. eigenvalues --  -10.22075  -1.20333  -1.01226  -0.98220  -0.81665
 Alpha  occ. eigenvalues --   -0.65533  -0.62865  -0.60203  -0.55318  -0.51997
 Alpha  occ. eigenvalues --   -0.45041  -0.44916  -0.43784  -0.41376  -0.39902
 Alpha  occ. eigenvalues --   -0.38452  -0.34502  -0.23088  -0.21667
 Alpha virt. eigenvalues --   -0.08086  -0.05956  -0.01061   0.01796   0.02070
 Alpha virt. eigenvalues --    0.02895   0.05851   0.06700   0.07127   0.08081
 Alpha virt. eigenvalues --    0.08784   0.10019   0.11877   0.12686   0.13593
 Alpha virt. eigenvalues --    0.15795   0.16432   0.18833   0.19031   0.20134
 Alpha virt. eigenvalues --    0.21714   0.22570   0.23817   0.25195   0.25769
 Alpha virt. eigenvalues --    0.26494   0.27977   0.29534   0.30919   0.32225
 Alpha virt. eigenvalues --    0.33330   0.33770   0.34203   0.35517   0.37268
 Alpha virt. eigenvalues --    0.44412   0.61228   0.64965   0.67317   0.71581
 Alpha virt. eigenvalues --    0.72136   0.75170   0.79874   0.80955   0.85434
 Alpha virt. eigenvalues --    0.88094   0.92207   0.96192   0.97574   1.02163
 Alpha virt. eigenvalues --    1.03472   1.06495   1.08585   1.11277   1.16404
 Alpha virt. eigenvalues --    1.17788   1.20182   1.25224   1.26964   1.28737
 Alpha virt. eigenvalues --    1.32348   1.33643   1.37365   1.41191   1.49452
 Alpha virt. eigenvalues --    1.52650   1.59249   1.60147   1.63812   1.69041
 Alpha virt. eigenvalues --    1.70462   1.70551   1.74526   1.79615   1.85084
 Alpha virt. eigenvalues --    1.88166   1.90399   1.95360   2.01599   2.02028
 Alpha virt. eigenvalues --    2.11582   2.15607   2.21198   2.27112   2.32095
 Alpha virt. eigenvalues --    2.35568   2.40574   2.42589   2.48310   2.59418
 Alpha virt. eigenvalues --    2.64725   2.74174   2.84163   2.88141   3.05393
 Alpha virt. eigenvalues --    3.08583   3.94391   4.17999   4.24439   4.29447
 Alpha virt. eigenvalues --    4.30719   4.51355
          Condensed to atoms (all electrons):
               1          2          3          4          5          6
     1  C    5.943658  -0.536404   0.028967   0.102544   0.039672  -0.040727
     2  C   -0.536404   6.911891  -0.282853   0.058636  -0.035373  -0.106166
     3  C    0.028967  -0.282853   5.490952  -0.048936   0.011647   0.351062
     4  O    0.102544   0.058636  -0.048936   7.988208   0.015219   0.001528
     5  O    0.039672  -0.035373   0.011647   0.015219   8.259240  -0.000027
     6  O   -0.040727  -0.106166   0.351062   0.001528  -0.000027   8.382514
     7  H    0.010145  -0.002368  -0.000528  -0.014145   0.182957  -0.000010
     8  H    0.357099  -0.010825  -0.016121  -0.035411   0.000227   0.004394
     9  H    0.323600  -0.373682   0.325772  -0.048484   0.012261  -0.064266
    10  H   -0.066724  -0.013524   0.371138   0.007013   0.000461  -0.041936
    11  H   -0.012210   0.326604  -0.004956  -0.006587   0.001942   0.005182
    12  H   -0.015339   0.383374  -0.031424   0.003004  -0.000744  -0.006124
               7          8          9         10         11         12
     1  C    0.010145   0.357099   0.323600  -0.066724  -0.012210  -0.015339
     2  C   -0.002368  -0.010825  -0.373682  -0.013524   0.326604   0.383374
     3  C   -0.000528  -0.016121   0.325772   0.371138  -0.004956  -0.031424
     4  O   -0.014145  -0.035411  -0.048484   0.007013  -0.006587   0.003004
     5  O    0.182957   0.000227   0.012261   0.000461   0.001942  -0.000744
     6  O   -0.000010   0.004394  -0.064266  -0.041936   0.005182  -0.006124
     7  H    0.340445   0.000156   0.000075  -0.000009   0.000010   0.000006
     8  H    0.000156   0.438596  -0.012665   0.001202   0.002422  -0.002385
     9  H    0.000075  -0.012665   0.709289  -0.047624   0.006451   0.003399
    10  H   -0.000009   0.001202  -0.047624   0.561648  -0.003225  -0.000170
    11  H    0.000010   0.002422   0.006451  -0.003225   0.475444  -0.019941
    12  H    0.000006  -0.002385   0.003399  -0.000170  -0.019941   0.425607
 Mulliken charges:
               1
     1  C   -0.134282
     2  C   -0.319310
     3  C   -0.194721
     4  O   -0.022588
     5  O   -0.487481
     6  O   -0.485424
     7  H    0.483267
     8  H    0.273312
     9  H    0.165874
    10  H    0.231751
    11  H    0.228864
    12  H    0.260738
 Sum of Mulliken charges =   0.00000
 Mulliken charges with hydrogens summed into heavy atoms:
               1
     1  C    0.139030
     2  C    0.170292
     3  C    0.202904
     4  O   -0.022588
     5  O   -0.004214
     6  O   -0.485424
 APT charges:
               1
     1  C   -0.335568
     2  C   -0.812286
     3  C   -0.588180
     4  O    0.048663
     5  O   -0.864779
     6  O   -0.496664
     7  H    0.866337
     8  H    0.462697
     9  H    0.254827
    10  H    0.448266
    11  H    0.461021
    12  H    0.555667
 Sum of APT charges =   0.00000
 APT charges with hydrogens summed into heavy atoms:
               1
     1  C    0.127129
     2  C    0.204402
     3  C    0.114913
     4  O    0.048663
     5  O    0.001558
     6  O   -0.496664
 Electronic spatial extent (au):  <R**2>=            719.2778
 Charge=              0.0000 electrons
 Dipole moment (field-independent basis, Debye):
    X=             -6.0950    Y=              2.6495    Z=              0.6033  Tot=              6.6733
 Quadrupole moment (field-independent basis, Debye-Ang):
   XX=            -40.7814   YY=            -38.3268   ZZ=            -34.6433
   XY=              5.0697   XZ=              2.4673   YZ=             -0.4936
 Traceless Quadrupole moment (field-independent basis, Debye-Ang):
   XX=             -2.8642   YY=             -0.4096   ZZ=              3.2739
   XY=              5.0697   XZ=              2.4673   YZ=             -0.4936
 Octapole moment (field-independent basis, Debye-Ang**2):
  XXX=            -95.6537  YYY=              2.6846  ZZZ=              0.1421  XYY=             -4.2338
  XXY=             12.0233  XXZ=             10.0082  XZZ=             -2.0221  YZZ=              0.1618
  YYZ=              0.7031  XYZ=             -1.9140
 Hexadecapole moment (field-independent basis, Debye-Ang**3):
 XXXX=           -588.6241 YYYY=           -155.6523 ZZZZ=            -72.1798 XXXY=             41.2737
 XXXZ=             -1.9503 YYYX=              8.2823 YYYZ=              3.1538 ZZZX=              1.8134
 ZZZY=              1.5307 XXYY=           -147.8490 XXZZ=           -121.7766 YYZZ=            -37.3935
 XXYZ=             -5.7598 YYXZ=             -0.0657 ZZXY=              1.5277
 N-N= 2.370208567297D+02 E-N=-1.277920696947D+03  KE= 3.402976261727D+02
  Exact polarizability:   0.000   0.000   0.000   0.000   0.000   0.000
 Approx polarizability: 180.604 -18.779  80.583  10.789  -3.359  64.725
 Calling FoFJK, ICntrl=    100127 FMM=F ISym2X=0 I1Cent= 0 IOpClX= 0 NMat=1 NMatS=1 NMatT=0.
 -------------------------------------------------------------------
 Center     Atomic                   Forces (Hartrees/Bohr)
 Number     Number              X              Y              Z
 -------------------------------------------------------------------
      1        6          -0.000014586    0.000003858   -0.000005101
      2        6           0.000004807   -0.000003416    0.000002652
      3        6           0.000001741    0.000003582    0.000006000
      4        8           0.000006378   -0.000000584    0.000002063
      5        8           0.000000411    0.000000806    0.000000005
      6        8           0.000000818    0.000001916   -0.000000988
      7        1          -0.000000823    0.000000972    0.000001325
      8        1          -0.000002260    0.000000655   -0.000001294
      9        1           0.000002358   -0.000004083   -0.000003467
     10        1          -0.000000265   -0.000002331    0.000000302
     11        1           0.000000980    0.000000768    0.000000666
     12        1           0.000000441   -0.000002143   -0.000002164
 -------------------------------------------------------------------
 Cartesian Forces:  Max     0.000014586 RMS     0.000003577
 IRC-IRC-IRC-IRC-IRC-IRC-IRC-IRC-IRC-IRC-IRC-IRC-IRC-IRC-IRC-IRC-IRC-IRC
          ******** Start new reaction path calculation ********
 Supplied step size of   0.1500 bohr.
    Integration on MW PES will use step size of   0.2044 sqrt(amu)*bohr.
 Point Number:   0          Path Number:   1
 Calculating another point on the path.
 IRC-IRC-IRC-IRC-IRC-IRC-IRC-IRC-IRC-IRC-IRC-IRC-IRC-IRC-IRC-IRC-IRC-IRC
                          Input orientation:                          
 ---------------------------------------------------------------------
 Center     Atomic      Atomic             Coordinates (Angstroms)
 Number     Number       Type             X           Y           Z
 ---------------------------------------------------------------------
      1          6           0       -0.368974    0.308335   -0.435730
      2          6           0        0.739526    1.131587   -0.061901
      3          6           0        1.474068   -0.287730    0.454961
      4          8           0       -1.504886    0.445485    0.235373
      5          8           0       -2.362749   -0.719737   -0.032904
      6          8           0        2.465403   -0.692709   -0.213351
      7          1           0       -3.229466   -0.317505    0.169645
      8          1           0       -0.385853   -0.303424   -1.334154
      9          1           0        0.527900   -1.014573    0.431167
     10          1           0        1.502909   -0.117590    1.553110
     11          1           0        0.544008    1.842209    0.740472
     12          1           0        1.331365    1.538297   -0.879487
 ---------------------------------------------------------------------
                    Distance matrix (angstroms):
                    1          2          3          4          5
     1  C    0.000000
     2  C    1.430478   0.000000
     3  C    2.132001   1.679630   0.000000
     4  O    1.326455   2.365691   3.075709   0.000000
     5  O    2.279108   3.612804   3.891761   1.471613   0.000000
     6  O    3.014172   2.515878   1.262297   4.154519   4.831598
     7  H    2.990078   4.231594   4.712274   1.886969   0.976737
     8  H    1.087060   2.223592   2.580791   2.067973   2.403057
     9  H    1.818235   2.212217   1.193357   2.510443   2.942472
    10  H    2.764208   2.179783   1.111625   3.331713   4.221532
    11  H    2.137699   1.089501   2.341616   2.530598   3.951065
    12  H    2.144967   1.088179   2.266162   3.237510   4.411564
                    6          7          8          9         10
     6  O    0.000000
     7  H    5.720052   0.000000
     8  H    3.088268   3.216791   0.000000
     9  H    2.067104   3.830418   2.111169   0.000000
    10  H    2.092257   4.934503   3.455177   1.736082   0.000000
    11  H    3.320744   4.385125   3.126092   2.873523   2.328236
    12  H    2.589820   5.034467   2.558807   2.980020   2.947698
                   11         12
    11  H    0.000000
    12  H    1.826625   0.000000
 Symmetry turned off by external request.
 Stoichiometry    C3H6O3
 Framework group  C1[X(C3H6O3)]
 Deg. of freedom    30
 Full point group                 C1      NOp   1
 Rotational constants (GHZ):           9.0524786           1.7758465           1.5992621
 Standard basis: 6-31+G(d) (6D, 7F)
   126 basis functions,   216 primitive gaussians,   126 cartesian basis functions
    24 alpha electrons       24 beta electrons
       nuclear repulsion energy       236.8527681529 Hartrees.
 NAtoms=   12 NActive=   12 NUniq=   12 SFac= 1.00D+00 NAtFMM=   60 NAOKFM=F Big=F
 Integral buffers will be    131072 words long.
 Raffenetti 2 integral format.
 Two-electron integral symmetry is turned off.
 One-electron integrals computed using PRISM.
 NBasis=   126 RedAO= T EigKep=  8.88D-05  NBF=   126
 NBsUse=   126 1.00D-06 EigRej= -1.00D+00 NBFU=   126
 Initial guess from the checkpoint file:  "/scratch/bell/zhao922/YARP/paper-example/KHP-network/pp_0/IRC-folder/Gau-109893.chk"
 B after Tr=     0.005540    0.031688    0.013295
         Rot=    1.000000    0.000756   -0.000033   -0.000103 Ang=   0.09 deg.
 ExpMin= 4.38D-02 ExpMax= 5.48D+03 ExpMxC= 8.25D+02 IAcc=3 IRadAn=         5 AccDes= 0.00D+00
 Harris functional with IExCor=  402 and IRadAn=       5 diagonalized for initial guess.
 HarFok:  IExCor=  402 AccDes= 0.00D+00 IRadAn=         5 IDoV= 1 UseB2=F ITyADJ=14
 ICtDFT=  3500011 ScaDFX=  1.000000  1.000000  1.000000  1.000000
 FoFCou: FMM=F IPFlag=           0 FMFlag=      100000 FMFlg1=           0
         NFxFlg=           0 DoJE=T BraDBF=F KetDBF=T FulRan=T
         wScrn=  0.000000 ICntrl=       500 IOpCl=  0 I1Cent=   200000004 NGrid=           0
         NMat0=    1 NMatS0=      1 NMatT0=    0 NMatD0=    1 NMtDS0=    0 NMtDT0=    0
 Symmetry not used in FoFCou.
 Keep R1 ints in memory in canonical form, NReq=47237243.
 Requested convergence on RMS density matrix=1.00D-08 within 128 cycles.
 Requested convergence on MAX density matrix=1.00D-06.
 Requested convergence on             energy=1.00D-06.
 No special actions if energy rises.
 SCF Done:  E(RB3LYP) =  -343.389280042     A.U. after   12 cycles
            NFock= 12  Conv=0.98D-08     -V/T= 2.0090
 DoSCS=F DFT=T ScalE2(SS,OS)=  1.000000  1.000000
 Range of M.O.s used for correlation:     1   126
 NBasis=   126 NAE=    24 NBE=    24 NFC=     0 NFV=     0
 NROrb=    126 NOA=    24 NOB=    24 NVA=   102 NVB=   102

 **** Warning!!: The largest alpha MO coefficient is  0.24305112D+02

 Symmetrizing basis deriv contribution to polar:
 IMax=3 JMax=2 DiffMx= 0.00D+00
 G2DrvN: will do    13 centers at a time, making    1 passes.
 Calling FoFCou, ICntrl=  3107 FMM=F I1Cent=   0 AccDes= 0.00D+00.
 End of G2Drv F.D. properties file   721 does not exist.
 End of G2Drv F.D. properties file   722 does not exist.
 End of G2Drv F.D. properties file   788 does not exist.
          IDoAtm=111111111111
          Differentiating once with respect to nuclear coordinates.
 Keep R1 ints in memory in canonical form, NReq=47193251.
          There are    39 degrees of freedom in the 1st order CPHF.  IDoFFX=6 NUNeed=     0.
     33 vectors produced by pass  0 Test12= 6.28D-15 2.56D-09 XBig12= 2.12D-01 1.81D-01.
 AX will form    33 AO Fock derivatives at one time.
     33 vectors produced by pass  1 Test12= 6.28D-15 2.56D-09 XBig12= 5.18D-02 4.77D-02.
     33 vectors produced by pass  2 Test12= 6.28D-15 2.56D-09 XBig12= 1.19D-03 5.96D-03.
     33 vectors produced by pass  3 Test12= 6.28D-15 2.56D-09 XBig12= 8.65D-06 5.33D-04.
     33 vectors produced by pass  4 Test12= 6.28D-15 2.56D-09 XBig12= 2.56D-08 2.18D-05.
     30 vectors produced by pass  5 Test12= 6.28D-15 2.56D-09 XBig12= 3.25D-11 8.72D-07.
      7 vectors produced by pass  6 Test12= 6.28D-15 2.56D-09 XBig12= 3.00D-14 2.26D-08.
 InvSVY:  IOpt=1 It=  1 EMax= 1.55D-15
 Solved reduced A of dimension   202 with    33 vectors.
 End of Minotr F.D. properties file   721 does not exist.
 End of Minotr F.D. properties file   722 does not exist.
 End of Minotr F.D. properties file   788 does not exist.
 Calling FoFJK, ICntrl=    100127 FMM=F ISym2X=0 I1Cent= 0 IOpClX= 0 NMat=1 NMatS=1 NMatT=0.
 -------------------------------------------------------------------
 Center     Atomic                   Forces (Hartrees/Bohr)
 Number     Number              X              Y              Z
 -------------------------------------------------------------------
      1        6          -0.001384159    0.008298316   -0.003666168
      2        6          -0.005392558    0.001920044   -0.002222422
      3        6          -0.000136496   -0.011008454    0.004388981
      4        8           0.000828695   -0.000496803    0.000532102
      5        8           0.000392457   -0.000618740    0.000058312
      6        8           0.002088438    0.002195089   -0.001128390
      7        1           0.000073490    0.000033016    0.000008764
      8        1           0.000274182   -0.000357633    0.000707016
      9        1           0.001409178   -0.001455853    0.001758741
     10        1           0.001267268    0.002222411   -0.000788461
     11        1           0.000032813    0.000032066    0.000002567
     12        1           0.000546692   -0.000763459    0.000348958
 -------------------------------------------------------------------
 Cartesian Forces:  Max     0.011008454 RMS     0.002841569
 IRC-IRC-IRC-IRC-IRC-IRC-IRC-IRC-IRC-IRC-IRC-IRC-IRC-IRC-IRC-IRC-IRC-IRC
 Pt  1 Step number   1 out of a maximum of 100
 Modified Bulirsch-Stoer Extrapolation Cycles:
    EPS =    0.000010000000000
      PEZero:  N= 2 I= 1 D=  5.32D-04 Err=  8.47D-04
      PEZero:  N= 3 I= 2 D=  5.32D-04 Err=  5.65D-04
      PEZero:  N= 3 I= 1 D=  1.06D-03 Err=  2.48D-07
 Maximum DWI energy   std dev =  0.000011261 at pt     1
 Maximum DWI gradient std dev =  0.052339088 at pt    21
 CORRECTOR INTEGRATION CONVERGENCE:
   Recorrection delta-x convergence threshold:    0.010000
   Delta-x Convergence Met
 Point Number:   1          Path Number:   1
   CHANGE IN THE REACTION COORDINATE =    0.20405
   NET REACTION COORDINATE UP TO THIS POINT =    0.20405
  # OF POINTS ALONG THE PATH =   1
  # OF STEPS =   1

 Calculating another point on the path.
 IRC-IRC-IRC-IRC-IRC-IRC-IRC-IRC-IRC-IRC-IRC-IRC-IRC-IRC-IRC-IRC-IRC-IRC
                          Input orientation:                          
 ---------------------------------------------------------------------
 Center     Atomic      Atomic             Coordinates (Angstroms)
 Number     Number       Type             X           Y           Z
 ---------------------------------------------------------------------
      1          6           0       -0.370991    0.320408   -0.440756
      2          6           0        0.731385    1.134726   -0.065335
      3          6           0        1.473734   -0.304436    0.460948
      4          8           0       -1.504138    0.445026    0.235968
      5          8           0       -2.362215   -0.720403   -0.032818
      6          8           0        2.467688   -0.690413   -0.214642
      7          1           0       -3.228485   -0.317174    0.169655
      8          1           0       -0.381888   -0.310208   -1.325934
      9          1           0        0.559321   -1.035232    0.462135
     10          1           0        1.524194   -0.080290    1.549201
     11          1           0        0.544130    1.843106    0.740302
     12          1           0        1.341921    1.526409   -0.875443
 ---------------------------------------------------------------------
                    Distance matrix (angstroms):
                    1          2          3          4          5
     1  C    0.000000
     2  C    1.421017   0.000000
     3  C    2.146278   1.702717   0.000000
     4  O    1.325711   2.358821   3.078966   0.000000
     5  O    2.283567   3.607343   3.889902   1.471994   0.000000
     6  O    3.021752   2.523524   1.262278   4.155439   4.833417
     7  H    2.990717   4.224193   4.711250   1.886457   0.976736
     8  H    1.086893   2.217278   2.576104   2.066244   2.400439
     9  H    1.875755   2.239766   1.170561   2.549546   2.979844
    10  H    2.777088   2.170608   1.112242   3.342355   4.244609
    11  H    2.133296   1.088998   2.356722   2.530688   3.951725
    12  H    2.139499   1.087402   2.270531   3.241092   4.413480
                    6          7          8          9         10
     6  O    0.000000
     7  H    5.721309   0.000000
     8  H    3.082143   3.215580   0.000000
     9  H    2.053969   3.866346   2.146794   0.000000
    10  H    2.091309   4.954515   3.457226   1.739139   0.000000
    11  H    3.321251   4.384641   3.124676   2.891787   2.305275
    12  H    2.572607   5.037821   2.558832   2.993924   2.914379
                   11         12
    11  H    0.000000
    12  H    1.829590   0.000000
 Symmetry turned off by external request.
 Stoichiometry    C3H6O3
 Framework group  C1[X(C3H6O3)]
 Deg. of freedom    30
 Full point group                 C1      NOp   1
 Rotational constants (GHZ):           8.9925074           1.7744774           1.5975295
 Standard basis: 6-31+G(d) (6D, 7F)
   126 basis functions,   216 primitive gaussians,   126 cartesian basis functions
    24 alpha electrons       24 beta electrons
       nuclear repulsion energy       236.6499189184 Hartrees.
 NAtoms=   12 NActive=   12 NUniq=   12 SFac= 1.00D+00 NAtFMM=   60 NAOKFM=F Big=F
 Integral buffers will be    131072 words long.
 Raffenetti 2 integral format.
 Two-electron integral symmetry is turned off.
 One-electron integrals computed using PRISM.
 NBasis=   126 RedAO= T EigKep=  8.59D-05  NBF=   126
 NBsUse=   126 1.00D-06 EigRej= -1.00D+00 NBFU=   126
 Initial guess from the checkpoint file:  "/scratch/bell/zhao922/YARP/paper-example/KHP-network/pp_0/IRC-folder/Gau-109893.chk"
 B after Tr=     0.001339   -0.000035    0.000810
         Rot=    1.000000    0.000704   -0.000033   -0.000076 Ang=   0.08 deg.
 ExpMin= 4.38D-02 ExpMax= 5.48D+03 ExpMxC= 8.25D+02 IAcc=3 IRadAn=         5 AccDes= 0.00D+00
 Harris functional with IExCor=  402 and IRadAn=       5 diagonalized for initial guess.
 HarFok:  IExCor=  402 AccDes= 0.00D+00 IRadAn=         5 IDoV= 1 UseB2=F ITyADJ=14
 ICtDFT=  3500011 ScaDFX=  1.000000  1.000000  1.000000  1.000000
 FoFCou: FMM=F IPFlag=           0 FMFlag=      100000 FMFlg1=           0
         NFxFlg=           0 DoJE=T BraDBF=F KetDBF=T FulRan=T
         wScrn=  0.000000 ICntrl=       500 IOpCl=  0 I1Cent=   200000004 NGrid=           0
         NMat0=    1 NMatS0=      1 NMatT0=    0 NMatD0=    1 NMtDS0=    0 NMtDT0=    0
 Symmetry not used in FoFCou.
 Keep R1 ints in memory in canonical form, NReq=47237243.
 Requested convergence on RMS density matrix=1.00D-08 within 128 cycles.
 Requested convergence on MAX density matrix=1.00D-06.
 Requested convergence on             energy=1.00D-06.
 No special actions if energy rises.
 SCF Done:  E(RB3LYP) =  -343.391014976     A.U. after   12 cycles
            NFock= 12  Conv=0.97D-08     -V/T= 2.0090
 DoSCS=F DFT=T ScalE2(SS,OS)=  1.000000  1.000000
 Range of M.O.s used for correlation:     1   126
 NBasis=   126 NAE=    24 NBE=    24 NFC=     0 NFV=     0
 NROrb=    126 NOA=    24 NOB=    24 NVA=   102 NVB=   102

 **** Warning!!: The largest alpha MO coefficient is  0.23761246D+02

 Symmetrizing basis deriv contribution to polar:
 IMax=3 JMax=2 DiffMx= 0.00D+00
 G2DrvN: will do    13 centers at a time, making    1 passes.
 Calling FoFCou, ICntrl=  3107 FMM=F I1Cent=   0 AccDes= 0.00D+00.
 End of G2Drv F.D. properties file   721 does not exist.
 End of G2Drv F.D. properties file   722 does not exist.
 End of G2Drv F.D. properties file   788 does not exist.
          IDoAtm=111111111111
          Differentiating once with respect to nuclear coordinates.
 Keep R1 ints in memory in canonical form, NReq=47193251.
          There are    39 degrees of freedom in the 1st order CPHF.  IDoFFX=6 NUNeed=     0.
     33 vectors produced by pass  0 Test12= 6.28D-15 2.56D-09 XBig12= 2.07D-01 1.68D-01.
 AX will form    33 AO Fock derivatives at one time.
     33 vectors produced by pass  1 Test12= 6.28D-15 2.56D-09 XBig12= 5.23D-02 4.43D-02.
     33 vectors produced by pass  2 Test12= 6.28D-15 2.56D-09 XBig12= 1.21D-03 6.10D-03.
     33 vectors produced by pass  3 Test12= 6.28D-15 2.56D-09 XBig12= 8.37D-06 5.39D-04.
     33 vectors produced by pass  4 Test12= 6.28D-15 2.56D-09 XBig12= 2.48D-08 2.30D-05.
     30 vectors produced by pass  5 Test12= 6.28D-15 2.56D-09 XBig12= 2.99D-11 8.17D-07.
      7 vectors produced by pass  6 Test12= 6.28D-15 2.56D-09 XBig12= 2.61D-14 2.41D-08.
 InvSVY:  IOpt=1 It=  1 EMax= 3.11D-15
 Solved reduced A of dimension   202 with    33 vectors.
 End of Minotr F.D. properties file   721 does not exist.
 End of Minotr F.D. properties file   722 does not exist.
 End of Minotr F.D. properties file   788 does not exist.
 Calling FoFJK, ICntrl=    100127 FMM=F ISym2X=0 I1Cent= 0 IOpClX= 0 NMat=1 NMatS=1 NMatT=0.
 -------------------------------------------------------------------
 Center     Atomic                   Forces (Hartrees/Bohr)
 Number     Number              X              Y              Z
 -------------------------------------------------------------------
      1        6          -0.002379140    0.013781888   -0.006229218
      2        6          -0.009662365    0.004036394   -0.004330679
      3        6           0.001053569   -0.019523818    0.007999676
      4        8           0.000826831   -0.000656439    0.001116134
      5        8           0.000959946   -0.001010489    0.000131842
      6        8           0.003171525    0.003662748   -0.001917760
      7        1           0.000112265    0.000030309   -0.000009417
      8        1           0.000364619   -0.000484133    0.000855003
      9        1           0.002518994   -0.002138472    0.002900663
     10        1           0.002037481    0.003507409   -0.001064372
     11        1           0.000024054    0.000075484   -0.000020219
     12        1           0.000972221   -0.001280881    0.000568348
 -------------------------------------------------------------------
 Cartesian Forces:  Max     0.019523818 RMS     0.004948387
 IRC-IRC-IRC-IRC-IRC-IRC-IRC-IRC-IRC-IRC-IRC-IRC-IRC-IRC-IRC-IRC-IRC-IRC
 Pt  2 Step number   1 out of a maximum of 100
 Modified Bulirsch-Stoer Extrapolation Cycles:
    EPS =    0.000010000000000
      PEZero:  N= 2 I= 1 D=  1.06D-03 Err=  6.81D-05
      PEZero:  N= 3 I= 2 D=  1.06D-03 Err=  4.53D-05
      PEZero:  N= 3 I= 1 D=  2.13D-03 Err=  2.21D-07
 Maximum DWI energy   std dev =  0.000010134 at pt    26
 Maximum DWI gradient std dev =  0.030231459 at pt    25
 CORRECTOR INTEGRATION CONVERGENCE:
   Recorrection delta-x convergence threshold:    0.010000
   Delta-x Convergence Met
 Point Number:   2          Path Number:   1
   CHANGE IN THE REACTION COORDINATE =    0.20417
   NET REACTION COORDINATE UP TO THIS POINT =    0.40822
  # OF POINTS ALONG THE PATH =   2
  # OF STEPS =   1

 Calculating another point on the path.
 IRC-IRC-IRC-IRC-IRC-IRC-IRC-IRC-IRC-IRC-IRC-IRC-IRC-IRC-IRC-IRC-IRC-IRC
                          Input orientation:                          
 ---------------------------------------------------------------------
 Center     Atomic      Atomic             Coordinates (Angstroms)
 Number     Number       Type             X           Y           Z
 ---------------------------------------------------------------------
      1          6           0       -0.372996    0.332163   -0.446070
      2          6           0        0.722723    1.138473   -0.069244
      3          6           0        1.475139   -0.321714    0.467817
      4          8           0       -1.503793    0.444652    0.236763
      5          8           0       -2.361505   -0.721040   -0.032725
      6          8           0        2.469646   -0.688088   -0.215900
      7          1           0       -3.227425   -0.316988    0.169426
      8          1           0       -0.378696   -0.314794   -1.319278
      9          1           0        0.585605   -1.054725    0.490930
     10          1           0        1.544962   -0.044480    1.543355
     11          1           0        0.544198    1.844082    0.740120
     12          1           0        1.352988    1.513826   -0.870764
 ---------------------------------------------------------------------
                    Distance matrix (angstroms):
                    1          2          3          4          5
     1  C    0.000000
     2  C    1.411643   0.000000
     3  C    2.162949   1.728210   0.000000
     4  O    1.325751   2.352106   3.084597   0.000000
     5  O    2.287850   3.601609   3.889710   1.472118   0.000000
     6  O    3.028945   2.531713   1.261247   4.156467   4.834735
     7  H    2.991320   4.216515   4.712024   1.885613   0.976699
     8  H    1.086774   2.210813   2.574968   2.064913   2.398288
     9  H    1.928819   2.267754   1.152870   2.584243   3.011813
    10  H    2.788949   2.162390   1.112886   3.352810   4.266409
    11  H    2.129365   1.088497   2.373072   2.531016   3.952247
    12  H    2.134412   1.086535   2.275066   3.245142   4.415246
                    6          7          8          9         10
     6  O    0.000000
     7  H    5.722133   0.000000
     8  H    3.077311   3.214265   0.000000
     9  H    2.045395   3.897027   2.180419   0.000000
    10  H    2.089079   4.973692   3.459508   1.746012   0.000000
    11  H    3.321627   4.384182   3.123075   2.909792   2.283283
    12  H    2.554250   5.041236   2.558074   3.006748   2.879781
                   11         12
    11  H    0.000000
    12  H    1.832528   0.000000
 Symmetry turned off by external request.
 Stoichiometry    C3H6O3
 Framework group  C1[X(C3H6O3)]
 Deg. of freedom    30
 Full point group                 C1      NOp   1
 Rotational constants (GHZ):           8.9270539           1.7728368           1.5954911
 Standard basis: 6-31+G(d) (6D, 7F)
   126 basis functions,   216 primitive gaussians,   126 cartesian basis functions
    24 alpha electrons       24 beta electrons
       nuclear repulsion energy       236.4253610153 Hartrees.
 NAtoms=   12 NActive=   12 NUniq=   12 SFac= 1.00D+00 NAtFMM=   60 NAOKFM=F Big=F
 Integral buffers will be    131072 words long.
 Raffenetti 2 integral format.
 Two-electron integral symmetry is turned off.
 One-electron integrals computed using PRISM.
 NBasis=   126 RedAO= T EigKep=  8.32D-05  NBF=   126
 NBsUse=   126 1.00D-06 EigRej= -1.00D+00 NBFU=   126
 Initial guess from the checkpoint file:  "/scratch/bell/zhao922/YARP/paper-example/KHP-network/pp_0/IRC-folder/Gau-109893.chk"
 B after Tr=     0.001223   -0.000013    0.000703
         Rot=    1.000000    0.000643   -0.000032   -0.000062 Ang=   0.07 deg.
 ExpMin= 4.38D-02 ExpMax= 5.48D+03 ExpMxC= 8.25D+02 IAcc=3 IRadAn=         5 AccDes= 0.00D+00
 Harris functional with IExCor=  402 and IRadAn=       5 diagonalized for initial guess.
 HarFok:  IExCor=  402 AccDes= 0.00D+00 IRadAn=         5 IDoV= 1 UseB2=F ITyADJ=14
 ICtDFT=  3500011 ScaDFX=  1.000000  1.000000  1.000000  1.000000
 FoFCou: FMM=F IPFlag=           0 FMFlag=      100000 FMFlg1=           0
         NFxFlg=           0 DoJE=T BraDBF=F KetDBF=T FulRan=T
         wScrn=  0.000000 ICntrl=       500 IOpCl=  0 I1Cent=   200000004 NGrid=           0
         NMat0=    1 NMatS0=      1 NMatT0=    0 NMatD0=    1 NMtDS0=    0 NMtDT0=    0
 Symmetry not used in FoFCou.
 Keep R1 ints in memory in canonical form, NReq=47237243.
 Requested convergence on RMS density matrix=1.00D-08 within 128 cycles.
 Requested convergence on MAX density matrix=1.00D-06.
 Requested convergence on             energy=1.00D-06.
 No special actions if energy rises.
 SCF Done:  E(RB3LYP) =  -343.393466763     A.U. after   13 cycles
            NFock= 13  Conv=0.35D-08     -V/T= 2.0089
 DoSCS=F DFT=T ScalE2(SS,OS)=  1.000000  1.000000
 Range of M.O.s used for correlation:     1   126
 NBasis=   126 NAE=    24 NBE=    24 NFC=     0 NFV=     0
 NROrb=    126 NOA=    24 NOB=    24 NVA=   102 NVB=   102

 **** Warning!!: The largest alpha MO coefficient is  0.23980818D+02

 Symmetrizing basis deriv contribution to polar:
 IMax=3 JMax=2 DiffMx= 0.00D+00
 G2DrvN: will do    13 centers at a time, making    1 passes.
 Calling FoFCou, ICntrl=  3107 FMM=F I1Cent=   0 AccDes= 0.00D+00.
 End of G2Drv F.D. properties file   721 does not exist.
 End of G2Drv F.D. properties file   722 does not exist.
 End of G2Drv F.D. properties file   788 does not exist.
          IDoAtm=111111111111
          Differentiating once with respect to nuclear coordinates.
 Keep R1 ints in memory in canonical form, NReq=47193251.
          There are    39 degrees of freedom in the 1st order CPHF.  IDoFFX=6 NUNeed=     0.
     33 vectors produced by pass  0 Test12= 6.28D-15 2.56D-09 XBig12= 2.00D-01 1.49D-01.
 AX will form    33 AO Fock derivatives at one time.
     33 vectors produced by pass  1 Test12= 6.28D-15 2.56D-09 XBig12= 5.23D-02 4.61D-02.
     33 vectors produced by pass  2 Test12= 6.28D-15 2.56D-09 XBig12= 1.20D-03 6.36D-03.
     33 vectors produced by pass  3 Test12= 6.28D-15 2.56D-09 XBig12= 8.00D-06 5.30D-04.
     33 vectors produced by pass  4 Test12= 6.28D-15 2.56D-09 XBig12= 2.37D-08 2.37D-05.
     30 vectors produced by pass  5 Test12= 6.28D-15 2.56D-09 XBig12= 2.60D-11 7.22D-07.
      7 vectors produced by pass  6 Test12= 6.28D-15 2.56D-09 XBig12= 2.13D-14 2.11D-08.
 InvSVY:  IOpt=1 It=  1 EMax= 2.22D-15
 Solved reduced A of dimension   202 with    33 vectors.
 End of Minotr F.D. properties file   721 does not exist.
 End of Minotr F.D. properties file   722 does not exist.
 End of Minotr F.D. properties file   788 does not exist.
 Calling FoFJK, ICntrl=    100127 FMM=F ISym2X=0 I1Cent= 0 IOpClX= 0 NMat=1 NMatS=1 NMatT=0.
 -------------------------------------------------------------------
 Center     Atomic                   Forces (Hartrees/Bohr)
 Number     Number              X              Y              Z
 -------------------------------------------------------------------
      1        6          -0.003064363    0.016945454   -0.008255472
      2        6          -0.013084378    0.006171296   -0.006255725
      3        6           0.004059418   -0.025607744    0.011340080
      4        8           0.000167069   -0.000624987    0.001842064
      5        8           0.001623406   -0.001212353    0.000186437
      6        8           0.003417989    0.004587549   -0.002399235
      7        1           0.000144496    0.000013826   -0.000045856
      8        1           0.000339713   -0.000340424    0.000782985
      9        1           0.002599140   -0.002540081    0.003414460
     10        1           0.002478079    0.004159838   -0.001323792
     11        1           0.000004075    0.000124809   -0.000037948
     12        1           0.001315355   -0.001677183    0.000752001
 -------------------------------------------------------------------
 Cartesian Forces:  Max     0.025607744 RMS     0.006490244
 IRC-IRC-IRC-IRC-IRC-IRC-IRC-IRC-IRC-IRC-IRC-IRC-IRC-IRC-IRC-IRC-IRC-IRC
 Pt  3 Step number   1 out of a maximum of 100
 Modified Bulirsch-Stoer Extrapolation Cycles:
    EPS =    0.000010000000000
      PEZero:  N= 2 I= 1 D=  1.06D-03 Err=  7.39D-05
      PEZero:  N= 3 I= 2 D=  1.06D-03 Err=  4.92D-05
      PEZero:  N= 3 I= 1 D=  2.13D-03 Err=  1.92D-07
 Maximum DWI energy   std dev =  0.000008284 at pt    27
 Maximum DWI gradient std dev =  0.017407643 at pt    25
 CORRECTOR INTEGRATION CONVERGENCE:
   Recorrection delta-x convergence threshold:    0.010000
   Delta-x Convergence Met
 Point Number:   3          Path Number:   1
   CHANGE IN THE REACTION COORDINATE =    0.20418
   NET REACTION COORDINATE UP TO THIS POINT =    0.61240
  # OF POINTS ALONG THE PATH =   3
  # OF STEPS =   1

 Calculating another point on the path.
 IRC-IRC-IRC-IRC-IRC-IRC-IRC-IRC-IRC-IRC-IRC-IRC-IRC-IRC-IRC-IRC-IRC-IRC
                          Input orientation:                          
 ---------------------------------------------------------------------
 Center     Atomic      Atomic             Coordinates (Angstroms)
 Number     Number       Type             X           Y           Z
 ---------------------------------------------------------------------
      1          6           0       -0.375061    0.343486   -0.451679
      2          6           0        0.713523    1.142997   -0.073681
      3          6           0        1.478513   -0.339475    0.475636
      4          8           0       -1.503922    0.444376    0.237794
      5          8           0       -2.360579   -0.721632   -0.032628
      6          8           0        2.471278   -0.685835   -0.217127
      7          1           0       -3.226311   -0.317024    0.168890
      8          1           0       -0.376528   -0.316861   -1.314651
      9          1           0        0.606590   -1.073060    0.517257
     10          1           0        1.564782   -0.011352    1.536113
     11          1           0        0.544028    1.845340    0.739809
     12          1           0        1.364499    1.500671   -0.865512
 ---------------------------------------------------------------------
                    Distance matrix (angstroms):
                    1          2          3          4          5
     1  C    0.000000
     2  C    1.402539   0.000000
     3  C    2.182220   1.756326   0.000000
     4  O    1.326605   2.345666   3.092880   0.000000
     5  O    2.291803   3.595640   3.891401   1.471925   0.000000
     6  O    3.035813   2.540651   1.259154   4.157709   4.835510
     7  H    2.991823   4.208657   4.714866   1.884436   0.976631
     8  H    1.086637   2.204405   2.578141   2.064118   2.396639
     9  H    1.977139   2.295986   1.140232   2.614378   3.038086
    10  H    2.800039   2.156061   1.113426   3.363074   4.286479
    11  H    2.126013   1.088016   2.390912   2.531564   3.952562
    12  H    2.129884   1.085678   2.279871   3.249751   4.416846
                    6          7          8          9         10
     6  O    0.000000
     7  H    5.722547   0.000000
     8  H    3.074199   3.212811   0.000000
     9  H    2.041157   3.922254   2.212294   0.000000
    10  H    2.085788   4.991723   3.462495   1.755967   0.000000
    11  H    3.322178   4.383745   3.121432   2.927541   2.263480
    12  H    2.534989   5.044753   2.556623   3.018372   2.845018
                   11         12
    11  H    0.000000
    12  H    1.835490   0.000000
 Symmetry turned off by external request.
 Stoichiometry    C3H6O3
 Framework group  C1[X(C3H6O3)]
 Deg. of freedom    30
 Full point group                 C1      NOp   1
 Rotational constants (GHZ):           8.8548402           1.7708597           1.5930789
 Standard basis: 6-31+G(d) (6D, 7F)
   126 basis functions,   216 primitive gaussians,   126 cartesian basis functions
    24 alpha electrons       24 beta electrons
       nuclear repulsion energy       236.1722781774 Hartrees.
 NAtoms=   12 NActive=   12 NUniq=   12 SFac= 1.00D+00 NAtFMM=   60 NAOKFM=F Big=F
 Integral buffers will be    131072 words long.
 Raffenetti 2 integral format.
 Two-electron integral symmetry is turned off.
 One-electron integrals computed using PRISM.
 NBasis=   126 RedAO= T EigKep=  8.06D-05  NBF=   126
 NBsUse=   126 1.00D-06 EigRej= -1.00D+00 NBFU=   126
 Initial guess from the checkpoint file:  "/scratch/bell/zhao922/YARP/paper-example/KHP-network/pp_0/IRC-folder/Gau-109893.chk"
 B after Tr=     0.001085   -0.000002    0.000585
         Rot=    1.000000    0.000565   -0.000029   -0.000046 Ang=   0.07 deg.
 ExpMin= 4.38D-02 ExpMax= 5.48D+03 ExpMxC= 8.25D+02 IAcc=3 IRadAn=         5 AccDes= 0.00D+00
 Harris functional with IExCor=  402 and IRadAn=       5 diagonalized for initial guess.
 HarFok:  IExCor=  402 AccDes= 0.00D+00 IRadAn=         5 IDoV= 1 UseB2=F ITyADJ=14
 ICtDFT=  3500011 ScaDFX=  1.000000  1.000000  1.000000  1.000000
 FoFCou: FMM=F IPFlag=           0 FMFlag=      100000 FMFlg1=           0
         NFxFlg=           0 DoJE=T BraDBF=F KetDBF=T FulRan=T
         wScrn=  0.000000 ICntrl=       500 IOpCl=  0 I1Cent=   200000004 NGrid=           0
         NMat0=    1 NMatS0=      1 NMatT0=    0 NMatD0=    1 NMtDS0=    0 NMtDT0=    0
 Symmetry not used in FoFCou.
 Keep R1 ints in memory in canonical form, NReq=47237243.
 Requested convergence on RMS density matrix=1.00D-08 within 128 cycles.
 Requested convergence on MAX density matrix=1.00D-06.
 Requested convergence on             energy=1.00D-06.
 No special actions if energy rises.
 SCF Done:  E(RB3LYP) =  -343.396364017     A.U. after   12 cycles
            NFock= 12  Conv=0.66D-08     -V/T= 2.0089
 DoSCS=F DFT=T ScalE2(SS,OS)=  1.000000  1.000000
 Range of M.O.s used for correlation:     1   126
 NBasis=   126 NAE=    24 NBE=    24 NFC=     0 NFV=     0
 NROrb=    126 NOA=    24 NOB=    24 NVA=   102 NVB=   102

 **** Warning!!: The largest alpha MO coefficient is  0.24469007D+02

 Symmetrizing basis deriv contribution to polar:
 IMax=3 JMax=2 DiffMx= 0.00D+00
 G2DrvN: will do    13 centers at a time, making    1 passes.
 Calling FoFCou, ICntrl=  3107 FMM=F I1Cent=   0 AccDes= 0.00D+00.
 End of G2Drv F.D. properties file   721 does not exist.
 End of G2Drv F.D. properties file   722 does not exist.
 End of G2Drv F.D. properties file   788 does not exist.
          IDoAtm=111111111111
          Differentiating once with respect to nuclear coordinates.
 Keep R1 ints in memory in canonical form, NReq=47193251.
          There are    39 degrees of freedom in the 1st order CPHF.  IDoFFX=6 NUNeed=     0.
     33 vectors produced by pass  0 Test12= 6.28D-15 2.56D-09 XBig12= 1.92D-01 1.29D-01.
 AX will form    33 AO Fock derivatives at one time.
     33 vectors produced by pass  1 Test12= 6.28D-15 2.56D-09 XBig12= 5.19D-02 4.80D-02.
     33 vectors produced by pass  2 Test12= 6.28D-15 2.56D-09 XBig12= 1.18D-03 6.46D-03.
     33 vectors produced by pass  3 Test12= 6.28D-15 2.56D-09 XBig12= 7.55D-06 5.07D-04.
     33 vectors produced by pass  4 Test12= 6.28D-15 2.56D-09 XBig12= 2.23D-08 2.38D-05.
     29 vectors produced by pass  5 Test12= 6.28D-15 2.56D-09 XBig12= 2.20D-11 6.06D-07.
      6 vectors produced by pass  6 Test12= 6.28D-15 2.56D-09 XBig12= 1.71D-14 1.80D-08.
 InvSVY:  IOpt=1 It=  1 EMax= 1.11D-15
 Solved reduced A of dimension   200 with    33 vectors.
 End of Minotr F.D. properties file   721 does not exist.
 End of Minotr F.D. properties file   722 does not exist.
 End of Minotr F.D. properties file   788 does not exist.
 Calling FoFJK, ICntrl=    100127 FMM=F ISym2X=0 I1Cent= 0 IOpClX= 0 NMat=1 NMatS=1 NMatT=0.
 -------------------------------------------------------------------
 Center     Atomic                   Forces (Hartrees/Bohr)
 Number     Number              X              Y              Z
 -------------------------------------------------------------------
      1        6          -0.003570050    0.018198227   -0.009599014
      2        6          -0.015459990    0.008358889   -0.007871232
      3        6           0.007574950   -0.029372940    0.014071934
      4        8          -0.000847188   -0.000495379    0.002561633
      5        8           0.002294473   -0.001241045    0.000206936
      6        8           0.003158924    0.004784315   -0.002624489
      7        1           0.000161163   -0.000022746   -0.000099504
      8        1           0.000228659   -0.000065484    0.000545603
      9        1           0.002393064   -0.002627937    0.003493274
     10        1           0.002604403    0.004209165   -0.001518948
     11        1          -0.000048375    0.000194806   -0.000069979
     12        1           0.001509966   -0.001919871    0.000903787
 -------------------------------------------------------------------
 Cartesian Forces:  Max     0.029372940 RMS     0.007524146
 IRC-IRC-IRC-IRC-IRC-IRC-IRC-IRC-IRC-IRC-IRC-IRC-IRC-IRC-IRC-IRC-IRC-IRC
 Pt  4 Step number   1 out of a maximum of 100
 Modified Bulirsch-Stoer Extrapolation Cycles:
    EPS =    0.000010000000000
      PEZero:  N= 2 I= 1 D=  1.06D-03 Err=  7.23D-05
      PEZero:  N= 3 I= 2 D=  1.06D-03 Err=  4.81D-05
      PEZero:  N= 3 I= 1 D=  2.13D-03 Err=  1.70D-07
 Maximum DWI energy   std dev =  0.000006354 at pt    27
 Maximum DWI gradient std dev =  0.012415850 at pt    25
 CORRECTOR INTEGRATION CONVERGENCE:
   Recorrection delta-x convergence threshold:    0.010000
   Delta-x Convergence Met
 Point Number:   4          Path Number:   1
   CHANGE IN THE REACTION COORDINATE =    0.20419
   NET REACTION COORDINATE UP TO THIS POINT =    0.81659
  # OF POINTS ALONG THE PATH =   4
  # OF STEPS =   1

 Calculating another point on the path.
 IRC-IRC-IRC-IRC-IRC-IRC-IRC-IRC-IRC-IRC-IRC-IRC-IRC-IRC-IRC-IRC-IRC-IRC
                          Input orientation:                          
 ---------------------------------------------------------------------
 Center     Atomic      Atomic             Coordinates (Angstroms)
 Number     Number       Type             X           Y           Z
 ---------------------------------------------------------------------
      1          6           0       -0.377221    0.354249   -0.457477
      2          6           0        0.703894    1.148450   -0.078623
      3          6           0        1.483720   -0.357490    0.484288
      4          8           0       -1.504524    0.444190    0.239050
      5          8           0       -2.359440   -0.722164   -0.032538
      6          8           0        2.472617   -0.683814   -0.218316
      7          1           0       -3.225209   -0.317361    0.167975
      8          1           0       -0.375479   -0.316535   -1.312174
      9          1           0        0.623657   -1.090144    0.540956
     10          1           0        1.583191    0.018110    1.528025
     11          1           0        0.543406    1.847080    0.739270
     12          1           0        1.376089    1.487336   -0.859785
 ---------------------------------------------------------------------
                    Distance matrix (angstroms):
                    1          2          3          4          5
     1  C    0.000000
     2  C    1.393950   0.000000
     3  C    2.203768   1.786855   0.000000
     4  O    1.328176   2.339660   3.103617   0.000000
     5  O    2.295307   3.589616   3.894866   1.471402   0.000000
     6  O    3.042425   2.550507   1.256208   4.159235   4.835780
     7  H    2.992204   4.200865   4.719711   1.883021   0.976538
     8  H    1.086491   2.198381   2.585648   2.063914   2.395434
     9  H    2.021112   2.324138   1.131239   2.640925   3.059931
    10  H    2.810413   2.152243   1.113714   3.372979   4.304382
    11  H    2.123276   1.087561   2.410256   2.532260   3.952623
    12  H    2.125990   1.084852   2.285059   3.254770   4.418191
                    6          7          8          9         10
     6  O    0.000000
     7  H    5.722651   0.000000
     8  H    3.072958   3.211199   0.000000
     9  H    2.039669   3.943359   2.242952   0.000000
    10  H    2.081703   5.008292   3.466282   1.767268   0.000000
    11  H    3.323290   4.383337   3.119937   2.945005   2.246869
    12  H    2.515501   5.048283   2.554721   3.028470   2.811254
                   11         12
    11  H    0.000000
    12  H    1.838410   0.000000
 Symmetry turned off by external request.
 Stoichiometry    C3H6O3
 Framework group  C1[X(C3H6O3)]
 Deg. of freedom    30
 Full point group                 C1      NOp   1
 Rotational constants (GHZ):           8.7754650           1.7685534           1.5902642
 Standard basis: 6-31+G(d) (6D, 7F)
   126 basis functions,   216 primitive gaussians,   126 cartesian basis functions
    24 alpha electrons       24 beta electrons
       nuclear repulsion energy       235.8908268237 Hartrees.
 NAtoms=   12 NActive=   12 NUniq=   12 SFac= 1.00D+00 NAtFMM=   60 NAOKFM=F Big=F
 Integral buffers will be    131072 words long.
 Raffenetti 2 integral format.
 Two-electron integral symmetry is turned off.
 One-electron integrals computed using PRISM.
 NBasis=   126 RedAO= T EigKep=  7.82D-05  NBF=   126
 NBsUse=   126 1.00D-06 EigRej= -1.00D+00 NBFU=   126
 Initial guess from the checkpoint file:  "/scratch/bell/zhao922/YARP/paper-example/KHP-network/pp_0/IRC-folder/Gau-109893.chk"
 B after Tr=     0.000951   -0.000000    0.000468
         Rot=    1.000000    0.000478   -0.000025   -0.000033 Ang=   0.05 deg.
 ExpMin= 4.38D-02 ExpMax= 5.48D+03 ExpMxC= 8.25D+02 IAcc=3 IRadAn=         5 AccDes= 0.00D+00
 Harris functional with IExCor=  402 and IRadAn=       5 diagonalized for initial guess.
 HarFok:  IExCor=  402 AccDes= 0.00D+00 IRadAn=         5 IDoV= 1 UseB2=F ITyADJ=14
 ICtDFT=  3500011 ScaDFX=  1.000000  1.000000  1.000000  1.000000
 FoFCou: FMM=F IPFlag=           0 FMFlag=      100000 FMFlg1=           0
         NFxFlg=           0 DoJE=T BraDBF=F KetDBF=T FulRan=T
         wScrn=  0.000000 ICntrl=       500 IOpCl=  0 I1Cent=   200000004 NGrid=           0
         NMat0=    1 NMatS0=      1 NMatT0=    0 NMatD0=    1 NMtDS0=    0 NMtDT0=    0
 Symmetry not used in FoFCou.
 Keep R1 ints in memory in canonical form, NReq=47237243.
 Requested convergence on RMS density matrix=1.00D-08 within 128 cycles.
 Requested convergence on MAX density matrix=1.00D-06.
 Requested convergence on             energy=1.00D-06.
 No special actions if energy rises.
 SCF Done:  E(RB3LYP) =  -343.399504250     A.U. after   12 cycles
            NFock= 12  Conv=0.93D-08     -V/T= 2.0088
 DoSCS=F DFT=T ScalE2(SS,OS)=  1.000000  1.000000
 Range of M.O.s used for correlation:     1   126
 NBasis=   126 NAE=    24 NBE=    24 NFC=     0 NFV=     0
 NROrb=    126 NOA=    24 NOB=    24 NVA=   102 NVB=   102

 **** Warning!!: The largest alpha MO coefficient is  0.24897032D+02

 Symmetrizing basis deriv contribution to polar:
 IMax=3 JMax=2 DiffMx= 0.00D+00
 G2DrvN: will do    13 centers at a time, making    1 passes.
 Calling FoFCou, ICntrl=  3107 FMM=F I1Cent=   0 AccDes= 0.00D+00.
 End of G2Drv F.D. properties file   721 does not exist.
 End of G2Drv F.D. properties file   722 does not exist.
 End of G2Drv F.D. properties file   788 does not exist.
          IDoAtm=111111111111
          Differentiating once with respect to nuclear coordinates.
 Keep R1 ints in memory in canonical form, NReq=47193251.
          There are    39 degrees of freedom in the 1st order CPHF.  IDoFFX=6 NUNeed=     0.
     33 vectors produced by pass  0 Test12= 6.28D-15 2.56D-09 XBig12= 1.84D-01 1.25D-01.
 AX will form    33 AO Fock derivatives at one time.
     33 vectors produced by pass  1 Test12= 6.28D-15 2.56D-09 XBig12= 5.13D-02 4.99D-02.
     33 vectors produced by pass  2 Test12= 6.28D-15 2.56D-09 XBig12= 1.15D-03 6.40D-03.
     33 vectors produced by pass  3 Test12= 6.28D-15 2.56D-09 XBig12= 7.06D-06 4.93D-04.
     33 vectors produced by pass  4 Test12= 6.28D-15 2.56D-09 XBig12= 2.05D-08 2.31D-05.
     29 vectors produced by pass  5 Test12= 6.28D-15 2.56D-09 XBig12= 1.85D-11 5.72D-07.
      6 vectors produced by pass  6 Test12= 6.28D-15 2.56D-09 XBig12= 1.46D-14 1.70D-08.
 InvSVY:  IOpt=1 It=  1 EMax= 2.89D-15
 Solved reduced A of dimension   200 with    33 vectors.
 End of Minotr F.D. properties file   721 does not exist.
 End of Minotr F.D. properties file   722 does not exist.
 End of Minotr F.D. properties file   788 does not exist.
 Calling FoFJK, ICntrl=    100127 FMM=F ISym2X=0 I1Cent= 0 IOpClX= 0 NMat=1 NMatS=1 NMatT=0.
 -------------------------------------------------------------------
 Center     Atomic                   Forces (Hartrees/Bohr)
 Number     Number              X              Y              Z
 -------------------------------------------------------------------
      1        6          -0.003956950    0.018138518   -0.010290795
      2        6          -0.016937741    0.010536129   -0.009151070
      3        6           0.010930046   -0.031263678    0.016081289
      4        8          -0.001953901   -0.000319999    0.003186175
      5        8           0.002891580   -0.001171967    0.000187452
      6        8           0.002748660    0.004323660   -0.002683716
      7        1           0.000161280   -0.000074703   -0.000165637
      8        1           0.000071899    0.000248884    0.000235913
      9        1           0.002097336   -0.002547089    0.003293400
     10        1           0.002514663    0.003852106   -0.001587763
     11        1          -0.000133780    0.000289308   -0.000113825
     12        1           0.001566909   -0.002011168    0.001008577
 -------------------------------------------------------------------
 Cartesian Forces:  Max     0.031263678 RMS     0.008161933
 IRC-IRC-IRC-IRC-IRC-IRC-IRC-IRC-IRC-IRC-IRC-IRC-IRC-IRC-IRC-IRC-IRC-IRC
 Pt  5 Step number   1 out of a maximum of 100
 Modified Bulirsch-Stoer Extrapolation Cycles:
    EPS =    0.000010000000000
      PEZero:  N= 2 I= 1 D=  1.06D-03 Err=  6.64D-05
      PEZero:  N= 3 I= 2 D=  1.06D-03 Err=  4.42D-05
      PEZero:  N= 3 I= 1 D=  2.13D-03 Err=  1.57D-07
 Maximum DWI energy   std dev =  0.000004629 at pt    28
 Maximum DWI gradient std dev =  0.009578805 at pt    47
 CORRECTOR INTEGRATION CONVERGENCE:
   Recorrection delta-x convergence threshold:    0.010000
   Delta-x Convergence Met
 Point Number:   5          Path Number:   1
   CHANGE IN THE REACTION COORDINATE =    0.20420
   NET REACTION COORDINATE UP TO THIS POINT =    1.02079
  # OF POINTS ALONG THE PATH =   5
  # OF STEPS =   1

 Calculating another point on the path.
 IRC-IRC-IRC-IRC-IRC-IRC-IRC-IRC-IRC-IRC-IRC-IRC-IRC-IRC-IRC-IRC-IRC-IRC
                          Input orientation:                          
 ---------------------------------------------------------------------
 Center     Atomic      Atomic             Coordinates (Angstroms)
 Number     Number       Type             X           Y           Z
 ---------------------------------------------------------------------
      1          6           0       -0.379500    0.364371   -0.463328
      2          6           0        0.693938    1.154933   -0.084035
      3          6           0        1.490559   -0.375565    0.493631
      4          8           0       -1.505571    0.444089    0.240504
      5          8           0       -2.358109   -0.722643   -0.032468
      6          8           0        2.473742   -0.682163   -0.219465
      7          1           0       -3.224184   -0.318064    0.166618
      8          1           0       -0.375579   -0.314042   -1.311790
      9          1           0        0.637850   -1.105996    0.561902
     10          1           0        1.599927    0.043345    1.519725
     11          1           0        0.542156    1.849467    0.738435
     12          1           0        1.387359    1.474248   -0.853727
 ---------------------------------------------------------------------
                    Distance matrix (angstroms):
                    1          2          3          4          5
     1  C    0.000000
     2  C    1.386045   0.000000
     3  C    2.227195   1.819541   0.000000
     4  O    1.330328   2.334195   3.116521   0.000000
     5  O    2.298290   3.583705   3.899935   1.470577   0.000000
     6  O    3.048884   2.561439   1.252660   4.161124   4.835638
     7  H    2.992454   4.193355   4.726420   1.881480   0.976425
     8  H    1.086346   2.192974   2.597268   2.064283   2.394587
     9  H    2.061087   2.352059   1.124857   2.664642   3.078313
    10  H    2.820228   2.151393   1.113695   3.382472   4.319964
    11  H    2.121130   1.087139   2.431083   2.533024   3.952414
    12  H    2.122741   1.084076   2.290815   3.260002   4.419200
                    6          7          8          9         10
     6  O    0.000000
     7  H    5.722586   0.000000
     8  H    3.073649   3.209402   0.000000
     9  H    2.039771   3.961363   2.272653   0.000000
    10  H    2.077185   5.023302   3.470998   1.778764   0.000000
    11  H    3.325319   4.382976   3.118723   2.962277   2.234137
    12  H    2.496523   5.051714   2.552598   3.037010   2.779558
                   11         12
    11  H    0.000000
    12  H    1.841232   0.000000
 Symmetry turned off by external request.
 Stoichiometry    C3H6O3
 Framework group  C1[X(C3H6O3)]
 Deg. of freedom    30
 Full point group                 C1      NOp   1
 Rotational constants (GHZ):           8.6888536           1.7659230           1.5870180
 Standard basis: 6-31+G(d) (6D, 7F)
   126 basis functions,   216 primitive gaussians,   126 cartesian basis functions
    24 alpha electrons       24 beta electrons
       nuclear repulsion energy       235.5811173397 Hartrees.
 NAtoms=   12 NActive=   12 NUniq=   12 SFac= 1.00D+00 NAtFMM=   60 NAOKFM=F Big=F
 Integral buffers will be    131072 words long.
 Raffenetti 2 integral format.
 Two-electron integral symmetry is turned off.
 One-electron integrals computed using PRISM.
 NBasis=   126 RedAO= T EigKep=  7.61D-05  NBF=   126
 NBsUse=   126 1.00D-06 EigRej= -1.00D+00 NBFU=   126
 Initial guess from the checkpoint file:  "/scratch/bell/zhao922/YARP/paper-example/KHP-network/pp_0/IRC-folder/Gau-109893.chk"
 B after Tr=     0.000819   -0.000003    0.000355
         Rot=    1.000000    0.000388   -0.000020   -0.000023 Ang=   0.04 deg.
 ExpMin= 4.38D-02 ExpMax= 5.48D+03 ExpMxC= 8.25D+02 IAcc=3 IRadAn=         5 AccDes= 0.00D+00
 Harris functional with IExCor=  402 and IRadAn=       5 diagonalized for initial guess.
 HarFok:  IExCor=  402 AccDes= 0.00D+00 IRadAn=         5 IDoV= 1 UseB2=F ITyADJ=14
 ICtDFT=  3500011 ScaDFX=  1.000000  1.000000  1.000000  1.000000
 FoFCou: FMM=F IPFlag=           0 FMFlag=      100000 FMFlg1=           0
         NFxFlg=           0 DoJE=T BraDBF=F KetDBF=T FulRan=T
         wScrn=  0.000000 ICntrl=       500 IOpCl=  0 I1Cent=   200000004 NGrid=           0
         NMat0=    1 NMatS0=      1 NMatT0=    0 NMatD0=    1 NMtDS0=    0 NMtDT0=    0
 Symmetry not used in FoFCou.
 Keep R1 ints in memory in canonical form, NReq=47237243.
 Requested convergence on RMS density matrix=1.00D-08 within 128 cycles.
 Requested convergence on MAX density matrix=1.00D-06.
 Requested convergence on             energy=1.00D-06.
 No special actions if energy rises.
 SCF Done:  E(RB3LYP) =  -343.402752202     A.U. after   12 cycles
            NFock= 12  Conv=0.87D-08     -V/T= 2.0088
 DoSCS=F DFT=T ScalE2(SS,OS)=  1.000000  1.000000
 Range of M.O.s used for correlation:     1   126
 NBasis=   126 NAE=    24 NBE=    24 NFC=     0 NFV=     0
 NROrb=    126 NOA=    24 NOB=    24 NVA=   102 NVB=   102

 **** Warning!!: The largest alpha MO coefficient is  0.27171246D+02

 Symmetrizing basis deriv contribution to polar:
 IMax=3 JMax=2 DiffMx= 0.00D+00
 G2DrvN: will do    13 centers at a time, making    1 passes.
 Calling FoFCou, ICntrl=  3107 FMM=F I1Cent=   0 AccDes= 0.00D+00.
 End of G2Drv F.D. properties file   721 does not exist.
 End of G2Drv F.D. properties file   722 does not exist.
 End of G2Drv F.D. properties file   788 does not exist.
          IDoAtm=111111111111
          Differentiating once with respect to nuclear coordinates.
 Keep R1 ints in memory in canonical form, NReq=47193251.
          There are    39 degrees of freedom in the 1st order CPHF.  IDoFFX=6 NUNeed=     0.
     33 vectors produced by pass  0 Test12= 6.28D-15 2.56D-09 XBig12= 1.78D-01 1.22D-01.
 AX will form    33 AO Fock derivatives at one time.
     33 vectors produced by pass  1 Test12= 6.28D-15 2.56D-09 XBig12= 5.04D-02 5.15D-02.
     33 vectors produced by pass  2 Test12= 6.28D-15 2.56D-09 XBig12= 1.11D-03 6.18D-03.
     33 vectors produced by pass  3 Test12= 6.28D-15 2.56D-09 XBig12= 6.61D-06 4.76D-04.
     33 vectors produced by pass  4 Test12= 6.28D-15 2.56D-09 XBig12= 1.84D-08 2.14D-05.
     28 vectors produced by pass  5 Test12= 6.28D-15 2.56D-09 XBig12= 1.57D-11 5.62D-07.
      6 vectors produced by pass  6 Test12= 6.28D-15 2.56D-09 XBig12= 1.32D-14 1.64D-08.
 InvSVY:  IOpt=1 It=  1 EMax= 1.55D-15
 Solved reduced A of dimension   199 with    33 vectors.
 End of Minotr F.D. properties file   721 does not exist.
 End of Minotr F.D. properties file   722 does not exist.
 End of Minotr F.D. properties file   788 does not exist.
 Calling FoFJK, ICntrl=    100127 FMM=F ISym2X=0 I1Cent= 0 IOpClX= 0 NMat=1 NMatS=1 NMatT=0.
 -------------------------------------------------------------------
 Center     Atomic                   Forces (Hartrees/Bohr)
 Number     Number              X              Y              Z
 -------------------------------------------------------------------
      1        6          -0.004256261    0.017315568   -0.010421184
      2        6          -0.017726244    0.012602212   -0.010121959
      3        6           0.013730623   -0.031829445    0.017392847
      4        8          -0.002976309   -0.000123284    0.003665335
      5        8           0.003359920   -0.001079990    0.000130363
      6        8           0.002420229    0.003380828   -0.002642290
      7        1           0.000147536   -0.000134697   -0.000238847
      8        1          -0.000096623    0.000541657   -0.000072619
      9        1           0.001822772   -0.002383040    0.002940115
     10        1           0.002306458    0.003282094   -0.001529282
     11        1          -0.000241092    0.000400140   -0.000163606
     12        1           0.001508991   -0.001972044    0.001061128
 -------------------------------------------------------------------
 Cartesian Forces:  Max     0.031829445 RMS     0.008513483
 IRC-IRC-IRC-IRC-IRC-IRC-IRC-IRC-IRC-IRC-IRC-IRC-IRC-IRC-IRC-IRC-IRC-IRC
 Pt  6 Step number   1 out of a maximum of 100
 Modified Bulirsch-Stoer Extrapolation Cycles:
    EPS =    0.000010000000000
      PEZero:  N= 2 I= 1 D=  1.06D-03 Err=  5.74D-05
      PEZero:  N= 3 I= 2 D=  1.06D-03 Err=  3.81D-05
      PEZero:  N= 3 I= 1 D=  2.13D-03 Err=  1.39D-07
 Maximum DWI energy   std dev =  0.000003275 at pt    28
 Maximum DWI gradient std dev =  0.007886074 at pt    47
 CORRECTOR INTEGRATION CONVERGENCE:
   Recorrection delta-x convergence threshold:    0.010000
   Delta-x Convergence Met
 Point Number:   6          Path Number:   1
   CHANGE IN THE REACTION COORDINATE =    0.20421
   NET REACTION COORDINATE UP TO THIS POINT =    1.22500
  # OF POINTS ALONG THE PATH =   6
  # OF STEPS =   1

 Calculating another point on the path.
 IRC-IRC-IRC-IRC-IRC-IRC-IRC-IRC-IRC-IRC-IRC-IRC-IRC-IRC-IRC-IRC-IRC-IRC
                          Input orientation:                          
 ---------------------------------------------------------------------
 Center     Atomic      Atomic             Coordinates (Angstroms)
 Number     Number       Type             X           Y           Z
 ---------------------------------------------------------------------
      1          6           0       -0.381910    0.373834   -0.469094
      2          6           0        0.683751    1.162481   -0.089877
      3          6           0        1.498772   -0.393547    0.503503
      4          8           0       -1.507012    0.444076    0.242120
      5          8           0       -2.356620   -0.723083   -0.032429
      6          8           0        2.474751   -0.680987   -0.220570
      7          1           0       -3.223289   -0.319163    0.164773
      8          1           0       -0.376776   -0.309699   -1.313261
      9          1           0        0.649999   -1.120708    0.580073
     10          1           0        1.614929    0.064199    1.511782
     11          1           0        0.540170    1.852600    0.737266
     12          1           0        1.397912    1.461837   -0.847527
 ---------------------------------------------------------------------
                    Distance matrix (angstroms):
                    1          2          3          4          5
     1  C    0.000000
     2  C    1.378915   0.000000
     3  C    2.252062   1.854072   0.000000
     4  O    1.332896   2.329329   3.131240   0.000000
     5  O    2.300735   3.578060   3.906388   1.469514   0.000000
     6  O    3.055311   2.573546   1.248775   4.163446   4.835216
     7  H    2.992568   4.186297   4.734779   1.879927   0.976297
     8  H    1.086214   2.188310   2.612536   2.065144   2.393992
     9  H    2.097438   2.379690   1.120286   2.686160   3.094030
    10  H    2.829684   2.153747   1.113396   3.391586   4.333313
    11  H    2.119502   1.086759   2.453312   2.533785   3.951958
    12  H    2.120077   1.083361   2.297368   3.265233   4.419815
                    6          7          8          9         10
     6  O    0.000000
     7  H    5.722506   0.000000
     8  H    3.076206   3.207383   0.000000
     9  H    2.040614   3.977098   2.301460   0.000000
    10  H    2.072592   5.036839   3.476716   1.789741   0.000000
    11  H    3.328531   4.382685   3.117850   2.979485   2.225614
    12  H    2.478781   5.054919   2.550444   3.044167   2.750786
                   11         12
    11  H    0.000000
    12  H    1.843905   0.000000
 Symmetry turned off by external request.
 Stoichiometry    C3H6O3
 Framework group  C1[X(C3H6O3)]
 Deg. of freedom    30
 Full point group                 C1      NOp   1
 Rotational constants (GHZ):           8.5953830           1.7629788           1.5833210
 Standard basis: 6-31+G(d) (6D, 7F)
   126 basis functions,   216 primitive gaussians,   126 cartesian basis functions
    24 alpha electrons       24 beta electrons
       nuclear repulsion energy       235.2440245606 Hartrees.
 NAtoms=   12 NActive=   12 NUniq=   12 SFac= 1.00D+00 NAtFMM=   60 NAOKFM=F Big=F
 Integral buffers will be    131072 words long.
 Raffenetti 2 integral format.
 Two-electron integral symmetry is turned off.
 One-electron integrals computed using PRISM.
 NBasis=   126 RedAO= T EigKep=  7.44D-05  NBF=   126
 NBsUse=   126 1.00D-06 EigRej= -1.00D+00 NBFU=   126
 Initial guess from the checkpoint file:  "/scratch/bell/zhao922/YARP/paper-example/KHP-network/pp_0/IRC-folder/Gau-109893.chk"
 B after Tr=     0.000692   -0.000008    0.000253
         Rot=    1.000000    0.000301   -0.000014   -0.000016 Ang=   0.03 deg.
 ExpMin= 4.38D-02 ExpMax= 5.48D+03 ExpMxC= 8.25D+02 IAcc=3 IRadAn=         5 AccDes= 0.00D+00
 Harris functional with IExCor=  402 and IRadAn=       5 diagonalized for initial guess.
 HarFok:  IExCor=  402 AccDes= 0.00D+00 IRadAn=         5 IDoV= 1 UseB2=F ITyADJ=14
 ICtDFT=  3500011 ScaDFX=  1.000000  1.000000  1.000000  1.000000
 FoFCou: FMM=F IPFlag=           0 FMFlag=      100000 FMFlg1=           0
         NFxFlg=           0 DoJE=T BraDBF=F KetDBF=T FulRan=T
         wScrn=  0.000000 ICntrl=       500 IOpCl=  0 I1Cent=   200000004 NGrid=           0
         NMat0=    1 NMatS0=      1 NMatT0=    0 NMatD0=    1 NMtDS0=    0 NMtDT0=    0
 Symmetry not used in FoFCou.
 Keep R1 ints in memory in canonical form, NReq=47237243.
 Requested convergence on RMS density matrix=1.00D-08 within 128 cycles.
 Requested convergence on MAX density matrix=1.00D-06.
 Requested convergence on             energy=1.00D-06.
 No special actions if energy rises.
 SCF Done:  E(RB3LYP) =  -343.406023997     A.U. after   12 cycles
            NFock= 12  Conv=0.49D-08     -V/T= 2.0087
 DoSCS=F DFT=T ScalE2(SS,OS)=  1.000000  1.000000
 Range of M.O.s used for correlation:     1   126
 NBasis=   126 NAE=    24 NBE=    24 NFC=     0 NFV=     0
 NROrb=    126 NOA=    24 NOB=    24 NVA=   102 NVB=   102

 **** Warning!!: The largest alpha MO coefficient is  0.26369962D+02

[...]
  11                   -0.28727   1.61708   0.43314   1.62950   0.73145
  12                   -0.29608   1.61454   0.43390   1.62976   0.74152
  13                   -0.30728   1.61059   0.43631   1.63259   0.74957
  14                   -0.32034   1.60522   0.44023   1.63777   0.75562
  15                   -0.33457   1.59848   0.44535   1.64482   0.75992
  16                   -0.34935   1.59049   0.45133   1.65321   0.76281
  17                   -0.36424   1.58134   0.45789   1.66249   0.76464
  18                   -0.37898   1.57113   0.46480   1.67232   0.76566
  19                   -0.39341   1.55988   0.47193   1.68250   0.76609
  20                   -0.40746   1.54763   0.47919   1.69287   0.76608
  21                   -0.42112   1.53439   0.48656   1.70338   0.76576
  22                   -0.43437   1.52023   0.49407   1.71402   0.76521
  23                   -0.44711   1.50539   0.50177   1.72485   0.76448
  24                   -0.45907   1.49049   0.50969   1.73596   0.76358
  25                   -0.46961   1.47682   0.51781   1.74745   0.76252
  26                   -0.47739   1.46658   0.52587   1.75918   0.76132
  27                   -0.48050   1.46209   0.53334   1.77075   0.76002
  28                   -0.47731   1.46418   0.53961   1.78164   0.75862
  29                   -0.46730   1.47173   0.54435   1.79160   0.75707
  30                   -0.45090   1.48273   0.54754   1.80059   0.75534
  31                   -0.42908   1.49523   0.54937   1.80860   0.75344
  32                   -0.40329   1.50765   0.55007   1.81555   0.75144
  33                   -0.37592   1.51863   0.54994   1.82123   0.74952
  34                   -0.34959   1.52747   0.54935   1.82559   0.74782
  35                   -0.32474   1.53452   0.54856   1.82896   0.74637
  36                   -0.30035   1.54035   0.54770   1.83172   0.74510
  37                   -0.27529   1.54526   0.54682   1.83409   0.74398
  38                   -0.24860   1.54929   0.54598   1.83619   0.74298
  39                   -0.21957   1.55229   0.54522   1.83804   0.74211
  40                   -0.18773   1.55395   0.54462   1.83965   0.74140
  41                   -0.15310   1.55400   0.54425   1.84099   0.74089
  42                   -0.11690   1.55208   0.54414   1.84209   0.74056
  43                   -0.08020   1.54825   0.54419   1.84305   0.74035
  44                   -0.04465   1.54258   0.54422   1.84406   0.74013
  45                   -0.01164   1.53547   0.54403   1.84534   0.73980
  46                    0.01778   1.52750   0.54339   1.84708   0.73926
  47                    0.04302   1.51931   0.54214   1.84947   0.73842
  48                    0.06390   1.51146   0.54015   1.85260   0.73725
  49                    0.08057   1.50437   0.53739   1.85652   0.73573
  50                    0.09339   1.49829   0.53389   1.86123   0.73386
  51                    0.10276   1.49334   0.52969   1.86670   0.73164
  52                    0.10910   1.48954   0.52487   1.87292   0.72904
  53                    0.11278   1.48687   0.51953   1.87986   0.72605
  54                    0.11411   1.48530   0.51374   1.88752   0.72266
  55                    0.11335   1.48477   0.50761   1.89589   0.71884
  56                    0.11075   1.48520   0.50123   1.90496   0.71458
  57                    0.10653   1.48651   0.49468   1.91473   0.70988
  58                    0.10091   1.48861   0.48807   1.92515   0.70475
  59                    0.09412   1.49137   0.48146   1.93619   0.69922
  60                    0.08636   1.49466   0.47493   1.94781   0.69332
  61                    0.07784   1.49838   0.46851   1.95992   0.68710
  62                    0.06875   1.50239   0.46222   1.97245   0.68063
  63                    0.05925   1.50660   0.45606   1.98533   0.67396
  64                    0.04948   1.51090   0.44998   1.99845   0.66717
  65                    0.03955   1.51521   0.44395   2.01174   0.66033
  66                    0.02956   1.51949   0.43789   2.02512   0.65352
  67                    0.01959   1.52367   0.43173   2.03852   0.64681
  68                    0.00969   1.52771   0.42538   2.05185   0.64027
  69                   -0.00008   1.53158   0.41878   2.06507   0.63398
  70                   -0.00969   1.53525   0.41183   2.07811   0.62799
  71                   -0.01910   1.53869   0.40449   2.09094   0.62237
  72                   -0.02828   1.54189   0.39670   2.10350   0.61718
  73                   -0.03721   1.54483   0.38843   2.11577   0.61246
  74                   -0.04586   1.54750   0.37966   2.12770   0.60825
  75                   -0.05423   1.54988   0.37042   2.13928   0.60458
  76                   -0.06228   1.55195   0.36072   2.15047   0.60146
  77                   -0.07000   1.55372   0.35062   2.16126   0.59891
  78                   -0.07735   1.55515   0.34020   2.17160   0.59694
  79                   -0.08433   1.55623   0.32953   2.18146   0.59557
  80                   -0.09091   1.55696   0.31870   2.19079   0.59483
  81                   -0.09709   1.55734   0.30781   2.19953   0.59472
                          X12       Y12       Z12
   1                    1.29994   1.37446  -0.97068
   2                    1.29578   1.38594  -0.95652
   3                    1.29157   1.39748  -0.94221
   4                    1.28734   1.40902  -0.92782
   5                    1.28314   1.42046  -0.91347
   6                    1.27902   1.43174  -0.89930
   7                    1.27503   1.44274  -0.88549
   8                    1.27125   1.45340  -0.87228
   9                    1.26773   1.46360  -0.85999
  10                    1.26455   1.47327  -0.84900
  11                    1.26178   1.48229  -0.83982
  12                    1.25947   1.49058  -0.83293
  13                    1.25759   1.49810  -0.82863
  14                    1.25607   1.50493  -0.82687
  15                    1.25479   1.51123  -0.82730
  16                    1.25362   1.51717  -0.82948
  17                    1.25247   1.52289  -0.83295
  18                    1.25130   1.52851  -0.83736
  19                    1.25010   1.53409  -0.84244
  20                    1.24888   1.53967  -0.84799
  21                    1.24770   1.54527  -0.85387
  22                    1.24667   1.55088  -0.85996
  23                    1.24598   1.55648  -0.86611
  24                    1.24594   1.56207  -0.87215
  25                    1.24700   1.56767  -0.87780
  26                    1.24958   1.57325  -0.88265
  27                    1.25376   1.57866  -0.88636
  28                    1.25907   1.58348  -0.88883
  29                    1.26481   1.58733  -0.89025
  30                    1.27043   1.58992  -0.89091
  31                    1.27563   1.59109  -0.89110
  32                    1.28027   1.59082  -0.89101
  33                    1.28428   1.58926  -0.89081
  34                    1.28776   1.58680  -0.89056
  35                    1.29100   1.58375  -0.89026
  36                    1.29438   1.58015  -0.88983
  37                    1.29818   1.57587  -0.88920
  38                    1.30268   1.57073  -0.88827
  39                    1.30813   1.56451  -0.88691
  40                    1.31476   1.55699  -0.88500
  41                    1.32285   1.54792  -0.88239
  42                    1.33182   1.53771  -0.87916
  43                    1.34202   1.52614  -0.87519
  44                    1.35301   1.51364  -0.87055
  45                    1.36446   1.50054  -0.86532
  46                    1.37600   1.48724  -0.85960
  47                    1.38724   1.47418  -0.85355
  48                    1.39777   1.46178  -0.84737
  49                    1.40726   1.45044  -0.84125
  50                    1.41544   1.44045  -0.83541
  51                    1.42217   1.43200  -0.83006
  52                    1.42737   1.42524  -0.82537
  53                    1.43102   1.42021  -0.82150
  54                    1.43315   1.41693  -0.81857
  55                    1.43380   1.41536  -0.81670
  56                    1.43304   1.41544  -0.81597
  57                    1.43096   1.41708  -0.81642
  58                    1.42764   1.42013  -0.81805
  59                    1.42320   1.42445  -0.82085
  60                    1.41773   1.42990  -0.82474
  61                    1.41133   1.43631  -0.82964
  62                    1.40412   1.44356  -0.83544
  63                    1.39619   1.45152  -0.84201
  64                    1.38761   1.46011  -0.84921
  65                    1.37847   1.46927  -0.85690
  66                    1.36883   1.47894  -0.86496
  67                    1.35875   1.48912  -0.87324
  68                    1.34829   1.49979  -0.88161
  69                    1.33750   1.51096  -0.88996
  70                    1.32642   1.52262  -0.89816
  71                    1.31511   1.53479  -0.90613
  72                    1.30361   1.54747  -0.91376
  73                    1.29196   1.56062  -0.92097
  74                    1.28021   1.57423  -0.92770
  75                    1.26840   1.58825  -0.93390
  76                    1.25657   1.60261  -0.93953
  77                    1.24476   1.61724  -0.94456
  78                    1.23302   1.63206  -0.94897
  79                    1.22139   1.64696  -0.95274
  80                    1.20992   1.66185  -0.95586
  81                    1.19866   1.67665  -0.95833
 --------------------------------------------------------------------------
 
 Total number of points:                   80
 Total number of gradient calculations:    81
 Total number of Hessian calculations:     81
 IRC-IRC-IRC-IRC-IRC-IRC-IRC-IRC-IRC-IRC-IRC-IRC-IRC-IRC-IRC-IRC-IRC-IRC
                          Input orientation:                          
 ---------------------------------------------------------------------
 Center     Atomic      Atomic             Coordinates (Angstroms)
 Number     Number       Type             X           Y           Z
 ---------------------------------------------------------------------
      1          6           0       -0.495275    0.214186   -0.661620
      2          6           0        0.773951    0.911500   -0.129289
      3          6           0        1.720116   -0.078274    0.521964
      4          8           0       -1.476529    0.305484    0.374184
      5          8           0       -2.548779   -0.610577    0.006649
      6          8           0        2.596882   -0.648263   -0.095587
      7          1           0       -3.295578    0.011274   -0.069962
      8          1           0       -0.863940    0.712994   -1.567881
      9          1           0       -0.309911   -0.840535   -0.893829
     10          1           0        1.561189   -0.295046    1.598765
     11          1           0        0.479097    1.695922    0.578833
     12          1           0        1.300016    1.374485   -0.970718
 ---------------------------------------------------------------------
                    Distance matrix (angstroms):
                    1          2          3          4          5
     1  C    0.000000
     2  C    1.542905   0.000000
     3  C    2.528707   1.516249   0.000000
     4  O    1.429715   2.384408   3.222988   0.000000
     5  O    2.311644   3.657285   4.332709   1.457385   0.000000
     6  O    3.259700   2.399391   1.214485   4.209869   5.146815
     7  H    2.869309   4.168332   5.051296   1.895459   0.974822
     8  H    1.098196   2.188981   3.416271   2.076764   2.658885
     9  H    1.095772   2.197477   2.589696   2.069351   2.424103
    10  H    3.098015   2.249815   1.109842   3.329859   4.418849
    11  H    2.164177   1.097130   2.165902   2.408250   3.849073
    12  H    2.159839   1.095034   2.124874   3.265076   4.439475
                    6          7          8          9         10
     6  O    0.000000
     7  H    5.929311   0.000000
     8  H    3.999746   2.940924   0.000000
     9  H    3.020531   3.212249   1.781782   0.000000
    10  H    2.016991   5.144576   4.114006   3.164111   0.000000
    11  H    3.230334   4.184153   2.716298   3.037248   2.484982
    12  H    2.557191   4.877416   2.340273   2.739359   3.075351
                   11         12
    11  H    0.000000
    12  H    1.782789   0.000000
 Symmetry turned off by external request.
 Stoichiometry    C3H6O3
 Framework group  C1[X(C3H6O3)]
 Deg. of freedom    30
 Full point group                 C1      NOp   1
 Rotational constants (GHZ):          10.2965239           1.5482219           1.4876298

 **********************************************************************

            Population analysis using the SCF Density.

 **********************************************************************

 Alpha  occ. eigenvalues --  -19.23233 -19.22944 -19.17259 -10.29559 -10.26486
 Alpha  occ. eigenvalues --  -10.22001  -1.13843  -1.06489  -0.93945  -0.78875
 Alpha  occ. eigenvalues --   -0.66614  -0.59141  -0.55823  -0.50593  -0.49682
 Alpha  occ. eigenvalues --   -0.47646  -0.45319  -0.41570  -0.41071  -0.40359
 Alpha  occ. eigenvalues --   -0.37337  -0.33317  -0.28608  -0.27093
 Alpha virt. eigenvalues --   -0.05225  -0.01345   0.00568   0.02150   0.02368
 Alpha virt. eigenvalues --    0.03504   0.05321   0.06599   0.07350   0.07617
 Alpha virt. eigenvalues --    0.09362   0.11123   0.11336   0.12682   0.15318
 Alpha virt. eigenvalues --    0.16591   0.18177   0.18351   0.20992   0.21608
 Alpha virt. eigenvalues --    0.22526   0.22879   0.23724   0.24258   0.25565
 Alpha virt. eigenvalues --    0.26098   0.27027   0.28443   0.29619   0.32250
 Alpha virt. eigenvalues --    0.33239   0.34432   0.36078   0.36907   0.39019
 Alpha virt. eigenvalues --    0.44253   0.62745   0.63988   0.65487   0.68762
 Alpha virt. eigenvalues --    0.69481   0.75412   0.78276   0.82009   0.85189
 Alpha virt. eigenvalues --    0.92494   0.93889   0.96141   0.98873   1.02186
 Alpha virt. eigenvalues --    1.04285   1.08362   1.10188   1.14927   1.16265
 Alpha virt. eigenvalues --    1.18673   1.22451   1.24430   1.25526   1.27070
 Alpha virt. eigenvalues --    1.28712   1.38223   1.39433   1.46426   1.48576
 Alpha virt. eigenvalues --    1.52131   1.54691   1.61111   1.62420   1.66899
 Alpha virt. eigenvalues --    1.68365   1.70653   1.78949   1.83234   1.84364
 Alpha virt. eigenvalues --    1.86638   1.91169   1.95485   2.00164   2.07589
 Alpha virt. eigenvalues --    2.09724   2.14812   2.20463   2.26454   2.30327
 Alpha virt. eigenvalues --    2.38889   2.39827   2.51214   2.52062   2.56076
 Alpha virt. eigenvalues --    2.62150   2.71260   2.83626   2.86086   3.04467
 Alpha virt. eigenvalues --    3.14737   3.94871   4.14873   4.19439   4.26496
 Alpha virt. eigenvalues --    4.38264   4.53522
          Condensed to atoms (all electrons):
               1          2          3          4          5          6
     1  C    5.293630   0.037412  -0.003190   0.174418  -0.016590  -0.037180
     2  C    0.037412   5.904781   0.145654  -0.053452  -0.003347  -0.094795
     3  C   -0.003190   0.145654   4.894679  -0.010094  -0.000130   0.485372
     4  O    0.174418  -0.053452  -0.010094   8.081363   0.090232  -0.000432
     5  O   -0.016590  -0.003347  -0.000130   0.090232   8.248654  -0.000215
     6  O   -0.037180  -0.094795   0.485372  -0.000432  -0.000215   8.055449
     7  H    0.003464   0.001380  -0.000163  -0.033152   0.193398  -0.000003
     8  H    0.428135  -0.073158   0.004033  -0.063732   0.009011  -0.000654
     9  H    0.390939  -0.038178  -0.004280  -0.029939  -0.013834   0.003246
    10  H    0.016229  -0.140237   0.401128  -0.000850   0.000015  -0.064752
    11  H   -0.047370   0.389389  -0.031961  -0.008384  -0.000877   0.004938
    12  H   -0.035986   0.391934  -0.039713   0.004283  -0.000342  -0.003151
               7          8          9         10         11         12
     1  C    0.003464   0.428135   0.390939   0.016229  -0.047370  -0.035986
     2  C    0.001380  -0.073158  -0.038178  -0.140237   0.389389   0.391934
     3  C   -0.000163   0.004033  -0.004280   0.401128  -0.031961  -0.039713
     4  O   -0.033152  -0.063732  -0.029939  -0.000850  -0.008384   0.004283
     5  O    0.193398   0.009011  -0.013834   0.000015  -0.000877  -0.000342
     6  O   -0.000003  -0.000654   0.003246  -0.064752   0.004938  -0.003151
     7  H    0.364311   0.001593  -0.000558   0.000000  -0.000014   0.000009
     8  H    0.001593   0.556812  -0.046009  -0.000243  -0.001121  -0.004858
     9  H   -0.000558  -0.046009   0.514615   0.001311   0.003578   0.001382
    10  H    0.000000  -0.000243   0.001311   0.607802   0.002771   0.003334
    11  H   -0.000014  -0.001121   0.003578   0.002771   0.485498  -0.025586
    12  H    0.000009  -0.004858   0.001382   0.003334  -0.025586   0.472281
 Mulliken charges:
               1
     1  C   -0.203912
     2  C   -0.467384
     3  C    0.158663
     4  O   -0.150262
     5  O   -0.505975
     6  O   -0.347822
     7  H    0.469733
     8  H    0.190192
     9  H    0.217727
    10  H    0.173492
    11  H    0.229137
    12  H    0.236412
 Sum of Mulliken charges =  -0.00000
 Mulliken charges with hydrogens summed into heavy atoms:
               1
     1  C    0.204007
     2  C   -0.001835
     3  C    0.332155
     4  O   -0.150262
     5  O   -0.036243
     6  O   -0.347822
 APT charges:
               1
     1  C   -0.610749
     2  C   -0.889548
     3  C   -0.387145
     4  O   -0.131519
     5  O   -0.873715
     6  O   -0.071070
     7  H    0.801873
     8  H    0.472328
     9  H    0.363561
    10  H    0.386273
    11  H    0.427830
    12  H    0.511880
 Sum of APT charges =  -0.00000
 APT charges with hydrogens summed into heavy atoms:
               1
     1  C    0.225141
     2  C    0.050162
     3  C   -0.000872
     4  O   -0.131519
     5  O   -0.071842
     6  O   -0.071070
 Electronic spatial extent (au):  <R**2>=            772.9389
 Charge=             -0.0000 electrons
 Dipole moment (field-independent basis, Debye):
    X=             -2.2270    Y=              2.5494    Z=             -0.3651  Tot=              3.4048
 Quadrupole moment (field-independent basis, Debye-Ang):
   XX=            -38.9214   YY=            -36.8696   ZZ=            -35.1567
   XY=              1.0140   XZ=              4.0917   YZ=             -0.7344
 Traceless Quadrupole moment (field-independent basis, Debye-Ang):
   XX=             -1.9389   YY=              0.1130   ZZ=              1.8259
   XY=              1.0140   XZ=              4.0917   YZ=             -0.7344
 Octapole moment (field-independent basis, Debye-Ang**2):
  XXX=            -66.6241  YYY=             -3.3536  ZZZ=              2.7050  XYY=             -0.7232
  XXY=             16.8833  XXZ=              1.9619  XZZ=              0.9361  YZZ=             -0.6685
  YYZ=              0.2116  XYZ=             -0.3657
 Hexadecapole moment (field-independent basis, Debye-Ang**3):
 XXXX=           -661.0931 YYYY=           -119.4406 ZZZZ=            -92.6460 XXXY=              3.5570
 XXXZ=              6.3921 YYYX=             -0.2679 YYYZ=              5.5053 ZZZX=             -7.3181
 ZZZY=              1.9695 XXYY=           -154.7555 XXZZ=           -138.2043 YYZZ=            -34.1734
 XXYZ=             -0.1185 YYXZ=             -3.4067 ZZXY=             -1.3948
 N-N= 2.323418871527D+02 E-N=-1.269222637520D+03  KE= 3.403621902054D+02
  Exact polarizability:   0.000   0.000   0.000   0.000   0.000   0.000
 Approx polarizability:  77.643  -2.291  61.097  -4.840   3.696  62.245

 This type of calculation cannot be archived.


 The mind is not a vessel to be filled but a fire to be kindled.
                                  -- Plutarch
 Job cpu time:       0 days  6 hours 52 minutes  9.3 seconds.
 Elapsed time:       0 days  0 hours 29 minutes 26.7 seconds.
 File lengths (MBytes):  RWF=     28 Int=      0 D2E=      0 Chk=      4 Scr=      1
 Normal termination of Gaussian 16 at Wed Dec 23 22:46:06 2020.
